                              Psi4 1.0.54 Driver

  ==> Input File <==

--------------------------------------------------------------------------
set {
	reference rhf
	basis cc-pvtz
}

set_num_threads( 4 )
memory 2 gb

molecule MOL {
0 1

H	 2.336834	 2.587126	 -0.596423
O	 3.123450	 2.177258	 -0.904766
C	 3.481089	 1.115402	 -0.059883
C	 2.576689	 -0.100243	 -0.197560
H	 4.492279	 0.847050	 -0.334585
H	 3.506050	 1.446886	 0.976430
C	 1.135375	 0.136629	 0.247811
H	 2.590679	 -0.425595	 -1.233469
H	 3.007613	 -0.905743	 0.392247
C	 0.266027	 -1.114095	 0.126324
H	 0.703517	 0.935826	 -0.345304
H	 1.129235	 0.476075	 1.282232
C	 -1.170088	 -0.954266	 0.628601
H	 0.249204	 -1.437615	 -0.911596
H	 0.737625	 -1.917644	 0.685228
C	 -2.041121	 -0.006551	 -0.194127
H	 -1.639144	 -1.934285	 0.637437
H	 -1.152777	 -0.619597	 1.663421
C	 -3.489218	 0.042606	 0.286507
H	 -2.021022	 -0.316397	 -1.236748
H	 -1.629224	 0.997749	 -0.167210
C	 -4.219984	 1.311773	 -0.139038
H	 -4.022855	 -0.824300	 -0.093339
H	 -3.510372	 -0.038577	 1.370031
H	 -4.244251	 1.405725	 -1.219696
H	 -5.244345	 1.313233	 0.215630
H	 -3.732090	 2.196311	 0.257073

	symmetry c1
}
set optking {
	frozen_dihedral = ("
		20 16 19 22
	")
}

ee,wfn = optimize('scf', return_wfn=True)
oeprop( wfn, 'DIPOLE', 'QUADRUPOLE', 'MULLIKEN_CHARGES')
f=open( 'psi4out.xyz', 'w' )
f.write( "27  " )
f.write( str(ee) + "\n" )
f.write( MOL.save_string_xyz() )
f.close()
--------------------------------------------------------------------------

    Molecular point group: c1
  Charge       = 0
  Multiplicity = 1
  Basis Set: CC-PVTZ
  Basis Set:
  @DF-RHF Final Energy:  -388.42613076989437
    Total Energy =                       -388.4261307698948258
    Molecular point group: c1
  Basis Set: CC-PVTZ
  Basis Set:
  Basis Set: CC-PVTZ
  Basis Set:
  @DF-RHF Final Energy:  -388.39744863093836
    Total Energy =                       -388.3974486309383565
  Basis Set: CC-PVTZ
  Basis Set:
  Basis Set: CC-PVTZ
  Basis Set:
  @DF-RHF Final Energy:  -388.42572355920134
    Total Energy =                       -388.4257235592012876
  Basis Set: CC-PVTZ
  Basis Set:
  Basis Set: CC-PVTZ
  Basis Set:
  @DF-RHF Final Energy:  -388.42630166999305
    Total Energy =                       -388.4263016699928812
  Basis Set: CC-PVTZ
  Basis Set:
  Basis Set: CC-PVTZ
  Basis Set:
  @DF-RHF Final Energy:  -388.42630404060685
    Total Energy =                       -388.4263040406070786
  Basis Set: CC-PVTZ
  Basis Set:
  Basis Set: CC-PVTZ
  Basis Set:
  @DF-RHF Final Energy:  -388.42631959035691
    Total Energy =                       -388.4263195903569112
  Basis Set: CC-PVTZ
  Basis Set:
  Basis Set: CC-PVTZ
  Basis Set:
  @DF-RHF Final Energy:  -388.42632637196232
    Total Energy =                       -388.4263263719622046
  Basis Set: CC-PVTZ
  Basis Set:
  Charge       = 0
  Multiplicity = 1
  Basis Set: CC-PVTZ
  Basis Set:

    Orbital Energies (a.u.)
    -----------------------

    Doubly Occupied:

       1A    -20.545322     2A    -11.264965     3A    -11.216749
       4A    -11.214537     5A    -11.213902     6A    -11.213234
       7A    -11.213207     8A    -11.211928     9A    -11.207460
      10A     -1.363226    11A     -1.096045    12A     -1.062132
      13A     -1.012359    14A     -0.949432    15A     -0.888500
      16A     -0.820551    17A     -0.802342    18A     -0.777886
      19A     -0.696213    20A     -0.652933    21A     -0.636697
      22A     -0.616062    23A     -0.604522    24A     -0.583584
      25A     -0.581999    26A     -0.551612    27A     -0.540519
      28A     -0.534727    29A     -0.504391    30A     -0.495861
      31A     -0.486877    32A     -0.472589    33A     -0.470850
      34A     -0.459932    35A     -0.452594    36A     -0.441875
      37A     -0.425586

  @DF-RHF Final Energy:  -388.42632653189258

   => Energetics <=

    Nuclear Repulsion Energy =            460.4717818978498940
    One-Electron Energy =               -1439.2298055143116926
    Two-Electron Energy =                 590.3316970845696687
    DFT Exchange-Correlation Energy =       0.0000000000000000
    Empirical Dispersion Energy =           0.0000000000000000
    PCM Polarization Energy =               0.0000000000000000
    EFP Energy =                            0.0000000000000000
    Total Energy =                       -388.4263265318920730
    Molecular point group: c1
  Basis Set: CC-PVTZ
  Basis Set:

  -Total Gradient:
     Atom            X                  Y                   Z
    ------   -----------------  -----------------  -----------------
       1        0.000005171417     0.000001593957     0.000002196432
       2        0.000004948959    -0.000014588783    -0.000003066028
       3       -0.000007686275     0.000010018798     0.000014877637
       4        0.000005026177    -0.000015095747    -0.000003516321
       5        0.000000436020     0.000001440380     0.000000085670
       6        0.000004697044     0.000003471816     0.000007588078
       7       -0.000014872296     0.000007254240    -0.000018881774
       8       -0.000005113358     0.000005510538    -0.000003103885
       9        0.000004741555    -0.000007536865    -0.000004329233
      10        0.000025239254     0.000003058097     0.000007283167
      11       -0.000009083312    -0.000004057908    -0.000007503909
      12       -0.000005208922     0.000002715407    -0.000003427439
      13       -0.000005674714     0.000013955295    -0.000032474637
      14       -0.000002878121     0.000009867302     0.000000392414
      15        0.000014581624    -0.000008226163    -0.000001056291
      16        0.000454032757     0.004739126529     0.001007906875
      17       -0.000001707477    -0.000006820770    -0.000001227398
      18       -0.000013671542     0.000018825831    -0.000004287467
      19       -0.001050278276    -0.001530866121    -0.003606510321
      20       -0.000091177747    -0.003707131895     0.000053881669
      21        0.000026438552     0.000005477098    -0.000010951261
      22        0.000697786063     0.000464279380     0.002608539259
      23       -0.000028591258    -0.000007076613     0.000010738900
      24       -0.000011846142     0.000024416300    -0.000009397806
      25        0.000008870635    -0.000017031744     0.000012039189
      26        0.000006020352     0.000007579071    -0.000011537258
      27       -0.000010200958    -0.000000157431    -0.000004258257

  **** Optimization is complete! (in 8 steps) ****
    Final optimized geometry and variables:
    Molecular point group: c1

    Geometry (in Angstrom), charge = 0, multiplicity = 1:

    H            2.601325755353     2.036039622318     0.104677844420
    O            3.354846493359     1.630008781367    -0.281232725788
    C            3.549094442207     0.350754557164     0.261748443572
    C            2.527359408338    -0.671379862746    -0.213442055643
    H            4.538753000654     0.044877251347    -0.049657133993
    H            3.553453963246     0.396800273480     1.349066553676
    C            1.097524714462    -0.387241525919     0.241007618083
    H            2.564091878183    -0.717876566584    -1.297665026869
    H            2.834683737384    -1.647146788631     0.155050266413
    C            0.106982707348    -1.455214249393    -0.220380367007
    H            0.786236276581     0.580964433386    -0.136894134218
    H            1.071422116968    -0.322229597014     1.327408833132
    C           -1.325587596142    -1.265282885296     0.280527021136
    H            0.105279228010    -1.494321385157    -1.306964400149
    H            0.463027230287    -2.425071290934     0.115922175484
    C           -2.042472770586    -0.027185109200    -0.259858213034
    H           -1.902476461840    -2.144653523062     0.006541672055
    H           -1.324704466628    -1.233109177398     1.367621965789
    C           -3.519243222244     0.018674592474     0.140377763776
    H           -1.965928018160    -0.041274911762    -1.344396299027
    H           -1.545474026050     0.872906465238     0.085489430578
    C           -4.128415046778     1.413979431596     0.048938662976
    H           -4.083546565127    -0.674529202944    -0.475762238227
    H           -3.621407602202    -0.334754854017     1.163010349789
    H           -4.044602281233     1.817315702440    -0.955267256537
    H           -5.179861917701     1.402897124259     0.312559221561
    H           -3.625004148317     2.100009017682     0.721586372252

  Mulliken Charges: (a.u.)
   Center  Symbol    Alpha    Beta     Spin     Total
       1     H     0.39230  0.39230  0.00000  0.21540
       2     O     4.20550  4.20550  0.00000 -0.41099
       3     C     2.97992  2.97992  0.00000  0.04016
       4     C     3.08929  3.08929  0.00000 -0.17857
       5     H     0.44857  0.44857  0.00000  0.10286
       6     H     0.46974  0.46974  0.00000  0.06051
       7     C     3.10268  3.10268  0.00000 -0.20536
       8     H     0.45079  0.45079  0.00000  0.09842
       9     H     0.45519  0.45519  0.00000  0.08961
      10     C     3.09844  3.09844  0.00000 -0.19687
      11     H     0.45561  0.45561  0.00000  0.08878
      12     H     0.45373  0.45373  0.00000  0.09254
      13     C     3.09804  3.09804  0.00000 -0.19608
      14     H     0.45172  0.45172  0.00000  0.09657
      15     H     0.44809  0.44809  0.00000  0.10383
      16     C     3.08929  3.08929  0.00000 -0.17859
      17     H     0.44782  0.44782  0.00000  0.10435
      18     H     0.45409  0.45409  0.00000  0.09182
      19     C     3.08438  3.08438  0.00000 -0.16876
      20     H     0.45313  0.45313  0.00000  0.09375
      21     H     0.45563  0.45563  0.00000  0.08873
      22     C     3.14912  3.14912  0.00000 -0.29824
      23     H     0.45166  0.45166  0.00000  0.09668
      24     H     0.45606  0.45606  0.00000  0.08787
      25     H     0.45455  0.45455  0.00000  0.09090
      26     H     0.44866  0.44866  0.00000  0.10268
      27     H     0.45600  0.45600  0.00000  0.08799

   Total alpha = 37.00000, Total beta = 37.00000, Total charge =  0.00000

*** Psi4 exiting successfully. Buy a developer a beer!
