  ==> Input File <==

--------------------------------------------------------------------------
set {
	reference rhf
	basis 6-31G*
}

set_num_threads( 4 )
memory 2 gb

molecule MOL {
0 1

O	 -0.460091	 -0.557105	 1.951918
C	 0.577085	 -0.818978	 1.433507
C	 1.245376	 -0.013843	 0.345420
O	 1.300572	 -1.884271	 1.754984
C	 0.455112	 1.231400	 -0.050772
H	 2.241827	 0.231668	 0.697554
H	 1.385927	 -0.675195	 -0.505789
C	 -0.998893	 1.219485	 0.433193
H	 0.482531	 1.345121	 -1.130325
H	 0.957290	 2.103070	 0.354729
C	 -1.883438	 0.145884	 -0.207175
H	 -1.431207	 2.195402	 0.224832
H	 -1.019646	 1.105716	 1.516076
C	 -3.347647	 0.245583	 0.225435
H	 -1.822183	 0.231698	 -1.291012
H	 -1.510341	 -0.844814	 0.042401
C	 -4.239992	 -0.825570	 -0.404234
H	 -3.732888	 1.230466	 -0.033079
H	 -3.408585	 0.170602	 1.310038
C	 -5.701275	 -0.716658	 0.029921
H	 -4.179496	 -0.752714	 -1.488058
H	 -3.859041	 -1.810759	 -0.143352
H	 -6.308102	 -1.488908	 -0.432678
H	 -6.122175	 0.245478	 -0.248167
H	 -5.799072	 -0.820114	 1.106957
C	 0.784347	 -2.730194	 2.766325
H	 0.672997	 -2.188594	 3.694643
H	 1.504031	 -3.525672	 2.881548
H	 -0.174561	 -3.132429	 2.472657

	symmetry c1
}
set optking {
	frozen_dihedral = ("
		6 3 5 9
	")
}

ee = optimize('scf')
oeprop('DIPOLE', 'QUADRUPOLE', 'MULLIKEN_CHARGES')
f=open( 'psi4out.xyz', 'w' )
f.write( "29  " )
f.write( str(ee) + "\n" )
f.write( MOL.save_string_xyz() )
f.close()
--------------------------------------------------------------------------

    Molecular point group: c1
  Charge       = 0
  Multiplicity = 1
  Basis Set: 6-31G*
  Basis Set:
  @DF-RHF Final Energy:  -501.00716321477626
    Total Energy =                       -501.0071632147755736
    Molecular point group: c1
  Basis Set: 6-31G*
  Basis Set:
  Basis Set: 6-31G*
  Basis Set:
  @DF-RHF Final Energy:  -501.02164823150883
    Total Energy =                       -501.0216482315088342
  Basis Set: 6-31G*
  Basis Set:
  Basis Set: 6-31G*
  Basis Set:
  @DF-RHF Final Energy:  -501.02922535011419
    Total Energy =                       -501.0292253501141886
  Basis Set: 6-31G*
  Basis Set:
  Basis Set: 6-31G*
  Basis Set:
  @DF-RHF Final Energy:  -501.02913532507694
    Total Energy =                       -501.0291353250768225
  Basis Set: 6-31G*
  Basis Set:
  @DF-RHF Final Energy:  -501.03238870001201
    Total Energy =                       -501.0323887000122340
  @DF-RHF Final Energy:  -501.03308550431950
    Total Energy =                       -501.0330855043196152
  @DF-RHF Final Energy:  -501.03342353137612
    Total Energy =                       -501.0334235313761155
  @DF-RHF Final Energy:  -501.03387787790984
    Total Energy =                       -501.0338778779102995
  @DF-RHF Final Energy:  -501.03450870019753
    Total Energy =                       -501.0345087001978754
  @DF-RHF Final Energy:  -501.03516357649312
    Total Energy =                       -501.0351635764927778
  @DF-RHF Final Energy:  -501.03558452146615
    Total Energy =                       -501.0355845214658075
  @DF-RHF Final Energy:  -501.03583589191521
    Total Energy =                       -501.0358358919145303
  @DF-RHF Final Energy:  -501.03590286797510
    Total Energy =                       -501.0359028679753237
  @DF-RHF Final Energy:  -501.03608660844895
    Total Energy =                       -501.0360866084490681
  Basis Set: 6-31G*
  Basis Set:
  @DF-RHF Final Energy:  -501.03612743411645
    Total Energy =                       -501.0361274341170201
  Basis Set: 6-31G*
  Basis Set:
  Basis Set: 6-31G*
  Basis Set:
  @DF-RHF Final Energy:  -501.03613515572772
    Total Energy =                       -501.0361351557269245
  Basis Set: 6-31G*
  Basis Set:
  Basis Set: 6-31G*
  Basis Set:
  @DF-RHF Final Energy:  -501.03613854835544
    Total Energy =                       -501.0361385483550976
  Basis Set: 6-31G*
  Basis Set:
  Charge       = 0
  Multiplicity = 1
  Basis Set: 6-31G*
  Basis Set:

    Orbital Energies (a.u.)
    -----------------------

    Doubly Occupied:

       1A    -20.606795     2A    -20.542516     3A    -11.372505
       4A    -11.281510     5A    -11.234990     6A    -11.226877
       7A    -11.214048     8A    -11.213204     9A    -11.211802
      10A    -11.211663    11A    -11.207583    12A     -1.470275
      13A     -1.361869    14A     -1.095129    15A     -1.063758
      16A     -1.016610    17A     -0.976964    18A     -0.929331
      19A     -0.862549    20A     -0.801486    21A     -0.788430
      22A     -0.765633    23A     -0.690165    24A     -0.682441
      25A     -0.670665    26A     -0.649713    27A     -0.627957
      28A     -0.613642    29A     -0.590161    30A     -0.577750
      31A     -0.562215    32A     -0.554024    33A     -0.533666
      34A     -0.525171    35A     -0.521120    36A     -0.505025
      37A     -0.496938    38A     -0.480299    39A     -0.470694
      40A     -0.462805    41A     -0.458045    42A     -0.451766
      43A     -0.437710    44A     -0.427918

  @DF-RHF Final Energy:  -501.03613918587212

   => Energetics <=

    Nuclear Repulsion Energy =            646.1050649408114168
    One-Electron Energy =               -1963.3915697880599964
    Two-Electron Energy =                 816.2503656613757812
    DFT Exchange-Correlation Energy =       0.0000000000000000
    Empirical Dispersion Energy =           0.0000000000000000
    PCM Polarization Energy =               0.0000000000000000
    EFP Energy =                            0.0000000000000000
    Total Energy =                       -501.0361391858727984
    Molecular point group: c1
  Basis Set: 6-31G*
  Basis Set:

  -Total Gradient:
     Atom            X                  Y                   Z
    ------   -----------------  -----------------  -----------------
       1        0.000029150892    -0.000030825947     0.000031488879
       2       -0.000010012979    -0.000032001432    -0.000064198741
       3        0.001344123290    -0.001599255665    -0.007429929909
       4        0.000019171806     0.000025238482     0.000022091152
       5        0.005802362170     0.004646039991     0.001465727583
       6       -0.001976912152     0.000682882307     0.006080851429
       7        0.000013120402    -0.000006543138     0.000010875011
       8       -0.000048858007    -0.000021754955     0.000005926883
       9       -0.005175731269    -0.003718537664    -0.000103562078
      10       -0.000016828912     0.000012269961    -0.000001409199
      11        0.000031097421     0.000033149164     0.000018575502
      12       -0.000000816330     0.000005678041    -0.000002756880
      13       -0.000006721657     0.000015649501    -0.000044834375
      14        0.000007154912    -0.000006883750     0.000021235256
      15        0.000001067045    -0.000011786487     0.000008170149
      16       -0.000004138757    -0.000006190478    -0.000002065883
      17        0.000000242101     0.000005167865    -0.000008925899
      18       -0.000007032394    -0.000000101578    -0.000004771939
      19        0.000009435246     0.000003071640    -0.000004688484
      20        0.000007435565    -0.000000016498     0.000006607411
      21        0.000002285950     0.000001886786    -0.000003103390
      22       -0.000003630947     0.000004107695     0.000001907444
      23        0.000004050581    -0.000000500971     0.000000397553
      24        0.000001106542    -0.000000173574    -0.000003049053
      25       -0.000002000627     0.000001557711     0.000002076417
      26       -0.000033976809     0.000002314019    -0.000007914628
      27        0.000006473014     0.000004461522    -0.000001111598
      28        0.000004726964     0.000000284157     0.000000716396
      29        0.000003656939    -0.000009186707     0.000005674987

  **** Optimization is complete! (in 18 steps) ****
    Final optimized geometry and variables:
    Molecular point group: c1

    Geometry (in Angstrom), charge = 0, multiplicity = 1:

    O            1.703955275023     0.292093227801     1.871337338501
    C            1.906540255612    -0.230664642828     0.821329960776
    C            2.370144812285     0.494232860402    -0.422474368294
    O            1.793221395481    -1.538504413491     0.633694586395
    C            1.505738440214     1.713203593071    -0.842405875978
    H            3.356167421542     0.851275478579    -0.139808345112
    H            2.478041060245    -0.218311695429    -1.227026114275
    C            0.031019601833     1.706691726269    -0.413044046025
    H            1.506952964020     1.743058270818    -1.928236193344
    H            1.970355908005     2.623561101361    -0.484324575293
    C           -0.793654739243     0.573537121535    -1.031225977126
    H           -0.399749453011     2.656669150618    -0.722047502057
    H           -0.043510330181     1.674057178730     0.667513690167
    C           -2.265459541439     0.614387779758    -0.615728722698
    H           -0.724928727236     0.631980079572    -2.116735490793
    H           -0.375239606197    -0.391890890438    -0.755249993224
    C           -3.101490637924    -0.507140961286    -1.234850890987
    H           -2.692067204938     1.576058734312    -0.896258322739
    H           -2.333882889545     0.556619723312     0.469164604129
    C           -4.570142656234    -0.459353019872    -0.814681160805
    H           -3.034714281977    -0.449668709644    -2.319295541347
    H           -2.677422399949    -1.469124179776    -0.954441650668
    H           -5.136379295776    -1.266821942146    -1.268712916644
    H           -5.032814047060     0.477281952555    -1.112820125503
    H           -4.672663332251    -0.548659470713     0.263165510457
    C            1.417865683782    -2.317435183870     1.755611251265
    H            2.143635600046    -2.213715182281     2.549176946057
    H            1.385646197968    -3.338227474746     1.408087478796
    H            0.447058872645    -2.014297717552     2.120168048521

  Mulliken Charges: (a.u.)
   Center  Symbol    Alpha    Beta     Spin     Total
       1     O     4.28729  4.28729  0.00000 -0.57457
       2     C     2.61025  2.61025  0.00000  0.77950
       3     C     3.20993  3.20993  0.00000 -0.41987
       4     O     4.30424  4.30424  0.00000 -0.60848
       5     C     3.15120  3.15120  0.00000 -0.30240
       6     H     0.39810  0.39810  0.00000  0.20380
       7     H     0.39813  0.39813  0.00000  0.20374
       8     C     3.16941  3.16941  0.00000 -0.33882
       9     H     0.41764  0.41764  0.00000  0.16472
      10     H     0.41089  0.41089  0.00000  0.17823
      11     C     3.15890  3.15890  0.00000 -0.31780
      12     H     0.42076  0.42076  0.00000  0.15847
      13     H     0.40216  0.40216  0.00000  0.19568
      14     C     3.15024  3.15024  0.00000 -0.30049
      15     H     0.42492  0.42492  0.00000  0.15016
      16     H     0.42039  0.42039  0.00000  0.15923
      17     C     3.15128  3.15128  0.00000 -0.30257
      18     H     0.42391  0.42391  0.00000  0.15217
      19     H     0.42189  0.42189  0.00000  0.15623
      20     C     3.23929  3.23929  0.00000 -0.47857
      21     H     0.42345  0.42345  0.00000  0.15310
      22     H     0.42373  0.42373  0.00000  0.15254
      23     H     0.41979  0.41979  0.00000  0.16042
      24     H     0.42172  0.42172  0.00000  0.15655
      25     H     0.42165  0.42165  0.00000  0.15670
      26     C     3.09326  3.09326  0.00000 -0.18652
      27     H     0.40833  0.40833  0.00000  0.18334
      28     H     0.40827  0.40827  0.00000  0.18346
      29     H     0.40899  0.40899  0.00000  0.18202

   Total alpha = 44.00000, Total beta = 44.00000, Total charge =  0.00000
