  ==> Input File <==

--------------------------------------------------------------------------
set {
	reference rhf
	basis 6-31G*
}

set_num_threads( 4 )
memory 2 gb

molecule MOL {
0 1

H	 -3.301617	 0.570527	 0.000000
C	 -2.250981	 0.344174	 0.000000
C	 -1.813665	 -0.976045	 0.000000
C	 -1.315303	 1.358057	 0.000000
H	 -2.528860	 -1.779366	 0.000000
C	 -0.467298	 -1.270142	 0.000000
H	 -1.635074	 2.385107	 0.000000
C	 0.047081	 1.078114	 0.000000
H	 -0.115948	 -2.285222	 0.000000
C	 0.472063	 -0.241155	 0.000000
H	 0.749976	 1.888426	 0.000000
O	 1.765256	 -0.628444	 0.000000
C	 2.206356	 -1.574989	 -0.929814
H	 1.688444	 -2.520901	 -0.810018
H	 3.258584	 -1.720774	 -0.736487
H	 2.077432	 -1.222036	 -1.947721

	symmetry c1
}
set optking {
	frozen_dihedral = ("
		13 12 10 8
	")
}

ee = optimize('scf')
oeprop('DIPOLE', 'QUADRUPOLE', 'MULLIKEN_CHARGES')
f=open( 'psi4out.xyz', 'w' )
f.write( "16  " )
f.write( str(ee) + "\n" )
f.write( MOL.save_string_xyz() )
f.close()
--------------------------------------------------------------------------

    Molecular point group: c1
  Charge       = 0
  Multiplicity = 1
  Basis Set: 6-31G*
  Basis Set:
  @DF-RHF Final Energy:  -344.57508969947361
    Total Energy =                       -344.5750896994736081
    Molecular point group: c1
  Basis Set: 6-31G*
  Basis Set:
  Basis Set: 6-31G*
  Basis Set:
  @DF-RHF Final Energy:  -344.57906657891078
    Total Energy =                       -344.5790665789107834
  Basis Set: 6-31G*
  Basis Set:
  Basis Set: 6-31G*
  Basis Set:
  @DF-RHF Final Energy:  -344.58022498242332
    Total Energy =                       -344.5802249824230898
  Basis Set: 6-31G*
  Basis Set:
  Basis Set: 6-31G*
  Basis Set:
  @DF-RHF Final Energy:  -344.58036840529388
    Total Energy =                       -344.5803684052938252
  Basis Set: 6-31G*
  Basis Set:
  Basis Set: 6-31G*
  Basis Set:
  @DF-RHF Final Energy:  -344.58038522137690
    Total Energy =                       -344.5803852213765595
  Basis Set: 6-31G*
  Basis Set:
  Charge       = 0
  Multiplicity = 1
  Basis Set: 6-31G*
  Basis Set:

    Orbital Energies (a.u.)
    -----------------------

    Doubly Occupied:

       1A    -20.575741     2A    -11.288807     3A    -11.276977
       4A    -11.233589     5A    -11.232263     6A    -11.225768
       7A    -11.223652     8A    -11.221988     9A     -1.404008
      10A     -1.146949    11A     -1.018771    12A     -1.014012
      13A     -0.936375    14A     -0.832792    15A     -0.805733
      16A     -0.716265    17A     -0.665855    18A     -0.661632
      19A     -0.643772    20A     -0.614327    21A     -0.592005
      22A     -0.581813    23A     -0.528965    24A     -0.510449
      25A     -0.505233    26A     -0.481573    27A     -0.444759
      28A     -0.334908    29A     -0.313977

  @DF-RHF Final Energy:  -344.58038638184837

   => Energetics <=

    Nuclear Repulsion Energy =            347.9187967523517955
    One-Electron Energy =               -1156.9324517794334497
    Two-Electron Energy =                 464.4332686452332837
    DFT Exchange-Correlation Energy =       0.0000000000000000
    Empirical Dispersion Energy =           0.0000000000000000
    PCM Polarization Energy =               0.0000000000000000
    EFP Energy =                            0.0000000000000000
    Total Energy =                       -344.5803863818483705
    Molecular point group: c1
  Basis Set: 6-31G*
  Basis Set:

  -Total Gradient:
     Atom            X                  Y                   Z
    ------   -----------------  -----------------  -----------------
       1       -0.000010495338    -0.000022013992    -0.000006109961
       2        0.000042292842     0.000131656774    -0.000021429112
       3        0.000069954446    -0.000095699452     0.000036983722
       4       -0.000102300475    -0.000040607421     0.000017210378
       5       -0.000020893579     0.000009138098    -0.000005252612
       6       -0.000059598331    -0.000070429679    -0.000023697488
       7        0.000017830840     0.000002503764    -0.000002458966
       8        0.000095593341    -0.000090765222    -0.000769414557
       9       -0.000001440489     0.000003934035    -0.000008071529
      10       -0.000067577204     0.000463273207     0.000909114933
      11        0.000011543908     0.000001708933    -0.000003245656
      12       -0.000096602985    -0.000835755549     0.000355917702
      13        0.000096326887     0.000547441735    -0.000510377361
      14       -0.000002049711    -0.000028211110     0.000009455601
      15        0.000028773053     0.000008753453     0.000001413124
      16       -0.000001357203     0.000015072425     0.000019961781

  **** Optimization is complete! (in 6 steps) ****
    Final optimized geometry and variables:
    Molecular point group: c1

    Geometry (in Angstrom), charge = 0, multiplicity = 1:

    H           -3.205442117042     0.928580664290     0.129221685253
    C           -2.164832936193     0.659004248833     0.129119581457
    C           -1.788011242447    -0.673399729671     0.125228325807
    C           -1.186124753364     1.641014476026     0.135294467723
    H           -2.538080997577    -1.444288482941     0.126036484946
    C           -0.448388585759    -1.029617739431     0.127872996658
    H           -1.465462424966     2.679625782141     0.138378698743
    C            0.153996990352     1.296092088121     0.129370253002
    H           -0.166938512427    -2.066198043343     0.141811665435
    C            0.524160720966    -0.040444961697     0.129015301021
    H            0.923819527237     2.045366466064     0.131166145926
    O            1.852975790053    -0.323005621630     0.159717675600
    C            2.351261954206    -1.232933080941    -0.785672550711
    H            2.051137767206    -2.251047106989    -0.564150321809
    H            3.428644865392    -1.169958774423    -0.734698253221
    H            2.021179222793    -0.974590814671    -1.786252455935

  Mulliken Charges: (a.u.)
   Center  Symbol    Alpha    Beta     Spin     Total
       1     H     0.40038  0.40038  0.00000  0.19923
       2     C     3.10821  3.10821  0.00000 -0.21643
       3     C     3.09453  3.09453  0.00000 -0.18906
       4     C     3.09493  3.09493  0.00000 -0.18985
       5     H     0.39891  0.39891  0.00000  0.20217
       6     C     3.12976  3.12976  0.00000 -0.25951
       7     H     0.39846  0.39846  0.00000  0.20309
       8     C     3.12328  3.12328  0.00000 -0.24656
       9     H     0.39679  0.39679  0.00000  0.20642
      10     C     2.79261  2.79261  0.00000  0.41477
      11     H     0.39314  0.39314  0.00000  0.21372
      12     O     4.33121  4.33121  0.00000 -0.66242
      13     C     3.08530  3.08530  0.00000 -0.17061
      14     H     0.42362  0.42362  0.00000  0.15276
      15     H     0.40855  0.40855  0.00000  0.18290
      16     H     0.42032  0.42032  0.00000  0.15936

   Total alpha = 29.00000, Total beta = 29.00000, Total charge = -0.00000
