  ==> Input File <==

--------------------------------------------------------------------------
set {
	reference rhf
	basis 6-31G*
}

set_num_threads( 1 )
memory 2 gb

molecule MOL {
0 1

O	 -0.062517	 0.586523	 -0.967921
C	 0.486307	 0.169203	 0.000779
C	 1.608116	 -0.841643	 0.000302
O	 0.176370	 0.543930	 1.234118
C	 2.990107	 -0.200498	 -0.000684
H	 1.468623	 -1.481519	 -0.865924
H	 1.469683	 -1.481289	 0.866878
H	 3.129736	 0.423364	 -0.875135
H	 3.757882	 -0.966877	 -0.001197
H	 3.130964	 0.423383	 0.873533
C	 -0.869884	 1.497274	 1.388676
C	 -1.032471	 1.756238	 2.871516
H	 -1.775627	 1.100790	 0.950481
H	 -0.607714	 2.398694	 0.851741
H	 -1.289521	 0.842822	 3.395686
H	 -1.823701	 2.480621	 3.035449
H	 -0.115275	 2.147896	 3.296502

	symmetry c1
}
set optking {
	frozen_dihedral = ("
		2 4 11 13,
		11 4 2 3
	")
}

ee = energy('scf')
oeprop('DIPOLE', 'QUADRUPOLE', 'MULLIKEN_CHARGES')
f=open( 'psi4out.xyz', 'w' )
f.write( "17  " )
f.write( str(ee) + "\n" )
f.write( MOL.save_string_xyz() )
f.close()
--------------------------------------------------------------------------

    Molecular point group: c1

    Geometry (in Angstrom), charge = 0, multiplicity = 1:

       Center              X                  Y                   Z               Mass
    ------------   -----------------  -----------------  -----------------  -----------------
           O         -0.527007901273     0.071353660750    -1.624375864784    15.994914619560
           C          0.021816098727    -0.345966339250    -0.655675864784    12.000000000000
           C          1.143625098727    -1.356812339250    -0.656152864784    12.000000000000
           O         -0.288120901273     0.028760660750     0.577663135216    15.994914619560
           C          2.525616098727    -0.715667339250    -0.657138864784    12.000000000000
           H          1.004132098727    -1.996688339250    -1.522378864784     1.007825032070
           H          1.005192098727    -1.996458339250     0.210423135216     1.007825032070
           H          2.665245098727    -0.091805339250    -1.531589864784     1.007825032070
           H          3.293391098727    -1.482046339250    -0.657651864784     1.007825032070
           H          2.666473098727    -0.091786339250     0.217078135216     1.007825032070
           C         -1.334374901273     0.982104660750     0.732221135216    12.000000000000
           C         -1.496961901273     1.241068660750     2.215061135216    12.000000000000
           H         -2.240117901273     0.585620660750     0.294026135216     1.007825032070
           H         -1.072204901273     1.883524660750     0.195286135216     1.007825032070
           H         -1.754011901273     0.327652660750     2.739231135216     1.007825032070
           H         -2.288191901273     1.965451660750     2.378994135216     1.007825032070
           H         -0.579765901273     1.632726660750     2.640047135216     1.007825032070

  Charge       = 0
  Multiplicity = 1
  Basis Set: 6-31G*
  Basis Set:

    Orbital Energies (a.u.)
    -----------------------

    Doubly Occupied:

       1A    -20.601587     2A    -20.542583     3A    -11.370259
       4A    -11.284465     5A    -11.235749     6A    -11.226814
       7A    -11.222339     8A     -1.467130     9A     -1.360700
      10A     -1.073212    11A     -1.031718    12A     -0.909969
      13A     -0.854131    14A     -0.777012    15A     -0.693066
      16A     -0.681793    17A     -0.668397    18A     -0.612776
      19A     -0.599946    20A     -0.575382    21A     -0.554178
      22A     -0.540391    23A     -0.529083    24A     -0.506673
      25A     -0.500551    26A     -0.498798    27A     -0.451169
      28A     -0.431176

  @DF-RHF Final Energy:  -344.90959056118771

   => Energetics <=

    Nuclear Repulsion Energy =            316.0738589588026457
    One-Electron Energy =               -1096.3648183245406926
    Two-Electron Energy =                 435.3813688045499930
    DFT Exchange-Correlation Energy =       0.0000000000000000
    Empirical Dispersion Energy =           0.0000000000000000
    PCM Polarization Energy =               0.0000000000000000
    EFP Energy =                            0.0000000000000000
    Total Energy =                       -344.9095905611879971

  Mulliken Charges: (a.u.)
   Center  Symbol    Alpha    Beta     Spin     Total
       1     O     4.28505  4.28505  0.00000 -0.57011
       2     C     2.61547  2.61547  0.00000  0.76907
       3     C     3.19451  3.19451  0.00000 -0.38902
       4     O     4.30910  4.30910  0.00000 -0.61820
       5     C     3.24903  3.24903  0.00000 -0.49806
       6     H     0.40068  0.40068  0.00000  0.19865
       7     H     0.40426  0.40426  0.00000  0.19147
       8     H     0.40812  0.40812  0.00000  0.18377
       9     H     0.41151  0.41151  0.00000  0.17698
      10     H     0.41063  0.41063  0.00000  0.17875
      11     C     3.00263  3.00263  0.00000 -0.00526
      12     C     3.24846  3.24846  0.00000 -0.49693
      13     H     0.40991  0.40991  0.00000  0.18018
      14     H     0.41036  0.41036  0.00000  0.17928
      15     H     0.41186  0.41186  0.00000  0.17627
      16     H     0.41627  0.41627  0.00000  0.16747
      17     H     0.41215  0.41215  0.00000  0.17570

   Total alpha = 28.00000, Total beta = 28.00000, Total charge =  0.00000
