  ==> Input File <==

--------------------------------------------------------------------------
set {
	reference rhf
	basis 6-31G*
}

set_num_threads( 1 )
memory 2 gb

molecule MOL {
0 1

O	 3.226247	 0.970860	 -0.598556
C	 2.701189	 0.057885	 -0.047330
C	 1.244996	 -0.014558	 0.343877
O	 3.347903	 -1.046386	 0.304773
C	 0.454731	 1.230665	 -0.052378
H	 0.838920	 -0.914402	 -0.106206
H	 1.206776	 -0.176708	 1.418094
C	 -0.999768	 1.217981	 0.430082
H	 0.483224	 1.345046	 -1.131834
H	 0.956204	 2.102254	 0.354165
C	 -1.883300	 0.144476	 -0.211844
H	 -1.432188	 2.193881	 0.221864
H	 -1.021599	 1.103552	 1.512874
C	 -3.347986	 0.243434	 0.219318
H	 -1.820957	 0.230964	 -1.295565
H	 -1.510135	 -0.846250	 0.037519
C	 -4.239331	 -0.827632	 -0.411915
H	 -3.733285	 1.228346	 -0.038999
H	 -3.410017	 0.167778	 1.303812
C	 -5.701096	 -0.719461	 0.020800
H	 -4.177743	 -0.754102	 -1.495632
H	 -3.858325	 -1.812853	 -0.151235
H	 -6.307192	 -1.491631	 -0.442889
H	 -6.122025	 0.242704	 -0.257141
H	 -5.799967	 -0.823599	 1.097672
C	 4.728119	 -1.109107	 -0.004993
H	 4.882018	 -1.033965	 -1.071845
H	 5.068212	 -2.067527	 0.355250
H	 5.265056	 -0.311663	 0.488280

	symmetry c1
}
set optking {
	frozen_dihedral = ("
		21 17 14 11,
		17 14 11 15,
		15 11 8 5,
		6 3 5 9,
		11 8 5 9,
		2 4 26 27,
		6 3 2 1
	")
}

ee = energy('scf')
oeprop('DIPOLE', 'QUADRUPOLE', 'MULLIKEN_CHARGES')
f=open( 'psi4out.xyz', 'w' )
f.write( "29  " )
f.write( str(ee) + "\n" )
f.write( MOL.save_string_xyz() )
f.close()
--------------------------------------------------------------------------

    Molecular point group: c1

    Geometry (in Angstrom), charge = 0, multiplicity = 1:

       Center              X                  Y                   Z               Mass
    ------------   -----------------  -----------------  -----------------  -----------------
           O          3.226308756618     0.971838135255    -0.595601480442    15.994914619560
           C          2.701250756618     0.058863135255    -0.044375480442    12.000000000000
           C          1.245057756618    -0.013579864745     0.346831519558    12.000000000000
           O          3.347964756618    -1.045407864745     0.307727519558    15.994914619560
           C          0.454792756618     1.231643135255    -0.049423480442    12.000000000000
           H          0.838981756618    -0.913423864745    -0.103251480442     1.007825032070
           H          1.206837756618    -0.175729864745     1.421048519558     1.007825032070
           C         -0.999706243382     1.218959135255     0.433036519558    12.000000000000
           H          0.483285756618     1.346024135255    -1.128879480442     1.007825032070
           H          0.956265756618     2.103232135255     0.357119519558     1.007825032070
           C         -1.883238243382     0.145454135255    -0.208889480442    12.000000000000
           H         -1.432126243382     2.194859135255     0.224818519558     1.007825032070
           H         -1.021537243382     1.104530135255     1.515828519558     1.007825032070
           C         -3.347924243382     0.244412135255     0.222272519558    12.000000000000
           H         -1.820895243382     0.231942135255    -1.292610480442     1.007825032070
           H         -1.510073243382    -0.845271864745     0.040473519558     1.007825032070
           C         -4.239269243382    -0.826653864745    -0.408960480442    12.000000000000
           H         -3.733223243382     1.229324135255    -0.036044480442     1.007825032070
           H         -3.409955243382     0.168756135255     1.306766519558     1.007825032070
           C         -5.701034243382    -0.718482864745     0.023754519558    12.000000000000
           H         -4.177681243382    -0.753123864745    -1.492677480442     1.007825032070
           H         -3.858263243382    -1.811874864745    -0.148280480442     1.007825032070
           H         -6.307130243382    -1.490652864745    -0.439934480442     1.007825032070
           H         -6.121963243382     0.243682135255    -0.254186480442     1.007825032070
           H         -5.799905243382    -0.822620864745     1.100626519558     1.007825032070
           C          4.728180756618    -1.108128864745    -0.002038480442    12.000000000000
           H          4.882079756618    -1.032986864745    -1.068890480442     1.007825032070
           H          5.068273756618    -2.066548864745     0.358204519558     1.007825032070
           H          5.265117756618    -0.310684864745     0.491234519558     1.007825032070

  Charge       = 0
  Multiplicity = 1
  Basis Set: 6-31G*
  Basis Set:

    Orbital Energies (a.u.)
    -----------------------

    Doubly Occupied:

       1A    -20.603363     2A    -20.545198     3A    -11.372005
       4A    -11.280667     5A    -11.234743     6A    -11.219093
       7A    -11.217640     8A    -11.216001     9A    -11.215856
      10A    -11.214457    11A    -11.209071    12A     -1.469066
      13A     -1.362510    14A     -1.098075    15A     -1.066812
      16A     -1.019503    17A     -0.977229    18A     -0.928566
      19A     -0.861595    20A     -0.799269    21A     -0.790498
      22A     -0.763798    23A     -0.700743    24A     -0.682310
      25A     -0.672173    26A     -0.650894    27A     -0.628794
      28A     -0.604688    29A     -0.594945    30A     -0.580917
      31A     -0.567041    32A     -0.549193    33A     -0.531871
      34A     -0.530433    35A     -0.516014    36A     -0.511851
      37A     -0.496356    38A     -0.477816    39A     -0.470191
      40A     -0.462410    41A     -0.458836    42A     -0.455776
      43A     -0.441142    44A     -0.435400

  @DF-RHF Final Energy:  -501.04411289070867

   => Energetics <=

    Nuclear Repulsion Energy =            610.1921579337661115
    One-Electron Energy =               -1891.5029742802571491
    Two-Electron Energy =                 780.2667034557830448
    DFT Exchange-Correlation Energy =       0.0000000000000000
    Empirical Dispersion Energy =           0.0000000000000000
    PCM Polarization Energy =               0.0000000000000000
    EFP Energy =                            0.0000000000000000
    Total Energy =                       -501.0441128907079928

  Mulliken Charges: (a.u.)
   Center  Symbol    Alpha    Beta     Spin     Total
       1     O     4.28596  4.28596  0.00000 -0.57191
       2     C     2.60484  2.60484  0.00000  0.79033
       3     C     3.20973  3.20973  0.00000 -0.41947
       4     O     4.30746  4.30746  0.00000 -0.61493
       5     C     3.15378  3.15378  0.00000 -0.30756
       6     H     0.39879  0.39879  0.00000  0.20242
       7     H     0.40124  0.40124  0.00000  0.19751
       8     C     3.15663  3.15663  0.00000 -0.31326
       9     H     0.41308  0.41308  0.00000  0.17383
      10     H     0.40874  0.40874  0.00000  0.18252
      11     C     3.15507  3.15507  0.00000 -0.31015
      12     H     0.41823  0.41823  0.00000  0.16355
      13     H     0.42386  0.42386  0.00000  0.15228
      14     C     3.15029  3.15029  0.00000 -0.30059
      15     H     0.42261  0.42261  0.00000  0.15478
      16     H     0.42361  0.42361  0.00000  0.15278
      17     C     3.15146  3.15146  0.00000 -0.30292
      18     H     0.42332  0.42332  0.00000  0.15336
      19     H     0.42397  0.42397  0.00000  0.15205
      20     C     3.23935  3.23935  0.00000 -0.47871
      21     H     0.42280  0.42280  0.00000  0.15440
      22     H     0.42343  0.42343  0.00000  0.15314
      23     H     0.41923  0.41923  0.00000  0.16154
      24     H     0.42154  0.42154  0.00000  0.15691
      25     H     0.42183  0.42183  0.00000  0.15634
      26     C     3.09240  3.09240  0.00000 -0.18480
      27     H     0.40910  0.40910  0.00000  0.18180
      28     H     0.40852  0.40852  0.00000  0.18296
      29     H     0.40911  0.40911  0.00000  0.18178

   Total alpha = 44.00000, Total beta = 44.00000, Total charge = -0.00000
