  ==> Input File <==

--------------------------------------------------------------------------
set {
	reference rhf
	basis cc-pvtz
}

set_num_threads( 4 )
memory 2 gb

molecule MOL {
0 1

H	 2.476562	 -1.305901	 1.067059
N	 1.497938	 -1.119059	 1.084172
C	 0.798347	 -1.966006	 0.139135
C	 1.240213	 0.284746	 0.833669
H	 0.996476	 -3.003535	 0.379200
H	 1.119557	 -1.792240	 -0.889577
C	 -0.693217	 -1.700449	 0.232909
H	 1.758528	 0.878165	 1.577009
H	 1.589341	 0.600716	 -0.151162
C	 -0.251930	 0.547355	 0.926533
H	 -1.050327	 -2.021419	 1.215783
H	 -1.212914	 -2.289454	 -0.513487
N	 -0.976577	 -0.298712	 -0.000000
H	 -0.452548	 1.583652	 0.681671
H	 -0.578639	 0.381239	 1.957192
C	 -2.391156	 -0.021003	 -0.000000
H	 -2.853954	 -0.458728	 -0.875714
H	 -2.853954	 -0.458728	 0.875714
H	 -2.614037	 1.049773	 -0.000000

	symmetry c1
}
set optking {
	frozen_dihedral = ("
		7 13 16 19
	")
}

ee = optimize('scf')
oeprop('DIPOLE', 'QUADRUPOLE', 'MULLIKEN_CHARGES')
f=open( 'psi4out.xyz', 'w' )
f.write( "19  " )
f.write( str(ee) + "\n" )
f.write( MOL.save_string_xyz() )
f.close()
--------------------------------------------------------------------------

    Molecular point group: c1
  Charge       = 0
  Multiplicity = 1
  Basis Set: CC-PVTZ
  Basis Set:
  @DF-RHF Final Energy:  -305.30763887511631
    Total Energy =                       -305.3076388751162540
    Molecular point group: c1
  Basis Set: CC-PVTZ
  Basis Set:
  Basis Set: CC-PVTZ
  Basis Set:
  @DF-RHF Final Energy:  -305.30829944085411
    Total Energy =                       -305.3082994408537161
  Basis Set: CC-PVTZ
  Basis Set:
  Basis Set: CC-PVTZ
  Basis Set:
  @DF-RHF Final Energy:  -305.30838878221715
    Total Energy =                       -305.3083887822167526
  Basis Set: CC-PVTZ
  Basis Set:
  Charge       = 0
  Multiplicity = 1
  Basis Set: CC-PVTZ
  Basis Set:

    Orbital Energies (a.u.)
    -----------------------

    Doubly Occupied:

       1A    -15.536979     2A    -15.531189     3A    -11.237275
       4A    -11.237229     5A    -11.235954     6A    -11.235776
       7A    -11.233253     8A     -1.249414     9A     -1.187828
      10A     -1.023832    11A     -0.965674    12A     -0.861585
      13A     -0.858404    14A     -0.758092    15A     -0.692850
      16A     -0.634634    17A     -0.627427    18A     -0.609512
      19A     -0.605555    20A     -0.581285    21A     -0.543815
      22A     -0.529274    23A     -0.512778    24A     -0.490400
      25A     -0.467368    26A     -0.458126    27A     -0.365980
      28A     -0.349130

  @DF-RHF Final Energy:  -305.30839019043731

   => Energetics <=

    Nuclear Repulsion Energy =            340.3557242714283575
    One-Electron Energy =               -1088.0869876173514967
    Two-Electron Energy =                 442.4228731554859451
    DFT Exchange-Correlation Energy =       0.0000000000000000
    Empirical Dispersion Energy =           0.0000000000000000
    PCM Polarization Energy =               0.0000000000000000
    EFP Energy =                            0.0000000000000000
    Total Energy =                       -305.3083901904371942
    Molecular point group: c1
  Basis Set: CC-PVTZ
  Basis Set:

  -Total Gradient:
     Atom            X                  Y                   Z
    ------   -----------------  -----------------  -----------------
       1        0.000005263639     0.000019484669     0.000013978400
       2        0.000015798552    -0.000007884503     0.000010519465
       3       -0.000008002502     0.000122452969    -0.000061423641
       4        0.000020940243     0.000018468272     0.000065514182
       5       -0.000054131830     0.000031218050    -0.000000761635
       6        0.000034882026    -0.000012951256    -0.000032601174
       7       -0.000025211224     0.000416550627     0.002258447883
       8        0.000031891598    -0.000007683865     0.000005342100
       9       -0.000021592366    -0.000012303524     0.000009292119
      10       -0.000030792138    -0.000037679829    -0.000094807462
      11       -0.000020278161    -0.000004211327     0.000019939149
      12       -0.000018407150     0.000002715218    -0.000006065041
      13       -0.000094032647    -0.000592770121    -0.002255779597
      14        0.000009910869     0.000003868900     0.000012868356
      15        0.000031960862     0.000004153014     0.000003054007
      16        0.000040447123     0.000074652503    -0.002925173386
      17        0.000019218123    -0.000006530219    -0.000005047451
      18        0.000012173555    -0.000015125234     0.000016787614
      19        0.000049961432     0.000003575658     0.002965916114

  **** Optimization is complete! (in 4 steps) ****
    Final optimized geometry and variables:
    Molecular point group: c1

    Geometry (in Angstrom), charge = 0, multiplicity = 1:

    H            2.599430918879    -0.693080502200     0.602666333821
    N            1.620287643963    -0.508814421351     0.622118298447
    C            0.919884082327    -1.354752067079    -0.322928063698
    C            1.358100094000     0.894845974762     0.376749367589
    H            1.116111397258    -2.392707967269    -0.082842403438
    H            1.240748140633    -1.181929040599    -1.351972284246
    C           -0.570940799622    -1.086665713204    -0.227128580783
    H            1.874312064255     1.487515192880     1.122319083633
    H            1.706507960053     1.215528261548    -0.606893099184
    C           -0.134947777335     1.154554958397     0.468425201700
    H           -0.926354901988    -1.398226914734     0.759074038597
    H           -1.094415491229    -1.681439618253    -0.967045389874
    N           -0.856011063365     0.313835311242    -0.467931295503
    H           -0.334124563208     2.192392945007     0.230151291007
    H           -0.462778714948     0.981069218268     1.497568682108
    C           -2.275048415476     0.578148432223    -0.460791370270
    H           -2.745100675022     0.142063362759    -1.333653922825
    H           -2.770888652566     0.175926047637     0.427259594551
    H           -2.452635240751     1.645760169404    -0.466314817340

  Mulliken Charges: (a.u.)
   Center  Symbol    Alpha    Beta     Spin     Total
       1     H     0.43997  0.43997  0.00000  0.12006
       2     N     3.64290  3.64290  0.00000 -0.28580
       3     C     3.04052  3.04052  0.00000 -0.08104
       4     C     3.04132  3.04132  0.00000 -0.08264
       5     H     0.45244  0.45244  0.00000  0.09511
       6     H     0.46524  0.46524  0.00000  0.06952
       7     C     3.03560  3.03560  0.00000 -0.07119
       8     H     0.45247  0.45247  0.00000  0.09507
       9     H     0.46536  0.46536  0.00000  0.06927
      10     C     3.03370  3.03370  0.00000 -0.06741
      11     H     0.46739  0.46739  0.00000  0.06522
      12     H     0.45423  0.45423  0.00000  0.09154
      13     N     3.61478  3.61478  0.00000 -0.22955
      14     H     0.45392  0.45392  0.00000  0.09216
      15     H     0.46909  0.46909  0.00000  0.06181
      16     C     3.09665  3.09665  0.00000 -0.19330
      17     H     0.45068  0.45068  0.00000  0.09864
      18     H     0.47026  0.47026  0.00000  0.05948
      19     H     0.45347  0.45347  0.00000  0.09306

   Total alpha = 28.00000, Total beta = 28.00000, Total charge = -0.00000
