  ==> Input File <==

--------------------------------------------------------------------------
set {
	reference rhf
	basis 6-31G*
}

set_num_threads( 1 )
memory 2 gb

molecule MOL {
0 1

O	 -1.276010	 1.052711	 -0.768302
C	 -1.204840	 0.067374	 -0.106123
C	 -2.388195	 -0.672128	 0.458071
O	 -0.067104	 -0.527208	 0.221609
H	 -2.388023	 -1.694060	 0.097175
H	 -3.300579	 -0.174919	 0.164318
H	 -2.315377	 -0.706351	 1.539059
C	 1.108273	 -0.258846	 -0.555822
C	 2.005187	 -1.472513	 -0.388061
C	 1.756484	 1.031335	 -0.078436
H	 0.807072	 -0.156260	 -1.587938
H	 1.500522	 -2.371026	 -0.724566
H	 2.912372	 -1.350230	 -0.970636
H	 2.280919	 -1.604626	 0.652695
H	 2.659451	 1.228076	 -0.647610
H	 1.084867	 1.870103	 -0.210256
H	 2.023443	 0.955845	 0.970870

	symmetry c1
}
set optking {
	frozen_dihedral = ("
		11 8 4 2
	")
}

ee = energy('scf')
oeprop('DIPOLE', 'QUADRUPOLE', 'MULLIKEN_CHARGES')
f=open( 'psi4out.xyz', 'w' )
f.write( "17  " )
f.write( str(ee) + "\n" )
f.write( MOL.save_string_xyz() )
f.close()
--------------------------------------------------------------------------

    Molecular point group: c1

    Geometry (in Angstrom), charge = 0, multiplicity = 1:

       Center              X                  Y                   Z               Mass
    ------------   -----------------  -----------------  -----------------  -----------------
           O         -1.267640854917     1.163291462965    -0.596737504880    15.994914619560
           C         -1.196470854917     0.177954462965     0.065441495120    12.000000000000
           C         -2.379825854917    -0.561547537035     0.629635495120    12.000000000000
           O         -0.058734854917    -0.416627537035     0.393173495120    15.994914619560
           H         -2.379653854917    -1.583479537035     0.268739495120     1.007825032070
           H         -3.292209854917    -0.064338537035     0.335882495120     1.007825032070
           H         -2.307007854917    -0.595770537035     1.710623495120     1.007825032070
           C          1.116642145083    -0.148265537035    -0.384257504880    12.000000000000
           C          2.013556145083    -1.361932537035    -0.216496504880    12.000000000000
           C          1.764853145083     1.141915462965     0.093128495120    12.000000000000
           H          0.815441145083    -0.045679537035    -1.416373504880     1.007825032070
           H          1.508891145083    -2.260445537035    -0.553001504880     1.007825032070
           H          2.920741145083    -1.239649537035    -0.799071504880     1.007825032070
           H          2.289288145083    -1.494045537035     0.824259495120     1.007825032070
           H          2.667820145083     1.338656462965    -0.476045504880     1.007825032070
           H          1.093236145083     1.980683462965    -0.038691504880     1.007825032070
           H          2.031812145083     1.066425462965     1.142434495120     1.007825032070

  Charge       = 0
  Multiplicity = 1
  Basis Set: 6-31G*
  Basis Set:

    Orbital Energies (a.u.)
    -----------------------

    Doubly Occupied:

       1A    -20.596985     2A    -20.544412     3A    -11.375067
       4A    -11.292259     5A    -11.232490     6A    -11.220338
       7A    -11.211314     8A     -1.465146     9A     -1.362099
      10A     -1.078143    11A     -1.004903    12A     -0.946343
      13A     -0.848371    14A     -0.767033    15A     -0.691495
      16A     -0.673299    17A     -0.655110    18A     -0.610454
      19A     -0.585948    20A     -0.578954    21A     -0.561144
      22A     -0.550056    23A     -0.542660    24A     -0.515242
      25A     -0.498637    26A     -0.486111    27A     -0.445457
      28A     -0.435360

  @DF-RHF Final Energy:  -344.91215067729490

   => Energetics <=

    Nuclear Repulsion Energy =            323.2827474671754544
    One-Electron Energy =               -1110.8402859480929692
    Two-Electron Energy =                 442.6453878036210767
    DFT Exchange-Correlation Energy =       0.0000000000000000
    Empirical Dispersion Energy =           0.0000000000000000
    PCM Polarization Energy =               0.0000000000000000
    EFP Energy =                            0.0000000000000000
    Total Energy =                       -344.9121506772964381

  Mulliken Charges: (a.u.)
   Center  Symbol    Alpha    Beta     Spin     Total
       1     O     4.28304  4.28304  0.00000 -0.56608
       2     C     2.61901  2.61901  0.00000  0.76199
       3     C     3.28093  3.28093  0.00000 -0.56186
       4     O     4.31335  4.31335  0.00000 -0.62669
       5     H     0.40201  0.40201  0.00000  0.19598
       6     H     0.39767  0.39767  0.00000  0.20466
       7     H     0.40015  0.40015  0.00000  0.19971
       8     C     2.92679  2.92679  0.00000  0.14643
       9     C     3.24114  3.24114  0.00000 -0.48227
      10     C     3.25079  3.25079  0.00000 -0.50159
      11     H     0.40766  0.40766  0.00000  0.18467
      12     H     0.41323  0.41323  0.00000  0.17354
      13     H     0.41729  0.41729  0.00000  0.16542
      14     H     0.41291  0.41291  0.00000  0.17418
      15     H     0.42081  0.42081  0.00000  0.15838
      16     H     0.39555  0.39555  0.00000  0.20891
      17     H     0.41768  0.41768  0.00000  0.16465

   Total alpha = 28.00000, Total beta = 28.00000, Total charge =  0.00000
