                              Psi4 1.0.54 Driver

  ==> Input File <==

--------------------------------------------------------------------------
set {
	reference rhf
	basis cc-pvtz
}

set_num_threads( 4 )
memory 2 gb

molecule MOL {
0 1

O	 -1.500356	 -0.489571	 -0.788207
C	 -1.081510	 0.147522	 0.122720
C	 0.327029	 -0.064006	 0.641890
C	 -1.929680	 1.183216	 0.821443
C	 1.349460	 -0.017068	 -0.500215
H	 0.399029	 -1.014606	 1.159950
H	 0.538021	 0.726928	 1.350471
C	 2.779782	 -0.209014	 -0.009215
H	 1.115007	 -0.782959	 -1.233891
H	 1.259071	 0.936707	 -1.006644
H	 3.481860	 -0.160270	 -0.833072
H	 2.903471	 -1.171535	 0.475559
H	 3.052569	 0.559584	 0.705428
H	 -1.908916	 1.033773	 1.895218
H	 -2.945689	 1.136601	 0.460821
H	 -1.520888	 2.169658	 0.627343

	symmetry c1
}
set optking {
	frozen_dihedral = ("
		4 2 3 5
	")
}

ee,wfn = optimize('scf', return_wfn=True)
oeprop( wfn, 'DIPOLE', 'QUADRUPOLE', 'MULLIKEN_CHARGES')
f=open( 'psi4out.xyz', 'w' )
f.write( "16  " )
f.write( str(ee) + "\n" )
f.write( MOL.save_string_xyz() )
f.close()
--------------------------------------------------------------------------

    Molecular point group: c1
  Charge       = 0
  Multiplicity = 1
  Basis Set: CC-PVTZ
  Basis Set:
  @DF-RHF Final Energy:  -270.12864955554886
    Total Energy =                       -270.1286495555490887
    Molecular point group: c1
  Basis Set: CC-PVTZ
  Basis Set:
  Basis Set: CC-PVTZ
  Basis Set:
  @DF-RHF Final Energy:  -270.12818225281683
    Total Energy =                       -270.1281822528166003
  Basis Set: CC-PVTZ
  Basis Set:
  Basis Set: CC-PVTZ
  Basis Set:
  @DF-RHF Final Energy:  -270.12896311959423
    Total Energy =                       -270.1289631195940615
  Basis Set: CC-PVTZ
  Basis Set:
  Basis Set: CC-PVTZ
  Basis Set:
  @DF-RHF Final Energy:  -270.12950502152978
    Total Energy =                       -270.1295050215298374
  Basis Set: CC-PVTZ
  Basis Set:
  Basis Set: CC-PVTZ
  Basis Set:
  @DF-RHF Final Energy:  -270.12952240475948
    Total Energy =                       -270.1295224047595411
  Basis Set: CC-PVTZ
  Basis Set:
  Basis Set: CC-PVTZ
  Basis Set:
  @DF-RHF Final Energy:  -270.12951854088533
    Total Energy =                       -270.1295185408853285
  Basis Set: CC-PVTZ
  Basis Set:
  Basis Set: CC-PVTZ
  Basis Set:
  @DF-RHF Final Energy:  -270.12952907317390
    Total Energy =                       -270.1295290731738987
  Basis Set: CC-PVTZ
  Basis Set:
  Charge       = 0
  Multiplicity = 1
  Basis Set: CC-PVTZ
  Basis Set:

    Orbital Energies (a.u.)
    -----------------------

    Doubly Occupied:

       1A    -20.537667     2A    -11.320889     3A    -11.229376
       4A    -11.227845     5A    -11.223916     6A    -11.214049
       7A     -1.398401     8A     -1.079622     9A     -1.016125
      10A     -0.948800    11A     -0.826282    12A     -0.734843
      13A     -0.659635    14A     -0.650611    15A     -0.619387
      16A     -0.603992    17A     -0.572374    18A     -0.561433
      19A     -0.544933    20A     -0.510608    21A     -0.498458
      22A     -0.482376    23A     -0.474501    24A     -0.401174

  @DF-RHF Final Energy:  -270.12952949388898

   => Energetics <=

    Nuclear Repulsion Energy =            237.2571397996686926
    One-Electron Energy =                -836.0987409320814550
    Two-Electron Energy =                 328.7120716385239803
    DFT Exchange-Correlation Energy =       0.0000000000000000
    Empirical Dispersion Energy =           0.0000000000000000
    PCM Polarization Energy =               0.0000000000000000
    EFP Energy =                            0.0000000000000000
    Total Energy =                       -270.1295294938887537
    Molecular point group: c1
  Basis Set: CC-PVTZ
  Basis Set:

  -Total Gradient:
     Atom            X                  Y                   Z
    ------   -----------------  -----------------  -----------------
       1        0.000031532860     0.000025392911     0.000023645205
       2       -0.000309794406    -0.000409033736     0.000585232188
       3        0.000032651148    -0.000629068460    -0.000267140104
       4        0.000195019647     0.000394596713    -0.000385383700
       5        0.000027780181     0.000596753737     0.000066148614
       6       -0.000010641667     0.000003729251     0.000010394059
       7       -0.000000417093     0.000001789070    -0.000000579361
       8        0.000010448984    -0.000017013684    -0.000008884933
       9        0.000017445850     0.000009772722    -0.000002573612
      10        0.000000412646     0.000001757699    -0.000003981755
      11       -0.000001296598    -0.000001040012     0.000001535952
      12       -0.000000552899     0.000003500879     0.000002320822
      13       -0.000008795947     0.000000676932    -0.000004218564
      14       -0.000000863238     0.000018626303    -0.000017049598
      15        0.000016173631     0.000004439742     0.000006566788
      16        0.000000896897    -0.000004880068    -0.000006032001

  **** Optimization is complete! (in 8 steps) ****
    Final optimized geometry and variables:
    Molecular point group: c1

    Geometry (in Angstrom), charge = 0, multiplicity = 1:

    O           -1.516330254803    -0.606646028225    -0.792928131840
    C           -1.084577076189     0.072799206161     0.080337343456
    C            0.337534362623    -0.107046814515     0.583710256905
    C           -1.919149200818     1.145514836037     0.735401949752
    C            1.363657420095    -0.129693666697    -0.549190450602
    H            0.360952036044    -1.051986075973     1.119783285116
    H            0.582736263168     0.669141920563     1.300162102071
    C            2.781344970211    -0.378854198304    -0.047503745227
    H            1.080099838848    -0.894078735134    -1.260319507963
    H            1.328793173016     0.816232064975    -1.081895567061
    H            3.487476083164    -0.383383051144    -0.869312391955
    H            2.854570521448    -1.336399889519     0.457034445155
    H            3.094359104968     0.388531404210     0.652840103036
    H           -1.958506931022     0.984673484189     1.807617395512
    H           -2.917300714812     1.144980727801     0.325369619954
    H           -1.455860849803     2.113724654329     0.574794903838

  Mulliken Charges: (a.u.)
   Center  Symbol    Alpha    Beta     Spin     Total
       1     O     4.17522  4.17522  0.00000 -0.35043
       2     C     2.85838  2.85838  0.00000  0.28325
       3     C     3.10227  3.10227  0.00000 -0.20455
       4     C     3.15306  3.15306  0.00000 -0.30611
       5     C     3.08479  3.08479  0.00000 -0.16958
       6     H     0.44378  0.44378  0.00000  0.11244
       7     H     0.44792  0.44792  0.00000  0.10417
       8     C     3.14947  3.14947  0.00000 -0.29894
       9     H     0.43878  0.43878  0.00000  0.12244
      10     H     0.45385  0.45385  0.00000  0.09229
      11     H     0.44617  0.44617  0.00000  0.10766
      12     H     0.45379  0.45379  0.00000  0.09242
      13     H     0.45625  0.45625  0.00000  0.08750
      14     H     0.44957  0.44957  0.00000  0.10085
      15     H     0.43643  0.43643  0.00000  0.12714
      16     H     0.45027  0.45027  0.00000  0.09947

   Total alpha = 24.00000, Total beta = 24.00000, Total charge = -0.00000

*** Psi4 exiting successfully. Buy a developer a beer!
