  ==> Input File <==

--------------------------------------------------------------------------
set {
	reference rhf
	basis 6-31G*
}

set_num_threads( 4 )
memory 2 gb

molecule MOL {
0 1

H	 -2.899109	 -0.123919	 -0.671385
O	 -2.347518	 -0.290803	 0.079804
C	 -1.184022	 0.487508	 -0.006784
C	 0.062599	 -0.378592	 0.031606
H	 -1.176523	 1.099369	 -0.904519
H	 -1.187323	 1.153111	 0.844927
O	 1.171513	 0.459272	 -0.058250
H	 0.050699	 -1.089204	 -0.797170
H	 0.078739	 -0.954914	 0.954740
C	 2.397842	 -0.198080	 -0.002151
H	 2.508049	 -0.905315	 -0.822092
H	 3.173794	 0.550865	 -0.078850
H	 2.517602	 -0.735921	 0.936026

	symmetry c1
}
set optking {
	frozen_dihedral = ("
		1 2 3 5
	")
}

ee = optimize('scf')
oeprop('DIPOLE', 'QUADRUPOLE', 'MULLIKEN_CHARGES')
f=open( 'psi4out.xyz', 'w' )
f.write( "13  " )
f.write( str(ee) + "\n" )
f.write( MOL.save_string_xyz() )
f.close()
--------------------------------------------------------------------------

    Molecular point group: c1
  Charge       = 0
  Multiplicity = 1
  Basis Set: 6-31G*
  Basis Set:
  @DF-RHF Final Energy:  -267.94895703102179
    Total Energy =                       -267.9489570310216777
    Molecular point group: c1
  Basis Set: 6-31G*
  Basis Set:
  Basis Set: 6-31G*
  Basis Set:
  @DF-RHF Final Energy:  -267.94939043254550
    Total Energy =                       -267.9493904325454992
  Basis Set: 6-31G*
  Basis Set:
  Basis Set: 6-31G*
  Basis Set:
  @DF-RHF Final Energy:  -267.94954380736931
    Total Energy =                       -267.9495438073694231
  Basis Set: 6-31G*
  Basis Set:
  Basis Set: 6-31G*
  Basis Set:
  @DF-RHF Final Energy:  -267.94954868699966
    Total Energy =                       -267.9495486869998331
  Basis Set: 6-31G*
  Basis Set:
  Charge       = 0
  Multiplicity = 1
  Basis Set: 6-31G*
  Basis Set:

    Orbital Energies (a.u.)
    -----------------------

    Doubly Occupied:

       1A    -20.559044     2A    -20.558094     3A    -11.269203
       4A    -11.267639     5A    -11.266122     6A     -1.385330
       7A     -1.362901     8A     -1.017634     9A     -0.911509
      10A     -0.833985    11A     -0.712348    12A     -0.676878
      13A     -0.646763    14A     -0.640357    15A     -0.604166
      16A     -0.551755    17A     -0.545935    18A     -0.490653
      19A     -0.477708    20A     -0.437352    21A     -0.418563

  @DF-RHF Final Energy:  -267.94954924801959

   => Energetics <=

    Nuclear Repulsion Energy =            190.2132675956582091
    One-Electron Energy =                -743.0577572365252763
    Two-Electron Energy =                 284.8949403928473316
    DFT Exchange-Correlation Energy =       0.0000000000000000
    Empirical Dispersion Energy =           0.0000000000000000
    PCM Polarization Energy =               0.0000000000000000
    EFP Energy =                            0.0000000000000000
    Total Energy =                       -267.9495492480197640
    Molecular point group: c1
  Basis Set: 6-31G*
  Basis Set:

  -Total Gradient:
     Atom            X                  Y                   Z
    ------   -----------------  -----------------  -----------------
       1       -0.000029941363     0.000034368691     0.000021029428
       2        0.000073148858    -0.000011848024    -0.000027565577
       3       -0.000054136007    -0.000001721664     0.000049029475
       4        0.000003199616    -0.000017331796    -0.000046020806
       5        0.000037349626    -0.000038068902    -0.000019647930
       6       -0.000013307179    -0.000004449482     0.000003460412
       7        0.000018870275     0.000024226295     0.000013487456
       8       -0.000015295244    -0.000014117833    -0.000005872579
       9       -0.000002536279     0.000029605022     0.000000300986
      10       -0.000010636295    -0.000003019108     0.000017191119
      11       -0.000008722455     0.000003341271    -0.000001930616
      12       -0.000003911877     0.000002664458    -0.000001916190
      13        0.000005918323    -0.000003648929    -0.000001545177

  **** Optimization is complete! (in 5 steps) ****
    Final optimized geometry and variables:
    Molecular point group: c1

    Geometry (in Angstrom), charge = 0, multiplicity = 1:

    H           -2.881825480070    -0.198855527446    -0.656498759739
    O           -2.321560926600    -0.315521579695     0.094742766402
    C           -1.179613692159     0.497868460394    -0.015842903175
    C            0.057608833963    -0.377476524977     0.013080613436
    H           -1.187754911334     1.079280557217    -0.932165501550
    H           -1.149984893432     1.193457248541     0.814657695028
    O            1.173995110242     0.455597753247    -0.048851496361
    H            0.040734174961    -1.069180223318    -0.828174723906
    H            0.062156416109    -0.969722076045     0.926166654634
    C            2.394021311704    -0.213673677308    -0.003575092403
    H            2.502077865141    -0.900603365804    -0.840821966099
    H            3.177305026535     0.529889295765    -0.057062842641
    H            2.504312080927    -0.776686713943     0.921029809716

  Mulliken Charges: (a.u.)
   Center  Symbol    Alpha    Beta     Spin     Total
       1     H     0.27744  0.27744  0.00000  0.44511
       2     O     4.37520  4.37520  0.00000 -0.75041
       3     C     3.00582  3.00582  0.00000 -0.01164
       4     C     2.99128  2.99128  0.00000  0.01745
       5     H     0.42359  0.42359  0.00000  0.15281
       6     H     0.41497  0.41497  0.00000  0.17006
       7     O     4.30925  4.30925  0.00000 -0.61850
       8     H     0.43056  0.43056  0.00000  0.13887
       9     H     0.42355  0.42355  0.00000  0.15291
      10     C     3.07942  3.07942  0.00000 -0.15884
      11     H     0.42922  0.42922  0.00000  0.14156
      12     H     0.41165  0.41165  0.00000  0.17669
      13     H     0.42803  0.42803  0.00000  0.14393

   Total alpha = 21.00000, Total beta = 21.00000, Total charge = -0.00000
