  ==> Input File <==

--------------------------------------------------------------------------
set {
	reference rhf
	basis 6-31G*
}

set_num_threads( 1 )
memory 2 gb

molecule MOL {
0 1

O	 0.485553	 0.730980	 2.076034
C	 -0.368934	 0.948910	 1.279396
C	 -1.287839	 2.140284	 1.303608
O	 -0.632575	 0.154573	 0.251549
H	 -2.317417	 1.807438	 1.367871
H	 -1.047860	 2.766099	 2.150131
H	 -1.181717	 2.703240	 0.383512
C	 0.160891	 -1.019931	 0.106212
C	 1.589627	 -0.672828	 0.480843
H	 0.089836	 -1.367806	 -0.916050
H	 -0.238459	 -1.792301	 0.749618
C	 2.246377	 0.346236	 -0.452210
H	 2.163194	 -1.597435	 0.473358
H	 1.604769	 -0.303424	 1.502885
C	 3.691736	 0.652107	 -0.061850
H	 2.219579	 -0.032311	 -1.472055
H	 1.666466	 1.263317	 -0.447249
H	 4.134505	 1.377213	 -0.737283
H	 4.305508	 -0.243868	 -0.089969
H	 3.748266	 1.059562	 0.943567

	symmetry c1
}
set optking {
	frozen_dihedral = ("
		16 12 9 8,
		12 9 8 10,
		1 2 4 8
	")
}

ee = energy('scf')
oeprop('DIPOLE', 'QUADRUPOLE', 'MULLIKEN_CHARGES')
f=open( 'psi4out.xyz', 'w' )
f.write( "20  " )
f.write( str(ee) + "\n" )
f.write( MOL.save_string_xyz() )
f.close()
--------------------------------------------------------------------------

    Molecular point group: c1

    Geometry (in Angstrom), charge = 0, multiplicity = 1:

       Center              X                  Y                   Z               Mass
    ------------   -----------------  -----------------  -----------------  -----------------
           O         -0.249225983391     0.312441279676     1.446829558981    15.994914619560
           C         -1.103712983391     0.530371279676     0.650191558981    12.000000000000
           C         -2.022617983391     1.721745279676     0.674403558981    12.000000000000
           O         -1.367353983391    -0.263965720324    -0.377655441019    15.994914619560
           H         -3.052195983391     1.388899279676     0.738666558981     1.007825032070
           H         -1.782638983391     2.347560279676     1.520926558981     1.007825032070
           H         -1.916495983391     2.284701279676    -0.245692441019     1.007825032070
           C         -0.573887983391    -1.438469720324    -0.522992441019    12.000000000000
           C          0.854848016609    -1.091366720324    -0.148361441019    12.000000000000
           H         -0.644942983391    -1.786344720324    -1.545254441019     1.007825032070
           H         -0.973237983391    -2.210839720324     0.120413558981     1.007825032070
           C          1.511598016609    -0.072302720324    -1.081414441019    12.000000000000
           H          1.428415016609    -2.015973720324    -0.155846441019     1.007825032070
           H          0.869990016609    -0.721962720324     0.873680558981     1.007825032070
           C          2.956957016609     0.233568279676    -0.691054441019    12.000000000000
           H          1.484800016609    -0.450849720324    -2.101259441019     1.007825032070
           H          0.931687016609     0.844778279676    -1.076453441019     1.007825032070
           H          3.399726016609     0.958674279676    -1.366487441019     1.007825032070
           H          3.570729016609    -0.662406720324    -0.719173441019     1.007825032070
           H          3.013487016609     0.641023279676     0.314362558981     1.007825032070

  Charge       = 0
  Multiplicity = 1
  Basis Set: 6-31G*
  Basis Set:

    Orbital Energies (a.u.)
    -----------------------

    Doubly Occupied:

       1A    -20.604089     2A    -20.545236     3A    -11.382927
       4A    -11.281903     5A    -11.236690     6A    -11.211041
       7A    -11.203480     8A    -11.189510     9A     -1.476788
      10A     -1.371319    11A     -1.076311    12A     -1.027272
      13A     -0.973584    14A     -0.886249    15A     -0.808702
      16A     -0.763364    17A     -0.701090    18A     -0.689107
      19A     -0.670798    20A     -0.624566    21A     -0.598479
      22A     -0.590649    23A     -0.567612    24A     -0.562889
      25A     -0.544336    26A     -0.522199    27A     -0.510947
      28A     -0.485442    29A     -0.476973    30A     -0.462289
      31A     -0.439834    32A     -0.396485

  @DF-RHF Final Energy:  -383.90557752618759

   => Energetics <=

    Nuclear Repulsion Energy =            407.4659527920072151
    One-Electron Energy =               -1330.9787328429144964
    Two-Electron Energy =                 539.6072025247189003
    DFT Exchange-Correlation Energy =       0.0000000000000000
    Empirical Dispersion Energy =           0.0000000000000000
    PCM Polarization Energy =               0.0000000000000000
    EFP Energy =                            0.0000000000000000
    Total Energy =                       -383.9055775261883809

  Mulliken Charges: (a.u.)
   Center  Symbol    Alpha    Beta     Spin     Total
       1     O     4.29226  4.29226  0.00000 -0.58452
       2     C     2.60860  2.60860  0.00000  0.78281
       3     C     3.28203  3.28203  0.00000 -0.56406
       4     O     4.31043  4.31043  0.00000 -0.62085
       5     H     0.39868  0.39868  0.00000  0.20265
       6     H     0.39678  0.39678  0.00000  0.20645
       7     H     0.39932  0.39932  0.00000  0.20136
       8     C     3.00178  3.00178  0.00000 -0.00357
       9     C     3.20926  3.20926  0.00000 -0.41853
      10     H     0.40845  0.40845  0.00000  0.18311
      11     H     0.41180  0.41180  0.00000  0.17641
      12     C     3.14788  3.14788  0.00000 -0.29575
      13     H     0.42796  0.42796  0.00000  0.14408
      14     H     0.35298  0.35298  0.00000  0.29403
      15     C     3.23883  3.23883  0.00000 -0.47765
      16     H     0.42690  0.42690  0.00000  0.14620
      17     H     0.42548  0.42548  0.00000  0.14905
      18     H     0.42126  0.42126  0.00000  0.15749
      19     H     0.42230  0.42230  0.00000  0.15540
      20     H     0.41704  0.41704  0.00000  0.16592

   Total alpha = 32.00000, Total beta = 32.00000, Total charge =  0.00000
