                              Psi4 1.0.54 Driver

  ==> Input File <==

--------------------------------------------------------------------------
set {
	reference rhf
	basis cc-pvtz
}

set_num_threads( 4 )
memory 2 gb

molecule MOL {
0 1

O	 3.219313	 0.959291	 -0.614106
C	 2.698710	 0.058177	 -0.050237
C	 1.246364	 -0.005813	 0.348416
O	 3.344101	 -1.038700	 0.312317
C	 0.453207	 1.232821	 -0.049003
H	 0.839270	 -0.907818	 -0.092281
H	 1.216683	 -0.160521	 1.422434
C	 -0.998367	 1.217982	 0.432195
H	 0.481498	 1.345443	 -1.127236
H	 0.951413	 2.105557	 0.354893
C	 -1.882951	 0.151251	 -0.211235
H	 -1.429490	 2.193659	 0.228843
H	 -1.019755	 1.099323	 1.513279
C	 -3.342450	 0.243269	 0.226009
H	 -1.826223	 0.246578	 -1.293162
H	 -1.508033	 -0.839650	 0.027695
C	 -3.867068	 1.674616	 0.295265
H	 -3.455546	 -0.226549	 1.200083
H	 -3.960023	 -0.330860	 -0.460901
C	 -5.325090	 1.758407	 0.734498
H	 -3.251090	 2.249485	 0.981426
H	 -3.757319	 2.144725	 -0.678290
H	 -5.665624	 2.786777	 0.772926
H	 -5.461935	 1.327865	 1.720914
H	 -5.971959	 1.221429	 0.048623
C	 4.720529	 -1.114346	 0.001449
H	 4.874321	 -1.055557	 -1.065852
H	 5.057824	 -2.067950	 0.373977
H	 5.264321	 -0.313596	 0.480350

	symmetry c1
}
set optking {
	frozen_dihedral = ("
		17 14 11 15
	")
}

ee,wfn = optimize('scf', return_wfn=True)
oeprop( wfn, 'DIPOLE', 'QUADRUPOLE', 'MULLIKEN_CHARGES')
f=open( 'psi4out.xyz', 'w' )
f.write( "29  " )
f.write( str(ee) + "\n" )
f.write( MOL.save_string_xyz() )
f.close()
--------------------------------------------------------------------------

    Molecular point group: c1
  Charge       = 0
  Multiplicity = 1
  Basis Set: CC-PVTZ
  Basis Set:
  @DF-RHF Final Energy:  -501.21846571061440
    Total Energy =                       -501.2184657106148507
    Molecular point group: c1
  Basis Set: CC-PVTZ
  Basis Set:
  Basis Set: CC-PVTZ
  Basis Set:
  @DF-RHF Final Energy:  -501.11161535262568
    Total Energy =                       -501.1116153526261314
  Basis Set: CC-PVTZ
  Basis Set:
  Basis Set: CC-PVTZ
  Basis Set:
  @DF-RHF Final Energy:  -501.20300763609634
    Total Energy =                       -501.2030076360956627
  Basis Set: CC-PVTZ
  Basis Set:
  Basis Set: CC-PVTZ
  Basis Set:
  @DF-RHF Final Energy:  -501.22019806074115
    Total Energy =                       -501.2201980607404721
  Basis Set: CC-PVTZ
  Basis Set:
  @DF-RHF Final Energy:  -501.22095241599550
    Total Energy =                       -501.2209524159951570
  @DF-RHF Final Energy:  -501.21996527409010
    Total Energy =                       -501.2199652740898728
  Basis Set: CC-PVTZ
  Basis Set:
  @DF-RHF Final Energy:  -501.22110014215752
    Total Energy =                       -501.2211001421574110
  Basis Set: CC-PVTZ
  Basis Set:
  Basis Set: CC-PVTZ
  Basis Set:
  @DF-RHF Final Energy:  -501.22108730557613
    Total Energy =                       -501.2210873055760203
  Basis Set: CC-PVTZ
  Basis Set:
  Basis Set: CC-PVTZ
  Basis Set:
  @DF-RHF Final Energy:  -501.22111196731089
    Total Energy =                       -501.2211119673113444
  Basis Set: CC-PVTZ
  Basis Set:
  Charge       = 0
  Multiplicity = 1
  Basis Set: CC-PVTZ
  Basis Set:

    Orbital Energies (a.u.)
    -----------------------

    Doubly Occupied:

       1A    -20.595984     2A    -20.533843     3A    -11.364284
       4A    -11.278248     5A    -11.232925     6A    -11.217176
       7A    -11.215446     8A    -11.214044     9A    -11.213285
      10A    -11.212697    11A    -11.206804    12A     -1.471894
      13A     -1.365475    14A     -1.098957    15A     -1.066687
      16A     -1.018725    17A     -0.977769    18A     -0.930049
      19A     -0.862864    20A     -0.818434    21A     -0.775284
      22A     -0.762040    23A     -0.703181    24A     -0.685250
      25A     -0.676062    26A     -0.641442    27A     -0.629921
      28A     -0.612720    29A     -0.594571    30A     -0.582044
      31A     -0.567844    32A     -0.555879    33A     -0.541804
      34A     -0.526202    35A     -0.523653    36A     -0.498633
      37A     -0.494432    38A     -0.487323    39A     -0.477018
      40A     -0.460701    41A     -0.453502    42A     -0.450179
      43A     -0.443164    44A     -0.440162

  @DF-RHF Final Energy:  -501.22111280805927

   => Energetics <=

    Nuclear Repulsion Energy =            614.9479986631559996
    One-Electron Energy =               -1901.3810178906949204
    Two-Electron Energy =                 785.2119064194802149
    DFT Exchange-Correlation Energy =       0.0000000000000000
    Empirical Dispersion Energy =           0.0000000000000000
    PCM Polarization Energy =               0.0000000000000000
    EFP Energy =                            0.0000000000000000
    Total Energy =                       -501.2211128080585922
    Molecular point group: c1
  Basis Set: CC-PVTZ
  Basis Set:

  -Total Gradient:
     Atom            X                  Y                   Z
    ------   -----------------  -----------------  -----------------
       1        0.000024807157    -0.000055918153     0.000030159199
       2       -0.000028220953     0.000038839778    -0.000000696045
       3        0.000011389008     0.000002989857    -0.000049866392
       4        0.000019410652     0.000022983401    -0.000018681144
       5       -0.000022779349    -0.000028837422    -0.000008039930
       6        0.000002945322     0.000012653530     0.000027870626
       7        0.000000092323     0.000008119805     0.000015900846
       8       -0.000006873725     0.000004159841     0.000008233334
       9        0.000010202478     0.000003278062    -0.000013436349
      10       -0.000008399358    -0.000006090938    -0.000003471070
      11       -0.000909677027     0.005005016369     0.003409396478
      12        0.000005348113     0.000003345626     0.000001890305
      13       -0.000013383490    -0.000008498971     0.000001226276
      14       -0.001228851974    -0.000504141605    -0.005058522969
      15        0.001089995078    -0.004161778259    -0.001624488142
      16       -0.000024081489    -0.000001730926     0.000006257610
      17        0.001061646998    -0.000328889288     0.003292605085
      18        0.000012256177    -0.000009565519     0.000007557865
      19        0.000009484951    -0.000011561783    -0.000013508464
      20        0.000002143889     0.000002104775    -0.000015552099
      21        0.000010602726     0.000017223006     0.000028153005
      22        0.000010499829     0.000028739603    -0.000018989205
      23       -0.000018097463     0.000022663499     0.000010441612
      24       -0.000003126274    -0.000016858293     0.000020216783
      25       -0.000025167403    -0.000032343381    -0.000035742875
      26       -0.000018165059    -0.000018351331    -0.000000140292
      27        0.000009039207     0.000004779173     0.000001127505
      28        0.000019241866    -0.000005093298    -0.000002153803
      29        0.000007717812     0.000012762849     0.000002252248

  **** Optimization is complete! (in 10 steps) ****
    Final optimized geometry and variables:
    Molecular point group: c1

    Geometry (in Angstrom), charge = 0, multiplicity = 1:

    O            2.974419600498     1.428759749446    -0.439515394085
    C            2.668971151084     0.336721923354    -0.100270672840
    C            1.266041122037    -0.131884878775     0.191057578874
    O            3.545908301627    -0.639241203263     0.072059835885
    C            0.212573890022     0.951596415472    -0.003949447278
    H            1.086491615497    -0.994909265376    -0.438172518599
    H            1.259700840532    -0.502074255303     1.211516090465
    C           -1.205345399382     0.518640043790     0.375711789189
    H            0.229851820075     1.287697539990    -1.034963797490
    H            0.490694296611     1.810943259396     0.593584932256
    C           -1.820143364702    -0.521784557739    -0.557985975571
    H           -1.828461082276     1.404956052211     0.386131925016
    H           -1.205541684635     0.136372232239     1.394749521262
    C           -3.209953250967    -1.038020978780    -0.162121175030
    H           -1.852000649688    -0.137378532232    -1.574905524741
    H           -1.165563840210    -1.386557917152    -0.611749321515
    C           -4.222263203427     0.021746286907     0.269571130970
    H           -3.099094974472    -1.748150891962     0.654689890585
    H           -3.615538231404    -1.603354095296    -0.995883616092
    C           -5.606848231209    -0.565117856838     0.526335342333
    H           -3.875848896463     0.516732188876     1.169680013546
    H           -4.295969349496     0.791934552069    -0.494640592050
    H           -6.304944347122     0.200261134782     0.845655751030
    H           -5.571868678231    -1.324138790969     1.301157345335
    H           -6.009288435911    -1.027619724848    -0.368776569755
    C            4.906270776787    -0.338422322581    -0.164256646362
    H            5.055446776692    -0.024123043288    -1.186612833437
    H            5.450398242352    -1.248831012571     0.028204668547
    H            5.244363381105     0.444901174882     0.497872545781

  Mulliken Charges: (a.u.)
   Center  Symbol    Alpha    Beta     Spin     Total
       1     O     4.19711  4.19711  0.00000 -0.39422
       2     C     2.80500  2.80500  0.00000  0.39000
       3     C     3.10088  3.10088  0.00000 -0.20176
       4     O     4.14723  4.14723  0.00000 -0.29446
       5     C     3.09190  3.09190  0.00000 -0.18380
       6     H     0.43920  0.43920  0.00000  0.12159
       7     H     0.44017  0.44017  0.00000  0.11966
       8     C     3.10852  3.10852  0.00000 -0.21704
       9     H     0.44640  0.44640  0.00000  0.10720
      10     H     0.43934  0.43934  0.00000  0.12131
      11     C     3.10013  3.10013  0.00000 -0.20026
      12     H     0.44046  0.44046  0.00000  0.11909
      13     H     0.45310  0.45310  0.00000  0.09380
      14     C     3.09157  3.09157  0.00000 -0.18313
      15     H     0.45072  0.45072  0.00000  0.09855
      16     H     0.45029  0.45029  0.00000  0.09941
      17     C     3.08920  3.08920  0.00000 -0.17840
      18     H     0.45439  0.45439  0.00000  0.09122
      19     H     0.44932  0.44932  0.00000  0.10137
      20     C     3.15074  3.15074  0.00000 -0.30148
      21     H     0.45099  0.45099  0.00000  0.09802
      22     H     0.45332  0.45332  0.00000  0.09335
      23     H     0.44817  0.44817  0.00000  0.10366
      24     H     0.45545  0.45545  0.00000  0.08909
      25     H     0.45442  0.45442  0.00000  0.09116
      26     C     3.03812  3.03812  0.00000 -0.07623
      27     H     0.45432  0.45432  0.00000  0.09136
      28     H     0.44528  0.44528  0.00000  0.10944
      29     H     0.45425  0.45425  0.00000  0.09149

   Total alpha = 44.00000, Total beta = 44.00000, Total charge = -0.00000

*** Psi4 exiting successfully. Buy a developer a beer!
