  ==> Input File <==

--------------------------------------------------------------------------
set {
	reference rhf
	basis 6-31G*
}

set_num_threads( 1 )
memory 2 gb

molecule MOL {
0 1

H	 -2.698709	 -0.000305	 0.034435
C	 -1.693833	 0.000034	 0.434417
O	 -0.828952	 -0.000968	 -0.659236
H	 -1.574200	 0.882896	 1.055746
H	 -1.574147	 -0.881698	 1.057355
C	 0.332450	 -0.796010	 -0.599600
C	 1.295384	 -0.344107	 0.496511
C	 0.016874	 -2.288125	 -0.516149
H	 0.807366	 -0.610338	 -1.555639
H	 1.456644	 0.726901	 0.437474
H	 2.253495	 -0.839888	 0.376265
H	 0.927922	 -0.581449	 1.489891
H	 -0.707303	 -2.562523	 -1.275578
H	 0.919571	 -2.868117	 -0.681111
H	 -0.379429	 -2.570784	 0.453845

	symmetry c1
}
set optking {
	frozen_dihedral = ("
		9 6 3 2
	")
}

ee = energy('scf')
oeprop('DIPOLE', 'QUADRUPOLE', 'MULLIKEN_CHARGES')
f=open( 'psi4out.xyz', 'w' )
f.write( "15  " )
f.write( str(ee) + "\n" )
f.write( MOL.save_string_xyz() )
f.close()
--------------------------------------------------------------------------

    Molecular point group: c1

    Geometry (in Angstrom), charge = 0, multiplicity = 1:

       Center              X                  Y                   Z               Mass
    ------------   -----------------  -----------------  -----------------  -----------------
           H         -2.504012887375     0.681886700978     0.187779261099     1.007825032070
           C         -1.499136887375     0.682225700978     0.587761261099    12.000000000000
           O         -0.634255887375     0.681223700978    -0.505891738901    15.994914619560
           H         -1.379503887375     1.565087700978     1.209090261099     1.007825032070
           H         -1.379450887375    -0.199506299022     1.210699261099     1.007825032070
           C          0.527146112625    -0.113818299022    -0.446255738901    12.000000000000
           C          1.490080112625     0.338084700978     0.649855261099    12.000000000000
           C          0.211570112625    -1.605933299022    -0.362804738901    12.000000000000
           H          1.002062112625     0.071853700978    -1.402294738901     1.007825032070
           H          1.651340112625     1.409092700978     0.590818261099     1.007825032070
           H          2.448191112625    -0.157696299022     0.529609261099     1.007825032070
           H          1.122618112625     0.100742700978     1.643235261099     1.007825032070
           H         -0.512606887375    -1.880331299022    -1.122233738901     1.007825032070
           H          1.114267112625    -2.185925299022    -0.527766738901     1.007825032070
           H         -0.184732887375    -1.888592299022     0.607189261099     1.007825032070

  Charge       = 0
  Multiplicity = 1
  Basis Set: 6-31G*
  Basis Set:

    Orbital Energies (a.u.)
    -----------------------

    Doubly Occupied:

       1A    -20.546767     2A    -11.274821     3A    -11.260728
       4A    -11.210873     5A    -11.210502     6A     -1.369820
       7A     -1.050617     8A     -0.939713     9A     -0.931188
      10A     -0.781470    11A     -0.676378    12A     -0.639282
      13A     -0.632326    14A     -0.570857    15A     -0.563757
      16A     -0.552747    17A     -0.537107    18A     -0.499608
      19A     -0.497320    20A     -0.442829    21A     -0.403887

  @DF-RHF Final Energy:  -232.13559458518435

   => Energetics <=

    Nuclear Repulsion Energy =            198.7928720107214247
    One-Electron Energy =                -708.6716515795425266
    Two-Electron Energy =                 277.7431849836372635
    DFT Exchange-Correlation Energy =       0.0000000000000000
    Empirical Dispersion Energy =           0.0000000000000000
    PCM Polarization Energy =               0.0000000000000000
    EFP Energy =                            0.0000000000000000
    Total Energy =                       -232.1355945851838101

  Mulliken Charges: (a.u.)
   Center  Symbol    Alpha    Beta     Spin     Total
       1     H     0.41653  0.41653  0.00000  0.16693
       2     C     3.07919  3.07919  0.00000 -0.15837
       3     O     4.31344  4.31344  0.00000 -0.62688
       4     H     0.42478  0.42478  0.00000  0.15044
       5     H     0.43070  0.43070  0.00000  0.13859
       6     C     2.91045  2.91045  0.00000  0.17910
       7     C     3.25176  3.25176  0.00000 -0.50353
       8     C     3.25238  3.25238  0.00000 -0.50477
       9     H     0.41536  0.41536  0.00000  0.16928
      10     H     0.41135  0.41135  0.00000  0.17731
      11     H     0.41976  0.41976  0.00000  0.16048
      12     H     0.42215  0.42215  0.00000  0.15571
      13     H     0.41129  0.41129  0.00000  0.17741
      14     H     0.41929  0.41929  0.00000  0.16141
      15     H     0.42156  0.42156  0.00000  0.15688

   Total alpha = 21.00000, Total beta = 21.00000, Total charge = -0.00000
