  ==> Input File <==

--------------------------------------------------------------------------
set {
	reference rhf
	basis cc-pvtz
}

set_num_threads( 4 )
memory 2 gb

molecule MOL {
0 1

H	 -0.982321	 2.156738	 -1.128698
C	 -0.827873	 1.212876	 -0.649946
C	 -1.904831	 0.488891	 -0.045660
C	 0.389920	 0.667692	 -0.597147
H	 -2.896495	 0.900133	 -0.070944
C	 -1.684272	 -0.689032	 0.546309
H	 1.245901	 1.149252	 -1.026727
N	 0.640204	 -0.530428	 -0.000115
H	 -2.464938	 -1.257683	 1.007999
C	 -0.355234	 -1.280475	 0.601850
C	 2.006991	 -1.033007	 -0.000020
O	 -0.117349	 -2.335488	 1.123962
H	 2.182444	 -1.636914	 -0.880881
H	 2.678769	 -0.195442	 -0.002236
H	 2.183828	 -1.633244	 0.883082

	symmetry c1
}
set optking {
	frozen_dihedral = ("
		10 8 11 13
	")
}

ee = optimize('scf')
oeprop('DIPOLE', 'QUADRUPOLE', 'MULLIKEN_CHARGES')
f=open( 'psi4out.xyz', 'w' )
f.write( "15  " )
f.write( str(ee) + "\n" )
f.write( MOL.save_string_xyz() )
f.close()
--------------------------------------------------------------------------

    Molecular point group: c1
  Charge       = 0
  Multiplicity = 1
  Basis Set: CC-PVTZ
  Basis Set:
  @DF-RHF Final Energy:  -360.72266809379465
    Total Energy =                       -360.7226680937948800
    Molecular point group: c1
  Basis Set: CC-PVTZ
  Basis Set:
  Basis Set: CC-PVTZ
  Basis Set:
  @DF-RHF Final Energy:  -360.72293635861166
    Total Energy =                       -360.7229363586117188
  Basis Set: CC-PVTZ
  Basis Set:
  Basis Set: CC-PVTZ
  Basis Set:
  @DF-RHF Final Energy:  -360.72294476906939
    Total Energy =                       -360.7229447690694428
  Basis Set: CC-PVTZ
  Basis Set:
  Basis Set: CC-PVTZ
  Basis Set:
  @DF-RHF Final Energy:  -360.72297707788846
    Total Energy =                       -360.7229770778885722
  Basis Set: CC-PVTZ
  Basis Set:
  Charge       = 0
  Multiplicity = 1
  Basis Set: CC-PVTZ
  Basis Set:

    Orbital Energies (a.u.)
    -----------------------

    Doubly Occupied:

       1A    -20.501837     2A    -15.617141     3A    -11.338608
       4A    -11.293846     5A    -11.264798     6A    -11.258153
       7A    -11.230090     8A    -11.228069     9A     -1.390866
      10A     -1.285818    11A     -1.118802    12A     -1.029039
      13A     -0.972518    14A     -0.876143    15A     -0.838756
      16A     -0.719370    17A     -0.702509    18A     -0.663738
      19A     -0.653014    20A     -0.625717    21A     -0.611888
      22A     -0.574725    23A     -0.555280    24A     -0.550773
      25A     -0.530318    26A     -0.483728    27A     -0.420552
      28A     -0.410499    29A     -0.310513

  @DF-RHF Final Energy:  -360.72297939114981

   => Energetics <=

    Nuclear Repulsion Energy =            358.6354451765199656
    One-Electron Energy =               -1200.6026321615968300
    Two-Electron Energy =                 481.2442075939270580
    DFT Exchange-Correlation Energy =       0.0000000000000000
    Empirical Dispersion Energy =           0.0000000000000000
    PCM Polarization Energy =               0.0000000000000000
    EFP Energy =                            0.0000000000000000
    Total Energy =                       -360.7229793911498064
    Molecular point group: c1
  Basis Set: CC-PVTZ
  Basis Set:

  -Total Gradient:
     Atom            X                  Y                   Z
    ------   -----------------  -----------------  -----------------
       1       -0.000009330089     0.000000864287    -0.000006691181
       2        0.000057410309    -0.000024947351    -0.000008585897
       3       -0.000042894379    -0.000030314517     0.000023121201
       4       -0.000072572633     0.000096547456     0.000043057925
       5        0.000001849113     0.000010973469    -0.000005610676
       6       -0.000049769115     0.000050026638    -0.000015409010
       7        0.000015022055    -0.000029823072    -0.000010843931
       8       -0.000098018145    -0.000403419068    -0.001013751928
       9        0.000011949555    -0.000001887244    -0.000002425179
      10        0.000176241084     0.000379002014     0.000559322876
      11       -0.000271993812    -0.000685482212     0.000792948250
      12        0.000014000703    -0.000000516904     0.000019835874
      13        0.000255506919     0.000720520934    -0.000438789864
      14       -0.000044210767    -0.000024286532    -0.000008317292
      15        0.000056809200    -0.000057257902     0.000072138832

  **** Optimization is complete! (in 5 steps) ****
    Final optimized geometry and variables:
    Molecular point group: c1

    Geometry (in Angstrom), charge = 0, multiplicity = 1:

    H           -0.820943721412     2.634972935202    -1.274828493868
    C           -0.660061619578     1.694338124641    -0.791860413255
    C           -1.730561025072     0.969975922734    -0.177760305128
    C            0.562686263635     1.158474692318    -0.737894477877
    H           -2.723672794440     1.377949436839    -0.199876503286
    C           -1.502903037369    -0.203926345146     0.420523718592
    H            1.413401031615     1.644489232916    -1.171666770648
    N            0.820095982846    -0.032332822281    -0.131407595109
    H           -2.279033243569    -0.773812524550     0.888468017196
    C           -0.172637137612    -0.791344573258     0.462258407679
    C            2.177918979632    -0.556714212432    -0.127509916893
    O            0.078304786893    -1.853327879649     0.963755395341
    H            2.362929015215    -1.157028936917    -1.009491340892
    H            2.875947930282     0.267505980996    -0.109192335662
    H            2.317104122767    -1.169243734575     0.745107187458

  Mulliken Charges: (a.u.)
   Center  Symbol    Alpha    Beta     Spin     Total
       1     H     0.41389  0.41389  0.00000  0.17222
       2     C     3.10442  3.10442  0.00000 -0.20884
       3     C     3.06108  3.06108  0.00000 -0.12216
       4     C     3.03411  3.03411  0.00000 -0.06822
       5     H     0.41840  0.41840  0.00000  0.16319
       6     C     3.11783  3.11783  0.00000 -0.23566
       7     H     0.42133  0.42133  0.00000  0.15733
       8     N     3.51072  3.51072  0.00000 -0.02143
       9     H     0.40905  0.40905  0.00000  0.18189
      10     C     2.84523  2.84523  0.00000  0.30954
      11     C     3.09946  3.09946  0.00000 -0.19892
      12     O     4.23622  4.23622  0.00000 -0.47245
      13     H     0.44629  0.44629  0.00000  0.10743
      14     H     0.45495  0.45495  0.00000  0.09011
      15     H     0.42702  0.42702  0.00000  0.14597

   Total alpha = 29.00000, Total beta = 29.00000, Total charge = -0.00000
