  ==> Input File <==

--------------------------------------------------------------------------
set {
	reference rhf
	basis 6-31G*
}

set_num_threads( 1 )
memory 2 gb

molecule MOL {
0 1

O	 1.846825	 1.296220	 0.000415
C	 1.705091	 0.115954	 0.001797
C	 0.381791	 -0.609817	 0.001258
O	 2.721346	 -0.737485	 -0.000216
C	 -0.823008	 0.326187	 0.001381
H	 0.371250	 -1.265087	 -0.865474
H	 0.370908	 -1.265746	 0.867490
C	 -2.147999	 -0.433271	 0.083143
H	 -0.802076	 0.936072	 -0.896278
H	 -0.740468	 1.015244	 0.836065
C	 -3.367339	 0.490347	 0.083458
H	 -2.223151	 -1.125114	 -0.754534
H	 -2.161860	 -1.044760	 0.984125
C	 -4.690885	 -0.268994	 0.166397
H	 -3.356348	 1.100093	 -0.817225
H	 -3.294161	 1.181480	 0.920188
H	 -4.809394	 -0.944149	 -0.676417
H	 -5.535749	 0.412661	 0.164929
H	 -4.746508	 -0.862518	 1.074662
C	 4.024888	 -0.184556	 -0.001949
H	 4.179030	 0.422472	 -0.882452
H	 4.701782	 -1.024608	 -0.003642
H	 4.181981	 0.421185	 0.878906

	symmetry c1
}
set optking {
	frozen_dihedral = ("
		15 11 8 12,
		9 5 8 12,
		1 2 3 6,
		1 2 4 20
	")
}

ee = energy('scf')
oeprop('DIPOLE', 'QUADRUPOLE', 'MULLIKEN_CHARGES')
f=open( 'psi4out.xyz', 'w' )
f.write( "23  " )
f.write( str(ee) + "\n" )
f.write( MOL.save_string_xyz() )
f.close()
--------------------------------------------------------------------------

    Molecular point group: c1

    Geometry (in Angstrom), charge = 0, multiplicity = 1:

       Center              X                  Y                   Z               Mass
    ------------   -----------------  -----------------  -----------------  -----------------
           O          1.846173829412     1.295387107174    -0.036985973473    15.994914619560
           C          1.704439829412     0.115121107174    -0.035603973473    12.000000000000
           C          0.381139829412    -0.610649892826    -0.036142973473    12.000000000000
           O          2.720694829412    -0.738317892826    -0.037616973473    15.994914619560
           C         -0.823659170588     0.325354107174    -0.036019973473    12.000000000000
           H          0.370598829412    -1.265919892826    -0.902874973473     1.007825032070
           H          0.370256829412    -1.266578892826     0.830089026527     1.007825032070
           C         -2.148650170588    -0.434103892826     0.045742026527    12.000000000000
           H         -0.802727170588     0.935239107174    -0.933678973473     1.007825032070
           H         -0.741119170588     1.014411107174     0.798664026527     1.007825032070
           C         -3.367990170588     0.489514107174     0.046057026527    12.000000000000
           H         -2.223802170588    -1.125946892826    -0.791934973473     1.007825032070
           H         -2.162511170588    -1.045592892826     0.946724026527     1.007825032070
           C         -4.691536170588    -0.269826892826     0.128996026527    12.000000000000
           H         -3.356999170588     1.099260107174    -0.854625973473     1.007825032070
           H         -3.294812170588     1.180647107174     0.882787026527     1.007825032070
           H         -4.810045170588    -0.944981892826    -0.713817973473     1.007825032070
           H         -5.536400170588     0.411828107174     0.127528026527     1.007825032070
           H         -4.747159170588    -0.863350892826     1.037261026527     1.007825032070
           C          4.024236829412    -0.185388892826    -0.039349973473    12.000000000000
           H          4.178378829412     0.421639107174    -0.919852973473     1.007825032070
           H          4.701130829412    -1.025440892826    -0.041042973473     1.007825032070
           H          4.181329829412     0.420352107174     0.841505026527     1.007825032070

  Charge       = 0
  Multiplicity = 1
  Basis Set: 6-31G*
  Basis Set:

    Orbital Energies (a.u.)
    -----------------------

    Doubly Occupied:

       1A    -20.603634     2A    -20.545431     3A    -11.372264
       4A    -11.280855     5A    -11.235543     6A    -11.219247
       7A    -11.217873     8A    -11.216460     9A    -11.209646
      10A     -1.469332    11A     -1.362768    12A     -1.093212
      13A     -1.043660    14A     -0.987049    15A     -0.932103
      16A     -0.843559    17A     -0.795078    18A     -0.767281
      19A     -0.696897    20A     -0.683851    21A     -0.671504
      22A     -0.651747    23A     -0.609296    24A     -0.599416
      25A     -0.572750    26A     -0.558033    27A     -0.557275
      28A     -0.523809    29A     -0.521154    30A     -0.507697
      31A     -0.484409    32A     -0.469769    33A     -0.466260
      34A     -0.461290    35A     -0.455625    36A     -0.435498

  @DF-RHF Final Energy:  -422.97627489683521

   => Energetics <=

    Nuclear Repulsion Energy =            452.1352171488560998
    One-Electron Energy =               -1471.9804131541984589
    Two-Electron Energy =                 596.8689211085071520
    DFT Exchange-Correlation Energy =       0.0000000000000000
    Empirical Dispersion Energy =           0.0000000000000000
    PCM Polarization Energy =               0.0000000000000000
    EFP Energy =                            0.0000000000000000
    Total Energy =                       -422.9762748968352071

  Mulliken Charges: (a.u.)
   Center  Symbol    Alpha    Beta     Spin     Total
       1     O     4.28607  4.28607  0.00000 -0.57215
       2     C     2.60492  2.60492  0.00000  0.79016
       3     C     3.20824  3.20824  0.00000 -0.41649
       4     O     4.30739  4.30739  0.00000 -0.61479
       5     C     3.15249  3.15249  0.00000 -0.30498
       6     H     0.40048  0.40048  0.00000  0.19905
       7     H     0.40076  0.40076  0.00000  0.19849
       8     C     3.15335  3.15335  0.00000 -0.30670
       9     H     0.41256  0.41256  0.00000  0.17488
      10     H     0.41078  0.41078  0.00000  0.17845
      11     C     3.15155  3.15155  0.00000 -0.30311
      12     H     0.42410  0.42410  0.00000  0.15179
      13     H     0.42393  0.42393  0.00000  0.15214
      14     C     3.23958  3.23958  0.00000 -0.47916
      15     H     0.42142  0.42142  0.00000  0.15716
      16     H     0.42124  0.42124  0.00000  0.15751
      17     H     0.42183  0.42183  0.00000  0.15634
      18     H     0.41848  0.41848  0.00000  0.16305
      19     H     0.42181  0.42181  0.00000  0.15638
      20     C     3.09244  3.09244  0.00000 -0.18489
      21     H     0.40905  0.40905  0.00000  0.18190
      22     H     0.40843  0.40843  0.00000  0.18315
      23     H     0.40910  0.40910  0.00000  0.18180

   Total alpha = 36.00000, Total beta = 36.00000, Total charge =  0.00000
