  ==> Input File <==

--------------------------------------------------------------------------
set {
	reference rhf
	basis 6-31G*
}

set_num_threads( 1 )
memory 2 gb

molecule MOL {
0 1

O	 -0.291628	 1.323815	 -0.000732
C	 -0.449655	 0.146360	 0.000961
C	 -1.783294	 -0.549321	 -0.000296
O	 0.550821	 -0.724572	 0.000672
H	 -1.863538	 -1.185371	 -0.874187
H	 -2.574672	 0.185258	 -0.002793
H	 -1.866414	 -1.182381	 0.875436
C	 0.503293	 -1.756923	 0.969317
H	 0.505358	 -1.341771	 1.966814
H	 1.388885	 -2.351903	 0.809705
H	 -0.382901	 -2.360680	 0.837100

	symmetry c1
}
set optking {
	frozen_dihedral = ("
		2 4 8 9
	")
}

ee = energy('scf')
oeprop('DIPOLE', 'QUADRUPOLE', 'MULLIKEN_CHARGES')
f=open( 'psi4out.xyz', 'w' )
f.write( "11  " )
f.write( str(ee) + "\n" )
f.write( MOL.save_string_xyz() )
f.close()
--------------------------------------------------------------------------

    Molecular point group: c1

    Geometry (in Angstrom), charge = 0, multiplicity = 1:

       Center              X                  Y                   Z               Mass
    ------------   -----------------  -----------------  -----------------  -----------------
           O         -0.002030156266     1.656555958852    -0.207104616761    15.994914619560
           C         -0.160057156266     0.479100958852    -0.205411616761    12.000000000000
           C         -1.493696156266    -0.216580041148    -0.206668616761    12.000000000000
           O          0.840418843734    -0.391831041148    -0.205700616761    15.994914619560
           H         -1.573940156266    -0.852630041148    -1.080559616761     1.007825032070
           H         -2.285074156266     0.517998958852    -0.209165616761     1.007825032070
           H         -1.576816156266    -0.849640041148     0.669063383239     1.007825032070
           C          0.792890843734    -1.424182041148     0.762944383239    12.000000000000
           H          0.794955843734    -1.009030041148     1.760441383239     1.007825032070
           H          1.678482843734    -2.019162041148     0.603332383239     1.007825032070
           H         -0.093303156266    -2.027939041148     0.630727383239     1.007825032070

  Charge       = 0
  Multiplicity = 1
  Basis Set: 6-31G*
  Basis Set:

    Orbital Energies (a.u.)
    -----------------------

    Doubly Occupied:

       1A    -20.598332     2A    -20.552664     3A    -11.378623
       4A    -11.299411     5A    -11.238557     6A     -1.467702
       7A     -1.371448     8A     -1.024347     9A     -0.984537
      10A     -0.784393    11A     -0.696852    12A     -0.690006
      13A     -0.679964    14A     -0.621436    15A     -0.588853
      16A     -0.572776    17A     -0.551766    18A     -0.499257
      19A     -0.461012    20A     -0.439084

  @DF-RHF Final Energy:  -266.81131960754851

   => Energetics <=

    Nuclear Repulsion Energy =            184.2756018961477196
    One-Electron Energy =                -729.1716949344946670
    Two-Electron Energy =                 278.0847734307982364
    DFT Exchange-Correlation Energy =       0.0000000000000000
    Empirical Dispersion Energy =           0.0000000000000000
    PCM Polarization Energy =               0.0000000000000000
    EFP Energy =                            0.0000000000000000
    Total Energy =                       -266.8113196075487394

  Mulliken Charges: (a.u.)
   Center  Symbol    Alpha    Beta     Spin     Total
       1     O     4.25829  4.25829  0.00000 -0.51658
       2     C     2.62052  2.62052  0.00000  0.75896
       3     C     3.30533  3.30533  0.00000 -0.61067
       4     O     4.29569  4.29569  0.00000 -0.59138
       5     H     0.39789  0.39789  0.00000  0.20423
       6     H     0.39289  0.39289  0.00000  0.21422
       7     H     0.40513  0.40513  0.00000  0.18974
       8     C     3.10036  3.10036  0.00000 -0.20072
       9     H     0.41067  0.41067  0.00000  0.17865
      10     H     0.39767  0.39767  0.00000  0.20466
      11     H     0.41556  0.41556  0.00000  0.16888

   Total alpha = 20.00000, Total beta = 20.00000, Total charge = -0.00000
