  ==> Input File <==

--------------------------------------------------------------------------
set {
	reference rhf
	basis 6-31G*
}

set_num_threads( 1 )
memory 2 gb

molecule MOL {
0 1

H	 -2.801791	 1.466111	 -1.819733
C	 -2.046966	 1.986808	 -2.422009
C	 -1.100694	 2.862025	 -1.640231
O	 -2.018359	 1.840241	 -3.600758
C	 -0.437599	 2.116788	 -0.473534
H	 -0.364218	 3.266521	 -2.324844
H	 -1.684521	 3.693940	 -1.248162
C	 0.518691	 1.008695	 -0.921799
H	 0.103997	 2.837734	 0.131607
H	 -1.207991	 1.697941	 0.172082
C	 1.180775	 0.282413	 0.250794
H	 1.285794	 1.438349	 -1.562733
H	 -0.015687	 0.285918	 -1.535454
C	 2.148627	 -0.814315	 -0.201312
H	 1.704046	 1.010383	 0.865594
H	 0.410886	 -0.156681	 0.883923
C	 3.580890	 -0.659131	 0.322722
H	 2.166869	 -0.852443	 -1.289387
H	 1.762857	 -1.776509	 0.128956
C	 4.324889	 0.564933	 -0.213704
H	 4.142010	 -1.551473	 0.056605
H	 3.564836	 -0.624694	 1.410140
H	 4.342616	 0.565491	 -1.300421
H	 3.866655	 1.493402	 0.110242
H	 5.353900	 0.572371	 0.132816

	symmetry c1
}
set optking {
	frozen_dihedral = ("
		6 3 5 8,
		6 3 2 4,
		3 5 8 12,
		12 8 11 14,
		20 17 14 18
	")
}

ee = energy('scf')
oeprop('DIPOLE', 'QUADRUPOLE', 'MULLIKEN_CHARGES')
f=open( 'psi4out.xyz', 'w' )
f.write( "25  " )
f.write( str(ee) + "\n" )
f.write( MOL.save_string_xyz() )
f.close()
--------------------------------------------------------------------------

    Molecular point group: c1

    Geometry (in Angstrom), charge = 0, multiplicity = 1:

       Center              X                  Y                   Z               Mass
    ------------   -----------------  -----------------  -----------------  -----------------
           H         -3.492917577012     0.442977023402    -0.817332135853     1.007825032070
           C         -2.738092577012     0.963674023402    -1.419608135853    12.000000000000
           C         -1.791820577012     1.838891023402    -0.637830135853    12.000000000000
           O         -2.709485577012     0.817107023402    -2.598357135853    15.994914619560
           C         -1.128725577012     1.093654023402     0.528866864147    12.000000000000
           H         -1.055344577012     2.243387023402    -1.322443135853     1.007825032070
           H         -2.375647577012     2.670806023402    -0.245761135853     1.007825032070
           C         -0.172435577012    -0.014438976598     0.080601864147    12.000000000000
           H         -0.587129577012     1.814600023402     1.134007864147     1.007825032070
           H         -1.899117577012     0.674807023402     1.174482864147     1.007825032070
           C          0.489648422988    -0.740720976598     1.253194864147    12.000000000000
           H          0.594667422988     0.415215023402    -0.560332135853     1.007825032070
           H         -0.706813577012    -0.737215976598    -0.533053135853     1.007825032070
           C          1.457500422988    -1.837448976598     0.801088864147    12.000000000000
           H          1.012919422988    -0.012750976598     1.867994864147     1.007825032070
           H         -0.280240577012    -1.179814976598     1.886323864147     1.007825032070
           C          2.889763422988    -1.682264976598     1.325122864147    12.000000000000
           H          1.475742422988    -1.875576976598    -0.286986135853     1.007825032070
           H          1.071730422988    -2.799642976598     1.131356864147     1.007825032070
           C          3.633762422988    -0.458200976598     0.788696864147    12.000000000000
           H          3.450883422988    -2.574606976598     1.059005864147     1.007825032070
           H          2.873709422988    -1.647827976598     2.412540864147     1.007825032070
           H          3.651489422988    -0.457642976598    -0.298020135853     1.007825032070
           H          3.175528422988     0.470268023402     1.112642864147     1.007825032070
           H          4.662773422988    -0.450762976598     1.135216864147     1.007825032070

  Charge       = 0
  Multiplicity = 1
  Basis Set: 6-31G*
  Basis Set:

    Orbital Energies (a.u.)
    -----------------------

    Doubly Occupied:

       1A    -20.561870     2A    -11.325981     3A    -11.234826
       4A    -11.234243     5A    -11.223864     6A    -11.218463
       7A    -11.218085     8A    -11.215372     9A    -11.211172
      10A     -1.401861    11A     -1.104130    12A     -1.069496
      13A     -1.012393    14A     -0.943433    15A     -0.875094
      16A     -0.820512    17A     -0.788036    18A     -0.781434
      19A     -0.664298    20A     -0.661073    21A     -0.630995
      22A     -0.626142    23A     -0.606566    24A     -0.592123
      25A     -0.571711    26A     -0.553959    27A     -0.534489
      28A     -0.522270    29A     -0.512962    30A     -0.495288
      31A     -0.488856    32A     -0.483805    33A     -0.463080
      34A     -0.453728    35A     -0.440207    36A     -0.409416

  @DF-RHF Final Energy:  -387.11663285202957

   => Energetics <=

    Nuclear Repulsion Energy =            444.2520162615858794
    One-Electron Energy =               -1404.8345042764779009
    Two-Electron Energy =                 573.4658551628632495
    DFT Exchange-Correlation Energy =       0.0000000000000000
    Empirical Dispersion Energy =           0.0000000000000000
    PCM Polarization Energy =               0.0000000000000000
    EFP Energy =                            0.0000000000000000
    Total Energy =                       -387.1166328520288289

  Mulliken Charges: (a.u.)
   Center  Symbol    Alpha    Beta     Spin     Total
       1     H     0.43262  0.43262  0.00000  0.13476
       2     C     2.83085  2.83085  0.00000  0.33831
       3     C     3.20807  3.20807  0.00000 -0.41613
       4     O     4.23783  4.23783  0.00000 -0.47567
       5     C     3.16707  3.16707  0.00000 -0.33414
       6     H     0.39982  0.39982  0.00000  0.20037
       7     H     0.40680  0.40680  0.00000  0.18640
       8     C     3.15825  3.15825  0.00000 -0.31650
       9     H     0.41302  0.41302  0.00000  0.17396
      10     H     0.41968  0.41968  0.00000  0.16063
      11     C     3.15555  3.15555  0.00000 -0.31110
      12     H     0.41702  0.41702  0.00000  0.16596
      13     H     0.41769  0.41769  0.00000  0.16461
      14     C     3.15683  3.15683  0.00000 -0.31365
      15     H     0.42014  0.42014  0.00000  0.15971
      16     H     0.42045  0.42045  0.00000  0.15910
      17     C     3.15393  3.15393  0.00000 -0.30785
      18     H     0.41919  0.41919  0.00000  0.16162
      19     H     0.41900  0.41900  0.00000  0.16199
      20     C     3.24100  3.24100  0.00000 -0.48200
      21     H     0.42082  0.42082  0.00000  0.15836
      22     H     0.42307  0.42307  0.00000  0.15386
      23     H     0.42117  0.42117  0.00000  0.15766
      24     H     0.42186  0.42186  0.00000  0.15628
      25     H     0.41827  0.41827  0.00000  0.16345

   Total alpha = 36.00000, Total beta = 36.00000, Total charge = -0.00000
