  ==> Input File <==

--------------------------------------------------------------------------
set {
	reference rhf
	basis 6-31G*
}

set_num_threads( 4 )
memory 2 gb

molecule MOL {
0 1

H	 -0.944757	 -0.000069	 1.678017
O	 -0.042387	 -0.000390	 1.388199
C	 -0.001487	 0.000018	 -0.026623
C	 1.260999	 -0.721254	 -0.502582
C	 -1.257062	 -0.680431	 -0.575409
C	 0.033869	 1.471487	 -0.424053
H	 1.344024	 -0.702071	 -1.584541
H	 1.251548	 -1.763103	 -0.190546
H	 2.142840	 -0.252257	 -0.080190
H	 -1.275642	 -0.661498	 -1.660483
H	 -1.300411	 -1.721172	 -0.262502
H	 -2.146134	 -0.181409	 -0.206078
H	 0.067413	 1.582164	 -1.503113
H	 0.907403	 1.953270	 0.000577
H	 -0.847179	 1.981441	 -0.051099

	symmetry c1
}
set optking {
	frozen_dihedral = ("
		4 3 2 1
	")
}

ee = optimize('scf')
oeprop('DIPOLE', 'QUADRUPOLE', 'MULLIKEN_CHARGES')
f=open( 'psi4out.xyz', 'w' )
f.write( "15  " )
f.write( str(ee) + "\n" )
f.write( MOL.save_string_xyz() )
f.close()
--------------------------------------------------------------------------

    Molecular point group: c1
  Charge       = 0
  Multiplicity = 1
  Basis Set: 6-31G*
  Basis Set:
  @DF-RHF Final Energy:  -232.15041213083353
    Total Energy =                       -232.1504121308336153
    Molecular point group: c1
  Basis Set: 6-31G*
  Basis Set:
  Basis Set: 6-31G*
  Basis Set:
  @DF-RHF Final Energy:  -232.15183321896174
    Total Energy =                       -232.1518332189617126
  Basis Set: 6-31G*
  Basis Set:
  Basis Set: 6-31G*
  Basis Set:
  @DF-RHF Final Energy:  -232.15211186005257
    Total Energy =                       -232.1521118600524005
  Basis Set: 6-31G*
  Basis Set:
  Basis Set: 6-31G*
  Basis Set:
  @DF-RHF Final Energy:  -232.15211709238139
    Total Energy =                       -232.1521170923815021
  Basis Set: 6-31G*
  Basis Set:
  Basis Set: 6-31G*
  Basis Set:
  @DF-RHF Final Energy:  -232.15212291932838
    Total Energy =                       -232.1521229193283489
  Basis Set: 6-31G*
  Basis Set:
  Charge       = 0
  Multiplicity = 1
  Basis Set: 6-31G*
  Basis Set:

    Orbital Energies (a.u.)
    -----------------------

    Doubly Occupied:

       1A    -20.547857     2A    -11.281930     3A    -11.216359
       4A    -11.206465     5A    -11.204765     6A     -1.359335
       7A     -1.063540     8A     -0.943951     9A     -0.936996
      10A     -0.775624    11A     -0.669614    12A     -0.622564
      13A     -0.621215    14A     -0.574939    15A     -0.556697
      16A     -0.532219    17A     -0.516805    18A     -0.508812
      19A     -0.502482    20A     -0.456475    21A     -0.424211

  @DF-RHF Final Energy:  -232.15212346372365

   => Energetics <=

    Nuclear Repulsion Energy =            200.3036378260277104
    One-Electron Energy =                -711.8658138492364742
    Two-Electron Energy =                 279.4100525594851661
    DFT Exchange-Correlation Energy =       0.0000000000000000
    Empirical Dispersion Energy =           0.0000000000000000
    PCM Polarization Energy =               0.0000000000000000
    EFP Energy =                            0.0000000000000000
    Total Energy =                       -232.1521234637235693
    Molecular point group: c1
  Basis Set: 6-31G*
  Basis Set:

  -Total Gradient:
     Atom            X                  Y                   Z
    ------   -----------------  -----------------  -----------------
       1       -0.000041648461    -0.002249118677    -0.000123963861
       2       -0.000173197038     0.002422805197     0.000107592376
       3        0.000893516567     0.000999248248     0.000042196226
       4       -0.000692794378    -0.001183216735    -0.000037762801
       5        0.000008875171     0.000008213804     0.000000383804
       6        0.000007563405     0.000008123520     0.000002417507
       7       -0.000011078713    -0.000011529434     0.000005882938
       8        0.000012777121    -0.000005238765     0.000009396093
       9        0.000002519474     0.000009048873    -0.000008946907
      10       -0.000006384690     0.000019193873     0.000001982745
      11        0.000009816757    -0.000003352078    -0.000015982585
      12       -0.000003500984    -0.000012110650     0.000016604473
      13       -0.000010271080    -0.000003108861     0.000000164015
      14       -0.000000410425    -0.000006200325    -0.000007706614
      15        0.000004217276     0.000007242010     0.000007742585

  **** Optimization is complete! (in 6 steps) ****
    Final optimized geometry and variables:
    Molecular point group: c1

    Geometry (in Angstrom), charge = 0, multiplicity = 1:

    H           -0.880154315826    -0.069873498841     1.717651725906
    O            0.007857897604    -0.067950465450     1.389746673078
    C            0.001420620990     0.006890955526    -0.025947882912
    C            1.258295153712    -0.725991129627    -0.484768584675
    C           -1.248094368462    -0.682886875378    -0.576641260641
    C            0.038074593029     1.477307468776    -0.443384240890
    H            1.359485470965    -0.690841366579    -1.564973779780
    H            1.222774055884    -1.763471690759    -0.172068086682
    H            2.138142061673    -0.271633536919    -0.042576965910
    H           -1.258398499526    -0.669659854404    -1.661217324777
    H           -1.287380102541    -1.716502541843    -0.247909938712
    H           -2.150949027554    -0.181447503280    -0.234116651609
    H            0.069854671773     1.583756246625    -1.523594018593
    H            0.912047246183     1.961908364321    -0.022814799855
    H           -0.841853847895     1.999361249864    -0.078385990812

  Mulliken Charges: (a.u.)
   Center  Symbol    Alpha    Beta     Spin     Total
       1     H     0.28169  0.28169  0.00000  0.43663
       2     O     4.37989  4.37989  0.00000 -0.75978
       3     C     2.84873  2.84873  0.00000  0.30254
       4     C     3.23269  3.23269  0.00000 -0.46538
       5     C     3.25417  3.25417  0.00000 -0.50833
       6     C     3.23351  3.23351  0.00000 -0.46702
       7     H     0.42488  0.42488  0.00000  0.15023
       8     H     0.41582  0.41582  0.00000  0.16837
       9     H     0.41291  0.41291  0.00000  0.17418
      10     H     0.41632  0.41632  0.00000  0.16736
      11     H     0.41329  0.41329  0.00000  0.17343
      12     H     0.42419  0.42419  0.00000  0.15162
      13     H     0.42470  0.42470  0.00000  0.15060
      14     H     0.41290  0.41290  0.00000  0.17420
      15     H     0.42432  0.42432  0.00000  0.15135

   Total alpha = 21.00000, Total beta = 21.00000, Total charge = -0.00000
