  ==> Input File <==

--------------------------------------------------------------------------
set {
	reference rhf
	basis 6-31G*
}

set_num_threads( 4 )
memory 2 gb

molecule MOL {
0 1

H	 -2.798360	 -0.862255	 -0.071053
N	 -1.863561	 -0.715187	 0.256814
C	 -1.344686	 0.554728	 -0.219830
H	 -1.300452	 -1.461917	 -0.101532
C	 0.081427	 0.741154	 0.254071
H	 -1.362155	 0.656231	 -1.305829
H	 -1.952773	 1.354456	 0.191809
O	 0.047884	 1.287988	 1.541291
H	 0.602008	 -0.216162	 0.267480
H	 0.608400	 1.407473	 -0.425306
C	 1.299586	 1.592358	 2.068711
H	 1.147832	 2.003098	 3.057630
H	 1.924186	 0.704449	 2.149178
H	 1.820610	 2.326567	 1.457744

	symmetry c1
}
set optking {
	frozen_dihedral = ("
		8 5 3 6
	")
}

ee = optimize('scf')
oeprop('DIPOLE', 'QUADRUPOLE', 'MULLIKEN_CHARGES')
f=open( 'psi4out.xyz', 'w' )
f.write( "14  " )
f.write( str(ee) + "\n" )
f.write( MOL.save_string_xyz() )
f.close()
--------------------------------------------------------------------------

    Molecular point group: c1
  Charge       = 0
  Multiplicity = 1
  Basis Set: 6-31G*
  Basis Set:
  @DF-RHF Final Energy:  -248.11771340905557
    Total Energy =                       -248.1177134090557956
    Molecular point group: c1
  Basis Set: 6-31G*
  Basis Set:
  Basis Set: 6-31G*
  Basis Set:
  @DF-RHF Final Energy:  -248.11856589359928
    Total Energy =                       -248.1185658935993388
  Basis Set: 6-31G*
  Basis Set:
  Basis Set: 6-31G*
  Basis Set:
  @DF-RHF Final Energy:  -248.11881479647471
    Total Energy =                       -248.1188147964747372
  Basis Set: 6-31G*
  Basis Set:
  Basis Set: 6-31G*
  Basis Set:
  @DF-RHF Final Energy:  -248.11885276726414
    Total Energy =                       -248.1188527672644568
  Basis Set: 6-31G*
  Basis Set:
  Basis Set: 6-31G*
  Basis Set:
  @DF-RHF Final Energy:  -248.11885599085559
    Total Energy =                       -248.1188559908558204
  Basis Set: 6-31G*
  Basis Set:
  Charge       = 0
  Multiplicity = 1
  Basis Set: 6-31G*
  Basis Set:

    Orbital Energies (a.u.)
    -----------------------

    Doubly Occupied:

       1A    -20.549605     2A    -15.533946     3A    -11.265124
       4A    -11.260672     5A    -11.242255     6A     -1.375700
       7A     -1.176935     8A     -0.997606     9A     -0.901189
      10A     -0.819956    11A     -0.679652    12A     -0.667454
      13A     -0.644102    14A     -0.618431    15A     -0.601362
      16A     -0.540195    17A     -0.522267    18A     -0.501860
      19A     -0.464692    20A     -0.411088    21A     -0.382334

  @DF-RHF Final Energy:  -248.11885622602858

   => Energetics <=

    Nuclear Repulsion Energy =            192.7055673652096743
    One-Electron Energy =                -719.3359985274732935
    Two-Electron Energy =                 278.5115749362349788
    DFT Exchange-Correlation Energy =       0.0000000000000000
    Empirical Dispersion Energy =           0.0000000000000000
    PCM Polarization Energy =               0.0000000000000000
    EFP Energy =                            0.0000000000000000
    Total Energy =                       -248.1188562260286972
    Molecular point group: c1
  Basis Set: 6-31G*
  Basis Set:

  -Total Gradient:
     Atom            X                  Y                   Z
    ------   -----------------  -----------------  -----------------
       1        0.000015860293     0.000003624394     0.000004480259
       2       -0.000005042890     0.000018485255    -0.000013426129
       3        0.000756906888    -0.002850894077    -0.000579020773
       4       -0.000001455877     0.000013558562     0.000006383319
       5       -0.000004389988    -0.002034762652     0.001320810882
       6       -0.000663063811     0.002808302464     0.000222792593
       7       -0.000006325266    -0.000013272487    -0.000004081861
       8       -0.000084981718     0.002066760963    -0.000953063634
       9        0.000008240315    -0.000011752111    -0.000013887220
      10       -0.000000470267    -0.000004112926    -0.000000901327
      11       -0.000008473743     0.000008540106     0.000019906734
      12        0.000004620235    -0.000000288764     0.000003701087
      13       -0.000004522829     0.000002003068    -0.000007855251
      14       -0.000006901345    -0.000006191797    -0.000005838680

  **** Optimization is complete! (in 6 steps) ****
    Final optimized geometry and variables:
    Molecular point group: c1

    Geometry (in Angstrom), charge = 0, multiplicity = 1:

    H           -2.463813081417    -1.527117868359    -0.644963178635
    N           -1.475527764451    -1.444253970584    -0.508976516610
    C           -0.986899328119    -0.173802803576    -1.016991320853
    H           -1.047117923127    -2.210928328234    -0.991135088699
    C            0.428799120894     0.113295998570    -0.539952008293
    H           -1.017319367449    -0.089922744478    -2.105571766764
    H           -1.622347319876     0.613833982672    -0.630380240762
    O            0.382472497266     0.673018549972     0.735702525010
    H            1.016626167193    -0.804551679968    -0.535589190829
    H            0.915138885143     0.808068139040    -1.225938513915
    C            1.630215146790     0.880987137329     1.312673700516
    H            1.470727573485     1.326958644708     2.284853697219
    H            2.172220404471    -0.054351677592     1.439694722832
    H            2.241779251822     1.554370535023     0.713271222352

  Mulliken Charges: (a.u.)
   Center  Symbol    Alpha    Beta     Spin     Total
       1     H     0.33076  0.33076  0.00000  0.33848
       2     N     3.91817  3.91817  0.00000 -0.83633
       3     C     3.07534  3.07534  0.00000 -0.15068
       4     H     0.33569  0.33569  0.00000  0.32862
       5     C     2.98092  2.98092  0.00000  0.03817
       6     H     0.43292  0.43292  0.00000  0.13416
       7     H     0.40685  0.40685  0.00000  0.18630
       8     O     4.30002  4.30002  0.00000 -0.60005
       9     H     0.43280  0.43280  0.00000  0.13440
      10     H     0.43356  0.43356  0.00000  0.13288
      11     C     3.07889  3.07889  0.00000 -0.15777
      12     H     0.41203  0.41203  0.00000  0.17594
      13     H     0.42941  0.42941  0.00000  0.14117
      14     H     0.43265  0.43265  0.00000  0.13471

   Total alpha = 21.00000, Total beta = 21.00000, Total charge = -0.00000
