                              Psi4 1.0.54 Driver

  ==> Input File <==

--------------------------------------------------------------------------
set {
	reference rhf
	basis cc-pvtz
}

set_num_threads( 4 )
memory 2 gb

molecule MOL {
0 1

O	 1.419218	 2.037614	 -0.345187
C	 0.462137	 2.273957	 -1.000302
C	 -0.829933	 1.498374	 -0.974463
O	 0.403597	 3.276404	 -1.861749
C	 -0.824290	 0.329213	 -0.000115
H	 -1.621780	 2.202075	 -0.739447
H	 -1.023734	 1.164108	 -1.988440
C	 -2.146151	 -0.432825	 -0.000068
H	 -0.610851	 0.696379	 0.997335
H	 -0.011929	 -0.342672	 -0.252961
C	 -3.366283	 0.483552	 0.000557
H	 -2.189286	 -1.084450	 -0.869996
H	 -2.188867	 -1.085083	 0.869399
C	 -4.687436	 -0.278003	 0.000108
H	 -3.325150	 1.134819	 -0.867957
H	 -3.325087	 1.133730	 0.869885
H	 -4.773783	 -0.912098	 -0.876078
H	 -5.531922	 0.401392	 0.000363
H	 -4.773901	 -0.912898	 0.875703
C	 1.551604	 4.090830	 -1.988690
H	 1.790902	 4.561976	 -1.046899
H	 1.306776	 4.837345	 -2.726675
H	 2.399055	 3.506916	 -2.315928

	symmetry c1
}
set optking {
	frozen_dihedral = ("
		9 5 8 12
	")
}

ee,wfn = optimize('scf', return_wfn=True)
oeprop( wfn, 'DIPOLE', 'QUADRUPOLE', 'MULLIKEN_CHARGES')
f=open( 'psi4out.xyz', 'w' )
f.write( "23  " )
f.write( str(ee) + "\n" )
f.write( MOL.save_string_xyz() )
f.close()
--------------------------------------------------------------------------

    Molecular point group: c1
  Charge       = 0
  Multiplicity = 1
  Basis Set: CC-PVTZ
  Basis Set:
  @DF-RHF Final Energy:  -423.12542952572602
    Total Energy =                       -423.1254295257259628
    Molecular point group: c1
  Basis Set: CC-PVTZ
  Basis Set:
  Basis Set: CC-PVTZ
  Basis Set:
  @DF-RHF Final Energy:  -423.12508496083558
    Total Energy =                       -423.1250849608361477
  Basis Set: CC-PVTZ
  Basis Set:
  Basis Set: CC-PVTZ
  Basis Set:
  @DF-RHF Final Energy:  -423.12780859430438
    Total Energy =                       -423.1278085943041560
  Basis Set: CC-PVTZ
  Basis Set:
  Basis Set: CC-PVTZ
  Basis Set:
  @DF-RHF Final Energy:  -423.12778436550360
    Total Energy =                       -423.1277843655030892
  Basis Set: CC-PVTZ
  Basis Set:
  @DF-RHF Final Energy:  -423.12730020591539
    Total Energy =                       -423.1273002059149348
  Basis Set: CC-PVTZ
  Basis Set:
  @DF-RHF Final Energy:  -423.12801170221292
    Total Energy =                       -423.1280117022129161
  Basis Set: CC-PVTZ
  Basis Set:
  Basis Set: CC-PVTZ
  Basis Set:
  @DF-RHF Final Energy:  -423.12802060865158
    Total Energy =                       -423.1280206086514681
  Basis Set: CC-PVTZ
  Basis Set:
  Basis Set: CC-PVTZ
  Basis Set:
  @DF-RHF Final Energy:  -423.12802239708526
    Total Energy =                       -423.1280223970850329
  Basis Set: CC-PVTZ
  Basis Set:
  Charge       = 0
  Multiplicity = 1
  Basis Set: CC-PVTZ
  Basis Set:

    Orbital Energies (a.u.)
    -----------------------

    Doubly Occupied:

       1A    -20.596141     2A    -20.534026     3A    -11.364450
       4A    -11.278370     5A    -11.233370     6A    -11.217252
       7A    -11.217050     8A    -11.215721     9A    -11.209237
      10A     -1.472083    11A     -1.365665    12A     -1.094378
      13A     -1.043171    14A     -0.988156    15A     -0.934064
      16A     -0.852694    17A     -0.793015    18A     -0.763651
      19A     -0.702915    20A     -0.685775    21A     -0.675701
      22A     -0.643258    23A     -0.615609    24A     -0.602020
      25A     -0.578899    26A     -0.558937    27A     -0.555209
      28A     -0.528482    29A     -0.522038    30A     -0.511569
      31A     -0.492363    32A     -0.467819    33A     -0.463964
      34A     -0.460579    35A     -0.454345    36A     -0.440659

  @DF-RHF Final Energy:  -423.12802267765170

   => Energetics <=

    Nuclear Repulsion Energy =            458.4854107033062860
    One-Electron Energy =               -1484.9616030292436335
    Two-Electron Energy =                 603.3481696482858752
    DFT Exchange-Correlation Energy =       0.0000000000000000
    Empirical Dispersion Energy =           0.0000000000000000
    PCM Polarization Energy =               0.0000000000000000
    EFP Energy =                            0.0000000000000000
    Total Energy =                       -423.1280226776514155
    Molecular point group: c1
  Basis Set: CC-PVTZ
  Basis Set:

  -Total Gradient:
     Atom            X                  Y                   Z
    ------   -----------------  -----------------  -----------------
       1        0.000002544899    -0.000009235459     0.000008145778
       2       -0.000004113699     0.000038196163    -0.000016238285
       3        0.000008264348    -0.000005201680    -0.000008393055
       4       -0.000015415213    -0.000030095808     0.000007009502
       5       -0.002177707080     0.003418500951    -0.000463721129
       6       -0.000000432028     0.000002700255     0.000003783021
       7       -0.000006605256     0.000002183118     0.000004931290
       8       -0.001680857337     0.002772746069    -0.002353853937
       9        0.002091043945    -0.003292818739     0.000769475244
      10       -0.000000612671    -0.000008602270    -0.000001567333
      11        0.000007161853     0.000006704071    -0.000010925490
      12        0.001763869635    -0.002883743684     0.002048095705
      13        0.000000599808    -0.000000071567     0.000001848331
      14       -0.000002051307    -0.000008975158     0.000004570096
      15       -0.000000598804     0.000004066716    -0.000002379260
      16        0.000005227619    -0.000001775569     0.000000577351
      17       -0.000000951121     0.000000978182     0.000001882939
      18        0.000006992703    -0.000001701785    -0.000001738732
      19       -0.000003758770    -0.000000511544     0.000000878113
      20        0.000023686676     0.000006830807     0.000006553987
      21       -0.000003534078    -0.000001778646    -0.000003010213
      22       -0.000008248817    -0.000008171150     0.000003882124
      23       -0.000004505307    -0.000000223275     0.000000193956

  **** Optimization is complete! (in 9 steps) ****
    Final optimized geometry and variables:
    Molecular point group: c1

    Geometry (in Angstrom), charge = 0, multiplicity = 1:

    O            2.297858483286     0.526325556430     0.348547826765
    C            1.355631250116     0.812163564832    -0.308276665600
    C            0.025096953731     0.103399510941    -0.290832603166
    O            1.349757542191     1.820262385196    -1.165384751589
    C           -0.022519467232    -1.066574117920     0.681606803914
    H           -0.725544651086     0.851016266661    -0.065023141035
    H           -0.176645943218    -0.222291602591    -1.306608130477
    C           -1.309493353244    -1.895329507478     0.626370617855
    H            0.149844794045    -0.719276099617     1.694217773271
    H            0.813429360065    -1.722526366706     0.468876224071
    C           -2.617024643883    -1.111634232743     0.704993135849
    H           -1.300336076677    -2.521736702741    -0.262667882708
    H           -1.278594017246    -2.593273080329     1.458866920879
    C           -3.839642865547    -2.018660012424     0.801099574812
    H           -2.722452339507    -0.470873641862    -0.164358702192
    H           -2.589233935993    -0.452984303520     1.569602722946
    H           -3.906493522684    -2.675970867623    -0.059553574261
    H           -4.755140111914    -1.440238817832     0.846741869792
    H           -3.796476606080    -2.641387092654     1.688207256002
    C            2.537273759211     2.576880276624    -1.285280008347
    H            2.796623516536     3.031845371248    -0.340838582720
    H            2.332455209611     3.337622588480    -2.020950479479
    H            3.355755193823     1.952852506051    -1.612268187951

  Mulliken Charges: (a.u.)
   Center  Symbol    Alpha    Beta     Spin     Total
       1     O     4.19661  4.19661  0.00000 -0.39321
       2     C     2.80776  2.80776  0.00000  0.38447
       3     C     3.10192  3.10192  0.00000 -0.20384
       4     O     4.14685  4.14685  0.00000 -0.29369
       5     C     3.09253  3.09253  0.00000 -0.18506
       6     H     0.43723  0.43723  0.00000  0.12554
       7     H     0.43898  0.43898  0.00000  0.12203
       8     C     3.09793  3.09793  0.00000 -0.19587
       9     H     0.44507  0.44507  0.00000  0.10986
      10     H     0.44125  0.44125  0.00000  0.11750
      11     C     3.09030  3.09030  0.00000 -0.18060
      12     H     0.45201  0.45201  0.00000  0.09597
      13     H     0.44847  0.44847  0.00000  0.10307
      14     C     3.15007  3.15007  0.00000 -0.30014
      15     H     0.45237  0.45237  0.00000  0.09526
      16     H     0.45227  0.45227  0.00000  0.09545
      17     H     0.45486  0.45486  0.00000  0.09028
      18     H     0.44799  0.44799  0.00000  0.10402
      19     H     0.45355  0.45355  0.00000  0.09290
      20     C     3.03815  3.03815  0.00000 -0.07631
      21     H     0.45439  0.45439  0.00000  0.09123
      22     H     0.44521  0.44521  0.00000  0.10958
      23     H     0.45423  0.45423  0.00000  0.09155

   Total alpha = 36.00000, Total beta = 36.00000, Total charge = -0.00000

*** Psi4 exiting successfully. Buy a developer a beer!
