  ==> Input File <==

--------------------------------------------------------------------------
set {
	reference rhf
	basis 6-31G*
}

set_num_threads( 4 )
memory 2 gb

molecule MOL {
0 1

O	 -1.276010	 1.052711	 -0.768302
C	 -1.204840	 0.067374	 -0.106123
C	 -2.388195	 -0.672128	 0.458071
O	 -0.067104	 -0.527208	 0.221609
H	 -2.388023	 -1.694060	 0.097175
H	 -3.300579	 -0.174919	 0.164318
H	 -2.315377	 -0.706351	 1.539059
C	 -0.046118	 -1.420791	 1.343660
C	 1.386466	 -1.424522	 1.846925
C	 -0.529923	 -2.796892	 0.913631
H	 -0.706683	 -1.020757	 2.098732
H	 1.696403	 -0.424245	 2.127338
H	 1.475477	 -2.067419	 2.716461
H	 2.061365	 -1.789210	 1.080004
H	 -0.494608	 -3.483979	 1.753083
H	 -1.551307	 -2.750895	 0.557773
H	 0.100802	 -3.190532	 0.122909

	symmetry c1
}
set optking {
	frozen_dihedral = ("
		8 4 2 1
	")
}

ee = optimize('scf')
oeprop('DIPOLE', 'QUADRUPOLE', 'MULLIKEN_CHARGES')
f=open( 'psi4out.xyz', 'w' )
f.write( "17  " )
f.write( str(ee) + "\n" )
f.write( MOL.save_string_xyz() )
f.close()
--------------------------------------------------------------------------

    Molecular point group: c1
  Charge       = 0
  Multiplicity = 1
  Basis Set: 6-31G*
  Basis Set:
  @DF-RHF Final Energy:  -344.86972036937146
    Total Energy =                       -344.8697203693718620
    Molecular point group: c1
  Basis Set: 6-31G*
  Basis Set:
  Basis Set: 6-31G*
  Basis Set:
  @DF-RHF Final Energy:  -344.89113283171361
    Total Energy =                       -344.8911328317134348
  Basis Set: 6-31G*
  Basis Set:
  Basis Set: 6-31G*
  Basis Set:
  @DF-RHF Final Energy:  -344.89517147874489
    Total Energy =                       -344.8951714787448282
  Basis Set: 6-31G*
  Basis Set:
  Basis Set: 6-31G*
  Basis Set:
  @DF-RHF Final Energy:  -344.89559778688812
    Total Energy =                       -344.8955977868879472
  Basis Set: 6-31G*
  Basis Set:
  @DF-RHF Final Energy:  -344.89673534540032
    Total Energy =                       -344.8967353454003160
  @DF-RHF Final Energy:  -344.89704660703654
    Total Energy =                       -344.8970466070365433
  @DF-RHF Final Energy:  -344.89722641211404
    Total Energy =                       -344.8972264121139233
  @DF-RHF Final Energy:  -344.89746920799206
    Total Energy =                       -344.8974692079921169
  @DF-RHF Final Energy:  -344.89789802575785
    Total Energy =                       -344.8978980257574563
  @DF-RHF Final Energy:  -344.89801218247220
    Total Energy =                       -344.8980121824722005
  @DF-RHF Final Energy:  -344.89812605324460
    Total Energy =                       -344.8981260532443684
  Basis Set: 6-31G*
  Basis Set:
  @DF-RHF Final Energy:  -344.89816099965020
    Total Energy =                       -344.8981609996502584
  Basis Set: 6-31G*
  Basis Set:
  Basis Set: 6-31G*
  Basis Set:
  @DF-RHF Final Energy:  -344.89814761870377
    Total Energy =                       -344.8981476187036606
  Basis Set: 6-31G*
  Basis Set:
  Basis Set: 6-31G*
  Basis Set:
  @DF-RHF Final Energy:  -344.89816818138576
    Total Energy =                       -344.8981681813854152
  Basis Set: 6-31G*
  Basis Set:
  Charge       = 0
  Multiplicity = 1
  Basis Set: 6-31G*
  Basis Set:

    Orbital Energies (a.u.)
    -----------------------

    Doubly Occupied:

       1A    -20.595391     2A    -20.536696     3A    -11.375605
       4A    -11.305171     5A    -11.241872     6A    -11.227843
       7A    -11.225406     8A     -1.459464     9A     -1.362162
      10A     -1.078486    11A     -1.016272    12A     -0.956742
      13A     -0.860473    14A     -0.777242    15A     -0.698466
      16A     -0.664697    17A     -0.659354    18A     -0.618085
      19A     -0.596521    20A     -0.591143    21A     -0.560598
      22A     -0.558288    23A     -0.546247    24A     -0.528691
      25A     -0.509147    26A     -0.488867    27A     -0.438100
      28A     -0.431343

  @DF-RHF Final Energy:  -344.89816839954909

   => Energetics <=

    Nuclear Repulsion Energy =            321.4161886062416329
    One-Electron Energy =               -1106.8119666908937688
    Two-Electron Energy =                 440.4976096851031002
    DFT Exchange-Correlation Energy =       0.0000000000000000
    Empirical Dispersion Energy =           0.0000000000000000
    PCM Polarization Energy =               0.0000000000000000
    EFP Energy =                            0.0000000000000000
    Total Energy =                       -344.8981683995490926
    Molecular point group: c1
  Basis Set: 6-31G*
  Basis Set:

  -Total Gradient:
     Atom            X                  Y                   Z
    ------   -----------------  -----------------  -----------------
       1        0.000746092265     0.001282030924     0.001479888379
       2       -0.000445165367    -0.001032481529    -0.001612406105
       3       -0.000010443474     0.000016818911     0.000012192803
       4       -0.001274243462    -0.001611517223    -0.000672857678
       5       -0.000011627620     0.000009414144    -0.000016887043
       6        0.000001039723     0.000002592452    -0.000003889461
       7        0.000002362199    -0.000005582279     0.000006308128
       8        0.000980593950     0.001347943909     0.000808554914
       9        0.000000982377    -0.000000344407    -0.000005080670
      10        0.000000962520    -0.000009467012    -0.000010761610
      11       -0.000011195627     0.000013894315    -0.000002657871
      12       -0.000000203235     0.000000352585     0.000001174128
      13       -0.000002251776    -0.000000054051    -0.000000131610
      14       -0.000000537693     0.000000800900     0.000000319122
      15        0.000004584424    -0.000000514443     0.000002639363
      16        0.000014769424    -0.000008387257     0.000013927098
      17        0.000004281369    -0.000005499941    -0.000000331883

  **** Optimization is complete! (in 15 steps) ****
    Final optimized geometry and variables:
    Molecular point group: c1

    Geometry (in Angstrom), charge = 0, multiplicity = 1:

    O           -0.497876910839     1.741331819078    -1.475032690894
    C           -0.643374191173     0.886818225012    -0.667907565730
    C           -1.938804795671     0.720331720488     0.097555641036
    O            0.351404466727     0.032938271492    -0.430749174605
    H           -2.253869858810    -0.315166308498     0.142739729508
    H           -2.692337518290     1.309466018093    -0.402750345040
    H           -1.834384497591     1.087639918125     1.113019475221
    C            0.490373323706    -0.761894946005     0.744646988968
    C            1.817147889429    -0.386870522665     1.385847374229
    C            0.421881801829    -2.225820711105     0.339234552813
    H           -0.311583974081    -0.541063040762     1.435575414011
    H            1.831177848299     0.665238157774     1.646953823861
    H            1.980069251371    -0.968273216317     2.287741398225
    H            2.633480235457    -0.576066316879     0.698332220939
    H            0.548719823679    -2.867186335954     1.205314742914
    H           -0.533469317853    -2.456597913503    -0.119590157220
    H            1.203850707345    -2.452384404625    -0.376751546483

  Mulliken Charges: (a.u.)
   Center  Symbol    Alpha    Beta     Spin     Total
       1     O     4.26644  4.26644  0.00000 -0.53289
       2     C     2.61445  2.61445  0.00000  0.77110
       3     C     3.30974  3.30974  0.00000 -0.61949
       4     O     4.30822  4.30822  0.00000 -0.61644
       5     H     0.40534  0.40534  0.00000  0.18932
       6     H     0.38732  0.38732  0.00000  0.22536
       7     H     0.40130  0.40130  0.00000  0.19741
       8     C     2.93228  2.93228  0.00000  0.13545
       9     C     3.23710  3.23710  0.00000 -0.47420
      10     C     3.24123  3.24123  0.00000 -0.48245
      11     H     0.41663  0.41663  0.00000  0.16675
      12     H     0.41152  0.41152  0.00000  0.17697
      13     H     0.41946  0.41946  0.00000  0.16109
      14     H     0.40792  0.40792  0.00000  0.18416
      15     H     0.41812  0.41812  0.00000  0.16377
      16     H     0.41531  0.41531  0.00000  0.16939
      17     H     0.40763  0.40763  0.00000  0.18473

   Total alpha = 28.00000, Total beta = 28.00000, Total charge =  0.00000
