  ==> Input File <==

--------------------------------------------------------------------------
set {
	reference rhf
	basis cc-pvtz
}

set_num_threads( 4 )
memory 2 gb

molecule MOL {
0 1

O	 1.847685	 1.294399	 -0.000190
C	 1.704209	 0.119472	 -0.000093
C	 0.380337	 -0.600947	 -0.000234
O	 2.715427	 -0.733672	 0.000025
C	 -0.824290	 0.329213	 -0.000115
H	 0.371455	 -1.255476	 -0.865660
H	 0.371410	 -1.255787	 0.864952
C	 -2.146151	 -0.432825	 -0.000068
H	 -0.773936	 0.979158	 -0.866319
H	 -0.773838	 0.979034	 0.866186
C	 -3.366283	 0.483552	 0.000557
H	 -2.189286	 -1.084450	 -0.869996
H	 -2.188867	 -1.085083	 0.869399
C	 -3.479960	 1.330581	 -1.262388
H	 -3.324244	 1.134841	 0.869011
H	 -4.264586	 -0.116673	 0.114316
H	 -2.610814	 1.968187	 -1.385988
H	 -4.355417	 1.968717	 -1.229338
H	 -3.558991	 0.706785	 -2.146621
C	 4.020999	 -0.192556	 0.000019
H	 4.182809	 0.412891	 -0.879449
H	 4.692590	 -1.035653	 0.000152
H	 4.182726	 0.413087	 0.879368

	symmetry c1
}
set optking {
	frozen_dihedral = ("
		15 11 8 12
	")
}

ee = optimize('scf')
oeprop('DIPOLE', 'QUADRUPOLE', 'MULLIKEN_CHARGES')
f=open( 'psi4out.xyz', 'w' )
f.write( "23  " )
f.write( str(ee) + "\n" )
f.write( MOL.save_string_xyz() )
f.close()
--------------------------------------------------------------------------

    Molecular point group: c1
  Charge       = 0
  Multiplicity = 1
  Basis Set: CC-PVTZ
  Basis Set:
  @DF-RHF Final Energy:  -423.12888318831727
    Total Energy =                       -423.1288831883168768
    Molecular point group: c1
  Basis Set: CC-PVTZ
  Basis Set:
  Basis Set: CC-PVTZ
  Basis Set:
  @DF-RHF Final Energy:  -423.12917363269594
    Total Energy =                       -423.1291736326958244
  Basis Set: CC-PVTZ
  Basis Set:
  Basis Set: CC-PVTZ
  Basis Set:
  @DF-RHF Final Energy:  -423.12944728898646
    Total Energy =                       -423.1294472889862845
  Basis Set: CC-PVTZ
  Basis Set:
  Basis Set: CC-PVTZ
  Basis Set:
  @DF-RHF Final Energy:  -423.12945426085292
    Total Energy =                       -423.1294542608529810
  Basis Set: CC-PVTZ
  Basis Set:
  Basis Set: CC-PVTZ
  Basis Set:
  @DF-RHF Final Energy:  -423.12939253397235
    Total Energy =                       -423.1293925339721227
  Basis Set: CC-PVTZ
  Basis Set:
  Basis Set: CC-PVTZ
  Basis Set:
  @DF-RHF Final Energy:  -423.12945813374836
    Total Energy =                       -423.1294581337486989
  Basis Set: CC-PVTZ
  Basis Set:
  Charge       = 0
  Multiplicity = 1
  Basis Set: CC-PVTZ
  Basis Set:

    Orbital Energies (a.u.)
    -----------------------

    Doubly Occupied:

       1A    -20.596298     2A    -20.534119     3A    -11.364536
       4A    -11.278470     5A    -11.233707     6A    -11.216757
       7A    -11.216000     8A    -11.214839     9A    -11.206205
      10A     -1.472187    11A     -1.365749    12A     -1.094257
      13A     -1.043225    14A     -0.986274    15A     -0.931989
      16A     -0.855746    17A     -0.784716    18A     -0.768995
      19A     -0.698929    20A     -0.686516    21A     -0.676064
      22A     -0.644423    23A     -0.616049    24A     -0.598311
      25A     -0.589788    26A     -0.562576    27A     -0.535010
      28A     -0.528114    29A     -0.522548    30A     -0.514013
      31A     -0.491064    32A     -0.467222    33A     -0.463631
      34A     -0.461349    35A     -0.457384    36A     -0.438444

  @DF-RHF Final Energy:  -423.12945827647712

   => Energetics <=

    Nuclear Repulsion Energy =            457.6916362118011534
    One-Electron Energy =               -1483.4111840640293849
    Two-Electron Energy =                 602.5900895757513354
    DFT Exchange-Correlation Energy =       0.0000000000000000
    Empirical Dispersion Energy =           0.0000000000000000
    PCM Polarization Energy =               0.0000000000000000
    EFP Energy =                            0.0000000000000000
    Total Energy =                       -423.1294582764769530
    Molecular point group: c1
  Basis Set: CC-PVTZ
  Basis Set:

  -Total Gradient:
     Atom            X                  Y                   Z
    ------   -----------------  -----------------  -----------------
       1       -0.000000528126    -0.000001052312    -0.000000609231
       2        0.000000214409     0.000001744927     0.000023818823
       3        0.000001843081     0.000000082570    -0.000036427866
       4       -0.000000815469    -0.000001239319    -0.000014129845
       5       -0.000000432226    -0.000002343921     0.000017071176
       6       -0.000001385694    -0.000004629454     0.000010060992
       7        0.000001697184     0.000005373505     0.000009902133
       8       -0.000010663710    -0.000013541219     0.000005252826
       9        0.000000177157     0.000001339710    -0.000001967909
      10        0.000002691457    -0.000000475376    -0.000002845199
      11       -0.000008359419    -0.000011574351     0.000006990813
      12        0.000010530620     0.000011483304    -0.000010814792
      13       -0.000000043919     0.000000701286    -0.000000357481
      14       -0.000003705270    -0.000004624095     0.000004836810
      15        0.000011782957     0.000014842053    -0.000012580310
      16       -0.000003583439     0.000002428345    -0.000000300919
      17       -0.000000899138     0.000001481653     0.000001022802
      18       -0.000001618903    -0.000000303846    -0.000001804468
      19        0.000002536798     0.000000018829     0.000001212513
      20        0.000000506657     0.000000189059     0.000001289419
      21        0.000000000673    -0.000000126677     0.000000261853
      22        0.000000214053     0.000000119811    -0.000000002795
      23       -0.000000159734     0.000000105519     0.000000120659

  **** Optimization is complete! (in 7 steps) ****
    Final optimized geometry and variables:
    Molecular point group: c1

    Geometry (in Angstrom), charge = 0, multiplicity = 1:

    O            1.737041212398     1.100229649541     0.105494996642
    C            1.581429413075    -0.072617427361     0.143104688747
    C            0.250347915357    -0.779547503994     0.148424780476
    O            2.583812410485    -0.935095346749     0.185756230242
    C           -0.944359138839     0.162933648734     0.110093151677
    H            0.243847825475    -1.456350623744    -0.699829818482
    H            0.225727735232    -1.411354230575     1.030159417008
    C           -2.270699360580    -0.594299825735     0.109348560742
    H           -0.865249793164     0.793634748488    -0.765844113504
    H           -0.902435950885     0.827650094069     0.966017625285
    C           -3.511167570523     0.299611792339     0.149439932966
    H           -2.321166742733    -1.235458439074    -0.768149316750
    H           -2.296798425268    -1.257479619442     0.970059354191
    C           -3.717496928425     1.159031378364    -1.095406657641
    H           -3.461606469384     0.940386714985     1.025631645306
    H           -4.383635174397    -0.331936931496     0.285315838955
    H           -2.919249299250     1.878853108285    -1.228522778682
    H           -4.646881613552     1.712867674318    -1.028935067952
    H           -3.763192352645     0.544981465536    -1.989276904048
    C            3.894691920425    -0.407172385643     0.185110067830
    H            4.074383518845     0.166479916872    -0.712040806866
    H            4.557580799403    -1.256312896049     0.222797200642
    H            4.051125633874     0.226340311292     1.045592942234

  Mulliken Charges: (a.u.)
   Center  Symbol    Alpha    Beta     Spin     Total
       1     O     4.19721  4.19721  0.00000 -0.39443
       2     C     2.80619  2.80619  0.00000  0.38761
       3     C     3.10122  3.10122  0.00000 -0.20245
       4     O     4.14641  4.14641  0.00000 -0.29282
       5     C     3.08633  3.08633  0.00000 -0.17267
       6     H     0.44005  0.44005  0.00000  0.11989
       7     H     0.43934  0.43934  0.00000  0.12132
       8     C     3.09803  3.09803  0.00000 -0.19607
       9     H     0.44462  0.44462  0.00000  0.11076
      10     H     0.44635  0.44635  0.00000  0.10729
      11     C     3.08994  3.08994  0.00000 -0.17988
      12     H     0.45454  0.45454  0.00000  0.09093
      13     H     0.45015  0.45015  0.00000  0.09970
      14     C     3.15272  3.15272  0.00000 -0.30545
      15     H     0.45370  0.45370  0.00000  0.09260
      16     H     0.44834  0.44834  0.00000  0.10332
      17     H     0.45111  0.45111  0.00000  0.09779
      18     H     0.44638  0.44638  0.00000  0.10724
      19     H     0.45553  0.45553  0.00000  0.08893
      20     C     3.03776  3.03776  0.00000 -0.07551
      21     H     0.45434  0.45434  0.00000  0.09131
      22     H     0.44534  0.44534  0.00000  0.10931
      23     H     0.45437  0.45437  0.00000  0.09125

   Total alpha = 36.00000, Total beta = 36.00000, Total charge = -0.00000
