  ==> Input File <==

--------------------------------------------------------------------------
set {
	reference rhf
	basis 6-31G*
}

set_num_threads( 4 )
memory 2 gb

molecule MOL {
0 1

H	 -2.273092	 1.173159	 0.000295
O	 -1.438904	 1.618192	 0.000114
C	 -0.409536	 0.736003	 0.000030
C	 -0.077255	 0.168211	 1.220031
C	 0.289320	 0.405915	 -1.159100
H	 -0.641952	 0.450594	 2.089150
C	 0.961339	 -0.739980	 1.297613
C	 1.328807	 -0.509999	 -1.051602
C	 -0.074671	 1.026627	 -2.489226
H	 1.214150	 -1.176936	 2.247166
C	 1.671922	 -1.084956	 0.159175
H	 1.878542	 -0.775532	 -1.937959
H	 0.029398	 2.109633	 -2.474763
H	 0.571356	 0.654898	 -3.274365
H	 -1.097499	 0.795419	 -2.779680
H	 2.480900	 -1.790613	 0.212106

	symmetry c1
}
set optking {
	frozen_dihedral = ("
		4 3 2 1
	")
}

ee = optimize('scf')
oeprop('DIPOLE', 'QUADRUPOLE', 'MULLIKEN_CHARGES')
f=open( 'psi4out.xyz', 'w' )
f.write( "16  " )
f.write( str(ee) + "\n" )
f.write( MOL.save_string_xyz() )
f.close()
--------------------------------------------------------------------------

    Molecular point group: c1
  Charge       = 0
  Multiplicity = 1
  Basis Set: 6-31G*
  Basis Set:
  @DF-RHF Final Energy:  -344.58956882165620
    Total Energy =                       -344.5895688216562576
    Molecular point group: c1
  Basis Set: 6-31G*
  Basis Set:
  Basis Set: 6-31G*
  Basis Set:
  @DF-RHF Final Energy:  -344.59088048633498
    Total Energy =                       -344.5908804863349815
  Basis Set: 6-31G*
  Basis Set:
  Basis Set: 6-31G*
  Basis Set:
  @DF-RHF Final Energy:  -344.59096108052194
    Total Energy =                       -344.5909610805221064
  Basis Set: 6-31G*
  Basis Set:
  Basis Set: 6-31G*
  Basis Set:
  @DF-RHF Final Energy:  -344.59096894230163
    Total Energy =                       -344.5909689423015152
  Basis Set: 6-31G*
  Basis Set:
  Basis Set: 6-31G*
  Basis Set:
  @DF-RHF Final Energy:  -344.59097056038530
    Total Energy =                       -344.5909705603850171
  Basis Set: 6-31G*
  Basis Set:
  Charge       = 0
  Multiplicity = 1
  Basis Set: 6-31G*
  Basis Set:

    Orbital Energies (a.u.)
    -----------------------

    Doubly Occupied:

       1A    -20.575778     2A    -11.283087     3A    -11.233867
       4A    -11.229429     5A    -11.227979     6A    -11.225288
       7A    -11.225103     8A    -11.217088     9A     -1.390075
      10A     -1.148276    11A     -1.043784    12A     -1.002706
      13A     -0.931094    14A     -0.830079    15A     -0.802971
      16A     -0.724914    17A     -0.665102    18A     -0.654653
      19A     -0.620879    20A     -0.589759    21A     -0.570726
      22A     -0.563145    23A     -0.542586    24A     -0.516842
      25A     -0.499291    26A     -0.482139    27A     -0.461439
      28A     -0.328887    29A     -0.317100

  @DF-RHF Final Energy:  -344.59097091736612

   => Energetics <=

    Nuclear Repulsion Energy =            349.6218073405151472
    One-Electron Energy =               -1160.6174222119702790
    Two-Electron Energy =                 466.4046439540891242
    DFT Exchange-Correlation Energy =       0.0000000000000000
    Empirical Dispersion Energy =           0.0000000000000000
    PCM Polarization Energy =               0.0000000000000000
    EFP Energy =                            0.0000000000000000
    Total Energy =                       -344.5909709173660076
    Molecular point group: c1
  Basis Set: 6-31G*
  Basis Set:

  -Total Gradient:
     Atom            X                  Y                   Z
    ------   -----------------  -----------------  -----------------
       1        0.000025509653    -0.000034504505    -0.000675851483
       2        0.000071771481     0.000288037393     0.000884969938
       3       -0.000417210653    -0.000649729533    -0.000307803065
       4        0.000282654933     0.000412453419     0.000110690586
       5        0.000003347784     0.000004535788    -0.000002337293
       6        0.000007967722    -0.000004065311    -0.000015011735
       7        0.000031458276    -0.000021842632    -0.000006121020
       8       -0.000032566177     0.000029498862    -0.000015559203
       9       -0.000006591142    -0.000027385414     0.000010508714
      10        0.000003999496    -0.000010047071     0.000002301362
      11        0.000006906804     0.000000028730     0.000020896658
      12        0.000001751934    -0.000002306176    -0.000007856729
      13        0.000011988467     0.000007157590     0.000000513026
      14        0.000004860821     0.000001999847    -0.000011577325
      15        0.000008973364     0.000003512225     0.000011431292
      16       -0.000004822762     0.000002656785     0.000000806280

  **** Optimization is complete! (in 6 steps) ****
    Final optimized geometry and variables:
    Molecular point group: c1

    Geometry (in Angstrom), charge = 0, multiplicity = 1:

    H           -2.483472172333     0.964324717901     0.226986576415
    O           -1.639137410284     1.395406149966     0.221304592956
    C           -0.630725845983     0.465637513181     0.287947445587
    C           -0.292731784288    -0.090645842235     1.508003490128
    C            0.068383271030     0.143394079293    -0.871888325762
    H           -0.844190617068     0.201754415825     2.383526778286
    C            0.748249852990    -1.001487265237     1.590219286253
    C            1.111776031531    -0.766754878815    -0.766192354298
    C           -0.305799357734     0.774967363321    -2.190633224306
    H            1.008087157642    -1.434541366918     2.539513676541
    C            1.452456387441    -1.340849138727     0.449029432280
    H            1.666360166638    -1.030666703784    -1.649789458959
    H           -0.254131517566     1.856276875783    -2.134144787979
    H            0.358895810095     0.441174431052    -2.978729919726
    H           -1.320877217456     0.518621492406    -2.478236000227
    H            2.264794125372    -2.043368768177     0.501383935927

  Mulliken Charges: (a.u.)
   Center  Symbol    Alpha    Beta     Spin     Total
       1     H     0.27187  0.27187  0.00000  0.45627
       2     O     4.38806  4.38806  0.00000 -0.77611
       3     C     2.83452  2.83452  0.00000  0.33096
       4     C     3.11502  3.11502  0.00000 -0.23003
       5     C     2.99999  2.99999  0.00000  0.00003
       6     H     0.39608  0.39608  0.00000  0.20784
       7     C     3.10188  3.10188  0.00000 -0.20377
       8     C     3.11326  3.11326  0.00000 -0.22652
       9     C     3.24181  3.24181  0.00000 -0.48363
      10     H     0.39906  0.39906  0.00000  0.20188
      11     C     3.10048  3.10048  0.00000 -0.20096
      12     H     0.40093  0.40093  0.00000  0.19814
      13     H     0.40401  0.40401  0.00000  0.19197
      14     H     0.41666  0.41666  0.00000  0.16668
      15     H     0.41623  0.41623  0.00000  0.16754
      16     H     0.40015  0.40015  0.00000  0.19971

   Total alpha = 29.00000, Total beta = 29.00000, Total charge = -0.00000
