                              Psi4 1.0.54 Driver

  ==> Input File <==

--------------------------------------------------------------------------
set {
	reference rhf
	basis cc-pvtz
}

set_num_threads( 4 )
memory 2 gb

molecule MOL {
0 1

O	 -2.071633	 -1.227563	 -0.223463
C	 -1.652164	 -0.152425	 0.058082
C	 -0.327811	 0.006324	 0.778296
C	 -2.402515	 1.108629	 -0.298924
C	 0.067336	 -1.288388	 1.498715
H	 0.449925	 0.288683	 0.076495
H	 -0.441390	 0.804486	 1.500704
C	 1.388364	 -1.163724	 2.252089
H	 0.140917	 -2.101196	 0.780646
H	 -0.724066	 -1.556233	 2.190313
C	 1.779143	 -2.445082	 2.980495
H	 2.175957	 -0.889410	 1.555688
H	 1.315219	 -0.349575	 2.967177
H	 1.894334	 -3.270991	 2.286494
H	 1.024721	 -2.727296	 3.706836
H	 2.717802	 -2.323781	 3.508328
H	 -3.240910	 0.874416	 -0.936711
H	 -1.747554	 1.818823	 -0.790984
H	 -2.760419	 1.579708	 0.610998

	symmetry c1
}
set optking {
	frozen_dihedral = ("
		5 3 2 4
	")
}

ee,wfn = optimize('scf', return_wfn=True)
oeprop( wfn, 'DIPOLE', 'QUADRUPOLE', 'MULLIKEN_CHARGES')
f=open( 'psi4out.xyz', 'w' )
f.write( "19  " )
f.write( str(ee) + "\n" )
f.write( MOL.save_string_xyz() )
f.close()
--------------------------------------------------------------------------

    Molecular point group: c1
  Charge       = 0
  Multiplicity = 1
  Basis Set: CC-PVTZ
  Basis Set:
  @DF-RHF Final Energy:  -309.17754816441635
    Total Energy =                       -309.1775481644166916
    Molecular point group: c1
  Basis Set: CC-PVTZ
  Basis Set:
  Basis Set: CC-PVTZ
  Basis Set:
  @DF-RHF Final Energy:  -309.17804417493312
    Total Energy =                       -309.1780441749332340
  Basis Set: CC-PVTZ
  Basis Set:
  Basis Set: CC-PVTZ
  Basis Set:
  @DF-RHF Final Energy:  -309.17727665521812
    Total Energy =                       -309.1772766552178382
  Basis Set: CC-PVTZ
  Basis Set:
  Basis Set: CC-PVTZ
  Basis Set:
  @DF-RHF Final Energy:  -309.17866111562614
    Total Energy =                       -309.1786611156263689
  Basis Set: CC-PVTZ
  Basis Set:
  Basis Set: CC-PVTZ
  Basis Set:
  @DF-RHF Final Energy:  -309.17873168817027
    Total Energy =                       -309.1787316881701031
  Basis Set: CC-PVTZ
  Basis Set:
  Basis Set: CC-PVTZ
  Basis Set:
  @DF-RHF Final Energy:  -309.17871981010796
    Total Energy =                       -309.1787198101076797
  Basis Set: CC-PVTZ
  Basis Set:
  Basis Set: CC-PVTZ
  Basis Set:
  @DF-RHF Final Energy:  -309.17873628291102
    Total Energy =                       -309.1787362829110748
  Basis Set: CC-PVTZ
  Basis Set:
  Charge       = 0
  Multiplicity = 1
  Basis Set: CC-PVTZ
  Basis Set:

    Orbital Energies (a.u.)
    -----------------------

    Doubly Occupied:

       1A    -20.538397     2A    -11.320867     3A    -11.230408
       4A    -11.227128     5A    -11.218130     6A    -11.216298
       7A    -11.208576     8A     -1.398844     9A     -1.087550
      10A     -1.030905    11A     -0.984716    12A     -0.887357
      13A     -0.802287    14A     -0.732150    15A     -0.658944
      16A     -0.651948    17A     -0.628029    18A     -0.612741
      19A     -0.582599    20A     -0.571431    21A     -0.555517
      22A     -0.531304    23A     -0.513149    24A     -0.490551
      25A     -0.477014    26A     -0.474792    27A     -0.469594
      28A     -0.401731

  @DF-RHF Final Energy:  -309.17873719972971

   => Energetics <=

    Nuclear Repulsion Energy =            301.3457239570078059
    One-Electron Energy =               -1016.0430100377388953
    Two-Electron Energy =                 405.5185488810014363
    DFT Exchange-Correlation Energy =       0.0000000000000000
    Empirical Dispersion Energy =           0.0000000000000000
    PCM Polarization Energy =               0.0000000000000000
    EFP Energy =                            0.0000000000000000
    Total Energy =                       -309.1787371997297100
    Molecular point group: c1
  Basis Set: CC-PVTZ
  Basis Set:

  -Total Gradient:
     Atom            X                  Y                   Z
    ------   -----------------  -----------------  -----------------
       1        0.000048668908     0.000091801712     0.000026697170
       2        0.000373930295     0.000152183257    -0.000894521899
       3        0.000477092489    -0.000265586981    -0.000636513794
       4       -0.000497139756    -0.000190738762     0.000824219036
       5       -0.000456183480     0.000164975737     0.000685505738
       6        0.000003535784     0.000008592461     0.000000078842
       7        0.000017629555     0.000011899396    -0.000001884287
       8        0.000015370868    -0.000022911512     0.000014435166
       9        0.000008651689    -0.000005816964     0.000015804777
      10       -0.000000361490    -0.000008022798     0.000007587487
      11       -0.000016992019     0.000001789133    -0.000003728666
      12       -0.000008234249     0.000001312252    -0.000007365642
      13       -0.000006817141     0.000005926864    -0.000000912109
      14        0.000002065890     0.000000217669     0.000000752068
      15        0.000002475433    -0.000003937282     0.000002520397
      16        0.000003970372     0.000001698229     0.000003206413
      17        0.000002693219    -0.000001032784    -0.000014059427
      18        0.000021000580     0.000016951928    -0.000020608335
      19        0.000008643051     0.000040698446    -0.000001212934

  **** Optimization is complete! (in 8 steps) ****
    Final optimized geometry and variables:
    Molecular point group: c1

    Geometry (in Angstrom), charge = 0, multiplicity = 1:

    O           -1.596170281561    -0.447608058194    -1.364904603249
    C           -1.232368605698     0.594374331463    -0.927004648193
    C            0.048685098417     0.731445089196    -0.127850178495
    C           -2.029484904683     1.860572835979    -1.137775645028
    C            0.559729431264    -0.574847648154     0.465505964701
    H            0.788167360446     1.160001304881    -0.802411245341
    H           -0.103390297023     1.474985351077     0.649247586908
    C            1.866975334594    -0.401097725722     1.233304554766
    H            0.691442849430    -1.298996157923    -0.328890321973
    H           -0.198379218621    -0.986188184533     1.124780650142
    C            2.378007309025    -1.705374244657     1.835740864475
    H            2.623391703337     0.008603770232     0.568970770949
    H            1.729418082192     0.330751031445     2.025143553193
    H            2.558315810057    -2.446954955103     1.065046266416
    H            1.658288795532    -2.122690447085     2.531876878123
    H            3.307172284112    -1.552197560555     2.372405128107
    H           -2.812078456055     1.689216939983    -1.860876631155
    H           -1.388501181682     2.670607395778    -1.467259362836
    H           -2.471704788115     2.162912841751    -0.194029141056

  Mulliken Charges: (a.u.)
   Center  Symbol    Alpha    Beta     Spin     Total
       1     O     4.17206  4.17206  0.00000 -0.34413
       2     C     2.86130  2.86130  0.00000  0.27740
       3     C     3.11218  3.11218  0.00000 -0.22437
       4     C     3.15220  3.15220  0.00000 -0.30441
       5     C     3.08229  3.08229  0.00000 -0.16458
       6     H     0.44424  0.44424  0.00000  0.11153
       7     H     0.44573  0.44573  0.00000  0.10854
       8     C     3.08497  3.08497  0.00000 -0.16993
       9     H     0.44176  0.44176  0.00000  0.11648
      10     H     0.45083  0.45083  0.00000  0.09834
      11     C     3.14952  3.14952  0.00000 -0.29904
      12     H     0.45512  0.45512  0.00000  0.08976
      13     H     0.45614  0.45614  0.00000  0.08771
      14     H     0.45333  0.45333  0.00000  0.09334
      15     H     0.45434  0.45434  0.00000  0.09133
      16     H     0.44865  0.44865  0.00000  0.10269
      17     H     0.43590  0.43590  0.00000  0.12820
      18     H     0.45061  0.45061  0.00000  0.09879
      19     H     0.44882  0.44882  0.00000  0.10235

   Total alpha = 28.00000, Total beta = 28.00000, Total charge = -0.00000

*** Psi4 exiting successfully. Buy a developer a beer!
