  ==> Input File <==

--------------------------------------------------------------------------
set {
	reference rhf
	basis 6-31G*
}

set_num_threads( 4 )
memory 2 gb

molecule MOL {
0 1

H	 2.451652	 -2.178703	 -0.543297
O	 2.773837	 -1.297590	 -0.410870
C	 1.759943	 -0.431505	 -0.213148
C	 2.091892	 0.903503	 -0.004572
C	 0.435585	 -0.824197	 -0.212221
H	 3.128404	 1.183633	 -0.009892
C	 1.098842	 1.838143	 0.203668
H	 0.151270	 -1.845815	 -0.370297
C	 -0.536158	 0.140425	 0.000000
H	 1.364064	 2.866660	 0.363878
C	 -0.239507	 1.468500	 0.209198
N	 -1.935604	 -0.280333	 0.000000
H	 -1.021001	 2.181958	 0.369348
O	 -2.161694	 -1.452901	 0.000000
O	 -2.770341	 0.571417	 0.000000

	symmetry c1
}
set optking {
	frozen_dihedral = ("
		11 9 12 14
	")
}

ee = optimize('scf')
oeprop('DIPOLE', 'QUADRUPOLE', 'MULLIKEN_CHARGES')
f=open( 'psi4out.xyz', 'w' )
f.write( "15  " )
f.write( str(ee) + "\n" )
f.write( MOL.save_string_xyz() )
f.close()
--------------------------------------------------------------------------

    Molecular point group: c1
  Charge       = 0
  Multiplicity = 1
  Basis Set: 6-31G*
  Basis Set:
  @DF-RHF Final Energy:  -509.02760162448357
    Total Energy =                       -509.0276016244838502
    Molecular point group: c1
  Basis Set: 6-31G*
  Basis Set:
  Basis Set: 6-31G*
  Basis Set:
  @DF-RHF Final Energy:  -509.02643401188050
    Total Energy =                       -509.0264340118801556
  Basis Set: 6-31G*
  Basis Set:
  Basis Set: 6-31G*
  Basis Set:
  @DF-RHF Final Energy:  -509.02760725550263
    Total Energy =                       -509.0276072555026303
  Basis Set: 6-31G*
  Basis Set:
  Basis Set: 6-31G*
  Basis Set:
  @DF-RHF Final Energy:  -509.02761704791220
    Total Energy =                       -509.0276170479120310
  Basis Set: 6-31G*
  Basis Set:
  Charge       = 0
  Multiplicity = 1
  Basis Set: 6-31G*
  Basis Set:

    Orbital Energies (a.u.)
    -----------------------

    Doubly Occupied:

       1A    -20.615861     2A    -20.605328     3A    -20.604789
       4A    -15.859480     5A    -11.330681     6A    -11.311292
       7A    -11.267359     8A    -11.266911     9A    -11.263740
      10A    -11.260656    11A     -1.638357    12A     -1.436575
      13A     -1.421718    14A     -1.200663    15A     -1.095130
      16A     -1.046588    17A     -0.966233    18A     -0.878908
      19A     -0.828668    20A     -0.791062    21A     -0.752629
      22A     -0.736940    23A     -0.723735    24A     -0.708069
      25A     -0.673095    26A     -0.635226    27A     -0.615967
      28A     -0.594652    29A     -0.558868    30A     -0.545252
      31A     -0.515941    32A     -0.492178    33A     -0.490167
      34A     -0.454875    35A     -0.377330    36A     -0.342980

  @DF-RHF Final Energy:  -509.02761710671223

   => Energetics <=

    Nuclear Repulsion Energy =            503.4935865502956176
    One-Electron Energy =               -1693.2265946158424867
    Two-Electron Energy =                 680.7053909588350962
    DFT Exchange-Correlation Energy =       0.0000000000000000
    Empirical Dispersion Energy =           0.0000000000000000
    PCM Polarization Energy =               0.0000000000000000
    EFP Energy =                            0.0000000000000000
    Total Energy =                       -509.0276171067118867
    Molecular point group: c1
  Basis Set: 6-31G*
  Basis Set:

  -Total Gradient:
     Atom            X                  Y                   Z
    ------   -----------------  -----------------  -----------------
       1        0.000000729690     0.000000427071    -0.000009570656
       2        0.000000752837    -0.000006712710     0.000021468108
       3       -0.000001969137     0.000005485758    -0.000017793208
       4        0.000000517044     0.000000972551    -0.000015122470
       5       -0.000012441391     0.000002548358     0.000000337704
       6       -0.000001167106    -0.000000914413     0.000002703017
       7       -0.000002036250    -0.000000824436     0.000015219384
       8       -0.000003381151    -0.000004835109    -0.000000439289
       9       -0.000064766016     0.000172879220    -0.000764241286
      10       -0.000000603936     0.000000471421    -0.000002230434
      11        0.000043555540    -0.000120125468     0.000764688056
      12       -0.000022996143    -0.000058496240    -0.000884026318
      13        0.000004360284    -0.000002441321    -0.000000293000
      14        0.000055220206    -0.000015941921     0.000892323430
      15        0.000004225524     0.000027507239    -0.000003023038

  **** Optimization is complete! (in 5 steps) ****
    Final optimized geometry and variables:
    Molecular point group: c1

    Geometry (in Angstrom), charge = 0, multiplicity = 1:

    H            2.452882774344    -2.183545360186    -0.490653123792
    O            2.774574273653    -1.301587080402    -0.362905221439
    C            1.760678248112    -0.435751374871    -0.164469552458
    C            2.092629196444     0.898906095648     0.046423555766
    C            0.436338888540    -0.828533280145    -0.163225729570
    H            3.129325737917     1.178630086610     0.043716812606
    C            1.099693996248     1.833518088767     0.255071352213
    H            0.152033150024    -1.851184292530    -0.315427737683
    C           -0.535207776670     0.137238336051     0.043074639508
    H            1.365245221420     2.861192322677     0.420090513568
    C           -0.239064642806     1.464889440810     0.254709922920
    N           -1.933792763677    -0.284490299824     0.049789670608
    H           -1.021011379896     2.178703994579     0.411417400775
    O           -2.158202528272    -1.457373471623     0.047455231208
    O           -2.768794082554     0.566991740831     0.063751014841

  Mulliken Charges: (a.u.)
   Center  Symbol    Alpha    Beta     Spin     Total
       1     H     0.26727  0.26727  0.00000  0.46547
       2     O     4.37571  4.37571  0.00000 -0.75141
       3     C     2.79162  2.79162  0.00000  0.41676
       4     C     3.10865  3.10865  0.00000 -0.21729
       5     C     3.13696  3.13696  0.00000 -0.27391
       6     H     0.38090  0.38090  0.00000  0.23821
       7     C     3.10055  3.10055  0.00000 -0.20110
       8     H     0.36841  0.36841  0.00000  0.26318
       9     C     2.91235  2.91235  0.00000  0.17530
      10     H     0.38656  0.38656  0.00000  0.22688
      11     C     3.09791  3.09791  0.00000 -0.19582
      12     N     3.24174  3.24174  0.00000  0.51652
      13     H     0.36563  0.36563  0.00000  0.26875
      14     O     4.23479  4.23479  0.00000 -0.46958
      15     O     4.23097  4.23097  0.00000 -0.46194

   Total alpha = 36.00000, Total beta = 36.00000, Total charge = -0.00000
