  ==> Input File <==

--------------------------------------------------------------------------
set {
	reference rhf
	basis cc-pvtz
}

set_num_threads( 4 )
memory 2 gb

molecule MOL {
0 1

H	 -0.000105	 1.988529	 0.748933
O	 -0.000098	 1.879786	 -0.188206
C	 -0.000014	 0.545691	 -0.532416
C	 -1.286000	 -0.125171	 -0.046657
C	 1.286016	 -0.125031	 -0.046584
H	 0.000021	 0.481103	 -1.610604
F	 -1.628582	 -1.067154	 -0.890556
F	 -1.145799	 -0.674243	 1.133417
F	 -2.280024	 0.734634	 0.016801
F	 2.317750	 0.468717	 -0.594166
F	 1.336617	 -1.393765	 -0.365123
F	 1.414467	 -0.024806	 1.259108

	symmetry c1
}
set optking {
	frozen_dihedral = ("
		7 4 3 6
	")
}

ee = optimize('scf')
oeprop('DIPOLE', 'QUADRUPOLE', 'MULLIKEN_CHARGES')
f=open( 'psi4out.xyz', 'w' )
f.write( "12  " )
f.write( str(ee) + "\n" )
f.write( MOL.save_string_xyz() )
f.close()
--------------------------------------------------------------------------

    Molecular point group: c1
  Charge       = 0
  Multiplicity = 1
  Basis Set: CC-PVTZ
  Basis Set:
  @DF-RHF Final Energy:  -786.58516224770847
    Total Energy =                       -786.5851622477086948
    Molecular point group: c1
  Basis Set: CC-PVTZ
  Basis Set:
  Basis Set: CC-PVTZ
  Basis Set:
  @DF-RHF Final Energy:  -786.58647955408981
    Total Energy =                       -786.5864795540893510
  Basis Set: CC-PVTZ
  Basis Set:
  Basis Set: CC-PVTZ
  Basis Set:
  @DF-RHF Final Energy:  -786.58681086078548
    Total Energy =                       -786.5868108607855902
  Basis Set: CC-PVTZ
  Basis Set:
  Basis Set: CC-PVTZ
  Basis Set:
  @DF-RHF Final Energy:  -786.58687429229724
    Total Energy =                       -786.5868742922968977
  Basis Set: CC-PVTZ
  Basis Set:
  Basis Set: CC-PVTZ
  Basis Set:
  @DF-RHF Final Energy:  -786.58689456200102
    Total Energy =                       -786.5868945620013619
  Basis Set: CC-PVTZ
  Basis Set:
  Basis Set: CC-PVTZ
  Basis Set:
  @DF-RHF Final Energy:  -786.58690356638556
    Total Energy =                       -786.5869035663861268
  Basis Set: CC-PVTZ
  Basis Set:
  Basis Set: CC-PVTZ
  Basis Set:
  @DF-RHF Final Energy:  -786.58690492092626
    Total Energy =                       -786.5869049209267132
  Basis Set: CC-PVTZ
  Basis Set:
  Charge       = 0
  Multiplicity = 1
  Basis Set: CC-PVTZ
  Basis Set:

    Orbital Energies (a.u.)
    -----------------------

    Doubly Occupied:

       1A    -26.358600     2A    -26.358388     3A    -26.357264
       4A    -26.354846     5A    -26.354311     6A    -26.352551
       7A    -20.610818     8A    -11.519372     9A    -11.518989
      10A    -11.351477    11A     -1.771728    12A     -1.765591
      13A     -1.666589    14A     -1.664545    15A     -1.661926
      16A     -1.659857    17A     -1.440785    18A     -1.103288
      19A     -1.000449    20A     -0.944410    21A     -0.870765
      22A     -0.868273    23A     -0.858062    24A     -0.852906
      25A     -0.839468    26A     -0.820486    27A     -0.744538
      28A     -0.735304    29A     -0.733697    30A     -0.728222
      31A     -0.695742    32A     -0.691992    33A     -0.690148
      34A     -0.681972    35A     -0.676663    36A     -0.667024
      37A     -0.664673    38A     -0.657753    39A     -0.623708
      40A     -0.552274    41A     -0.509873

  @DF-RHF Final Energy:  -786.58690557973785

   => Energetics <=

    Nuclear Repulsion Energy =            671.2636044076767803
    One-Electron Energy =               -2429.7423612758625495
    Two-Electron Energy =                 971.8918512884481515
    DFT Exchange-Correlation Energy =       0.0000000000000000
    Empirical Dispersion Energy =           0.0000000000000000
    PCM Polarization Energy =               0.0000000000000000
    EFP Energy =                            0.0000000000000000
    Total Energy =                       -786.5869055797377314
    Molecular point group: c1
  Basis Set: CC-PVTZ
  Basis Set:

  -Total Gradient:
     Atom            X                  Y                   Z
    ------   -----------------  -----------------  -----------------
       1       -0.000019168032    -0.000000669363     0.000002957089
       2        0.000036321178    -0.000009461473     0.000003117635
       3       -0.003486070631     0.005414092834    -0.000954006591
       4        0.003307746522    -0.004009157939     0.002651769198
       5        0.000013280544     0.000033534416     0.000054495670
       6        0.002336371716    -0.003919007892     0.000233926811
       7       -0.002173227310     0.002507896117    -0.001991233415
       8        0.000006744060     0.000009226781     0.000027458023
       9        0.000016479403    -0.000011329026     0.000001391522
      10        0.000027002885     0.000024391893    -0.000005956198
      11       -0.000005464944    -0.000009642400    -0.000024432829
      12       -0.000060015390    -0.000029873948     0.000000513089

  **** Optimization is complete! (in 8 steps) ****
    Final optimized geometry and variables:
    Molecular point group: c1

    Geometry (in Angstrom), charge = 0, multiplicity = 1:

    H            0.043360086966     2.013734997871     0.815754637000
    O            0.008436134565     1.923845482039    -0.122458100389
    C           -0.003072165071     0.603332568402    -0.501152571408
    C           -1.275813857036    -0.139636903691    -0.054961888047
    C            1.274448473696    -0.097422549923    -0.035068522404
    H            0.018033335855     0.551110309535    -1.579176791128
    F           -1.572436010132    -1.090338062066    -0.909158590048
    F           -1.164803598298    -0.676517690888     1.138474528895
    F           -2.289556684209     0.689115923662    -0.020953341539
    F            2.307419811259     0.394981374543    -0.673653132480
    F            1.230188830870    -1.386624445681    -0.268726121759
    F            1.481631304971     0.082271854151     1.251023190777

  Mulliken Charges: (a.u.)
   Center  Symbol    Alpha    Beta     Spin     Total
       1     H     0.38340  0.38340  0.00000  0.23319
       2     O     4.18425  4.18425  0.00000 -0.36850
       3     C     3.01022  3.01022  0.00000 -0.02045
       4     C     2.68100  2.68100  0.00000  0.63800
       5     C     2.68117  2.68117  0.00000  0.63766
       6     H     0.42740  0.42740  0.00000  0.14520
       7     F     4.60633  4.60633  0.00000 -0.21267
       8     F     4.60639  4.60639  0.00000 -0.21277
       9     F     4.60147  4.60147  0.00000 -0.20293
      10     F     4.60248  4.60248  0.00000 -0.20497
      11     F     4.60495  4.60495  0.00000 -0.20990
      12     F     4.61093  4.61093  0.00000 -0.22185

   Total alpha = 41.00000, Total beta = 41.00000, Total charge = -0.00000
