  ==> Input File <==

--------------------------------------------------------------------------
set {
	reference rhf
	basis 6-31G*
}

set_num_threads( 4 )
memory 2 gb

molecule MOL {
0 1

H	 2.176868	 -0.646004	 -0.217325
O	 1.337496	 -0.537251	 0.205931
C	 0.702312	 0.627605	 -0.264544
C	 -0.714990	 0.596302	 0.266387
H	 0.682322	 0.642550	 -1.350929
H	 1.215941	 1.520383	 0.085680
O	 -1.405996	 -0.526611	 -0.195820
H	 -1.257453	 1.468809	 -0.075599
H	 -0.688972	 0.618407	 1.353696
H	 -1.697214	 -0.342803	 -1.079799

	symmetry c1
}
set optking {
	frozen_dihedral = ("
		10 7 4 3
	")
}

ee = optimize('scf')
oeprop('DIPOLE', 'QUADRUPOLE', 'MULLIKEN_CHARGES')
f=open( 'psi4out.xyz', 'w' )
f.write( "10  " )
f.write( str(ee) + "\n" )
f.write( MOL.save_string_xyz() )
f.close()
--------------------------------------------------------------------------

    Molecular point group: c1
  Charge       = 0
  Multiplicity = 1
  Basis Set: 6-31G*
  Basis Set:
  @DF-RHF Final Energy:  -228.91606930303774
    Total Energy =                       -228.9160693030376876
    Molecular point group: c1
  Basis Set: 6-31G*
  Basis Set:
  Basis Set: 6-31G*
  Basis Set:
  @DF-RHF Final Energy:  -228.91820040858531
    Total Energy =                       -228.9182004085853350
  Basis Set: 6-31G*
  Basis Set:
  Basis Set: 6-31G*
  Basis Set:
  @DF-RHF Final Energy:  -228.91842588702275
    Total Energy =                       -228.9184258870226074
  Basis Set: 6-31G*
  Basis Set:
  Basis Set: 6-31G*
  Basis Set:
  @DF-RHF Final Energy:  -228.91844851042356
    Total Energy =                       -228.9184485104236160
  Basis Set: 6-31G*
  Basis Set:
  Charge       = 0
  Multiplicity = 1
  Basis Set: 6-31G*
  Basis Set:

    Orbital Energies (a.u.)
    -----------------------

    Doubly Occupied:

       1A    -20.555828     2A    -20.553320     3A    -11.273502
       4A    -11.270373     5A     -1.373082     6A     -1.352695
       7A     -1.001537     8A     -0.841961     9A     -0.720777
      10A     -0.677547    11A     -0.653225    12A     -0.596007
      13A     -0.570548    14A     -0.530705    15A     -0.484620
      16A     -0.443446    17A     -0.433940

  @DF-RHF Final Energy:  -228.91844941980446

   => Energetics <=

    Nuclear Repulsion Energy =            133.2197092438783557
    One-Electron Energy =                -577.6100875617701149
    Two-Electron Energy =                 215.4719288980873557
    DFT Exchange-Correlation Energy =       0.0000000000000000
    Empirical Dispersion Energy =           0.0000000000000000
    PCM Polarization Energy =               0.0000000000000000
    EFP Energy =                            0.0000000000000000
    Total Energy =                       -228.9184494198044035
    Molecular point group: c1
  Basis Set: 6-31G*
  Basis Set:

  -Total Gradient:
     Atom            X                  Y                   Z
    ------   -----------------  -----------------  -----------------
       1       -0.000017232494     0.000003129329     0.000001749849
       2        0.000009351908    -0.000027480396    -0.000003107833
       3        0.000274159461    -0.000453373623     0.000732699833
       4       -0.000636607140     0.000751861066    -0.000880587965
       5       -0.000024993379    -0.000001304507     0.000017365181
       6        0.000002023597     0.000031946997    -0.000007665645
       7        0.001476669250    -0.000906430052    -0.000381059870
       8        0.000020470609     0.000040700736     0.000008852331
       9        0.000042281780     0.000027880205     0.000003987696
      10       -0.001146123588     0.000533070247     0.000507766424

  **** Optimization is complete! (in 5 steps) ****
    Final optimized geometry and variables:
    Molecular point group: c1

    Geometry (in Angstrom), charge = 0, multiplicity = 1:

    H            2.265899764892    -0.588162161181    -0.121460720070
    O            1.403675969544    -0.531071106565     0.264409373438
    C            0.721353849588     0.570679376800    -0.261250877473
    C           -0.698827672161     0.564429052999     0.268559095010
    H            0.703878599864     0.538149816882    -1.350710200626
    H            1.201063072733     1.504188789579     0.033031845341
    O           -1.456100415895    -0.516382750032    -0.197882702064
    H           -1.174343574568     1.512886373003     0.023564416590
    H           -0.666341325605     0.477043887188     1.346275140847
    H           -1.766357865753    -0.335795493773    -1.073544728208

  Mulliken Charges: (a.u.)
   Center  Symbol    Alpha    Beta     Spin     Total
       1     H     0.27985  0.27985  0.00000  0.44031
       2     O     4.36270  4.36270  0.00000 -0.72541
       3     C     3.00143  3.00143  0.00000 -0.00286
       4     C     3.00304  3.00304  0.00000 -0.00608
       5     H     0.43599  0.43599  0.00000  0.12802
       6     H     0.43264  0.43264  0.00000  0.13473
       7     O     4.36279  4.36279  0.00000 -0.72558
       8     H     0.43160  0.43160  0.00000  0.13680
       9     H     0.40703  0.40703  0.00000  0.18595
      10     H     0.28294  0.28294  0.00000  0.43411

   Total alpha = 17.00000, Total beta = 17.00000, Total charge =  0.00000
