  ==> Input File <==

--------------------------------------------------------------------------
set {
	reference rhf
	basis 6-31G*
}

set_num_threads( 1 )
memory 2 gb

molecule MOL {
0 1

O	 0.608139	 1.330448	 -0.223749
C	 0.486307	 0.169203	 0.000779
C	 1.608116	 -0.841643	 0.000302
O	 -0.676043	 -0.401606	 0.284901
C	 2.990107	 -0.200498	 -0.000684
H	 1.468623	 -1.481519	 -0.865924
H	 1.469683	 -1.481289	 0.866878
H	 3.129736	 0.423364	 -0.875135
H	 3.757882	 -0.966877	 -0.001197
H	 3.130964	 0.423383	 0.873533
C	 -1.828269	 0.434190	 0.319849
C	 -3.014825	 -0.442680	 0.659695
H	 -1.946847	 0.911527	 -0.643309
H	 -1.679260	 1.209425	 1.059036
H	 -3.147266	 -1.217209	 -0.087113
H	 -3.918624	 0.156836	 0.696794
H	 -2.878342	 -0.917690	 1.624575

	symmetry c1
}
set optking {
	frozen_dihedral = ("
		2 4 11 13,
		11 4 2 3
	")
}

ee = energy('scf')
oeprop('DIPOLE', 'QUADRUPOLE', 'MULLIKEN_CHARGES')
f=open( 'psi4out.xyz', 'w' )
f.write( "17  " )
f.write( str(ee) + "\n" )
f.write( MOL.save_string_xyz() )
f.close()
--------------------------------------------------------------------------

    Molecular point group: c1

    Geometry (in Angstrom), charge = 0, multiplicity = 1:

       Center              X                  Y                   Z               Mass
    ------------   -----------------  -----------------  -----------------  -----------------
           O          0.596452074479     1.317549182730    -0.374690144871    15.994914619560
           C          0.474620074479     0.156304182730    -0.150162144871    12.000000000000
           C          1.596429074479    -0.854541817270    -0.150639144871    12.000000000000
           O         -0.687729925521    -0.414504817270     0.133959855129    15.994914619560
           C          2.978420074479    -0.213396817270    -0.151625144871    12.000000000000
           H          1.456936074479    -1.494417817270    -1.016865144871     1.007825032070
           H          1.457996074479    -1.494187817270     0.715936855129     1.007825032070
           H          3.118049074479     0.410465182730    -1.026076144871     1.007825032070
           H          3.746195074479    -0.979775817270    -0.152138144871     1.007825032070
           H          3.119277074479     0.410484182730     0.722591855129     1.007825032070
           C         -1.839955925521     0.421291182730     0.168907855129    12.000000000000
           C         -3.026511925521    -0.455578817270     0.508753855129    12.000000000000
           H         -1.958533925521     0.898628182730    -0.794250144871     1.007825032070
           H         -1.690946925521     1.196526182730     0.908094855129     1.007825032070
           H         -3.158952925521    -1.230107817270    -0.238054144871     1.007825032070
           H         -3.930310925521     0.143937182730     0.545852855129     1.007825032070
           H         -2.890028925521    -0.930588817270     1.473633855129     1.007825032070

  Charge       = 0
  Multiplicity = 1
  Basis Set: 6-31G*
  Basis Set:

    Orbital Energies (a.u.)
    -----------------------

    Doubly Occupied:

       1A    -20.601098     2A    -20.544096     3A    -11.371266
       4A    -11.284769     5A    -11.237396     6A    -11.222341
       7A    -11.216234     8A     -1.467564     9A     -1.361841
      10A     -1.070082    11A     -1.031845    12A     -0.910781
      13A     -0.847523    14A     -0.772993    15A     -0.695316
      16A     -0.689484    17A     -0.664476    18A     -0.629123
      19A     -0.582944    20A     -0.572485    21A     -0.558210
      22A     -0.523945    23A     -0.520835    24A     -0.513242
      25A     -0.504617    26A     -0.492281    27A     -0.452611
      28A     -0.435814

  @DF-RHF Final Energy:  -344.91177429086849

   => Energetics <=

    Nuclear Repulsion Energy =            314.6956206400943756
    One-Electron Energy =               -1093.6644597401143528
    Two-Electron Energy =                 434.0570648091514840
    DFT Exchange-Correlation Energy =       0.0000000000000000
    Empirical Dispersion Energy =           0.0000000000000000
    PCM Polarization Energy =               0.0000000000000000
    EFP Energy =                            0.0000000000000000
    Total Energy =                       -344.9117742908684932

  Mulliken Charges: (a.u.)
   Center  Symbol    Alpha    Beta     Spin     Total
       1     O     4.28637  4.28637  0.00000 -0.57274
       2     C     2.60525  2.60525  0.00000  0.78950
       3     C     3.20552  3.20552  0.00000 -0.41104
       4     O     4.31314  4.31314  0.00000 -0.62627
       5     C     3.23949  3.23949  0.00000 -0.47899
       6     H     0.39998  0.39998  0.00000  0.20005
       7     H     0.40136  0.40136  0.00000  0.19728
       8     H     0.40743  0.40743  0.00000  0.18513
       9     H     0.41789  0.41789  0.00000  0.16422
      10     H     0.41228  0.41228  0.00000  0.17544
      11     C     3.00226  3.00226  0.00000 -0.00453
      12     C     3.24843  3.24843  0.00000 -0.49687
      13     H     0.41032  0.41032  0.00000  0.17935
      14     H     0.41023  0.41023  0.00000  0.17954
      15     H     0.41185  0.41185  0.00000  0.17631
      16     H     0.41629  0.41629  0.00000  0.16742
      17     H     0.41190  0.41190  0.00000  0.17619

   Total alpha = 28.00000, Total beta = 28.00000, Total charge = -0.00000
