  ==> Input File <==

--------------------------------------------------------------------------
set {
	reference rhf
	basis 6-31G*
}

set_num_threads( 4 )
memory 2 gb

molecule MOL {
0 1

H	 -3.420663	 1.227371	 -1.044276
O	 -3.452007	 0.283848	 -0.965577
C	 -3.181085	 -0.079926	 0.364119
C	 -1.765924	 0.277073	 0.805136
H	 -3.327791	 -1.152017	 0.410903
H	 -3.905698	 0.375695	 1.036898
C	 -0.677594	 -0.417312	 -0.014550
H	 -1.637766	 1.358238	 0.744969
H	 -1.659588	 0.017670	 1.857098
C	 0.738335	 -0.034840	 0.421385
H	 -0.814977	 -0.178223	 -1.064632
H	 -0.802730	 -1.495410	 0.071702
C	 1.482534	 0.786938	 -0.634519
H	 0.683038	 0.521463	 1.354063
H	 1.307022	 -0.938307	 0.638057
C	 2.936802	 1.119253	 -0.281209
H	 0.938408	 1.711794	 -0.819624
H	 1.472790	 0.237300	 -1.573465
C	 3.102263	 2.049466	 0.922008
H	 3.403838	 1.583234	 -1.146593
H	 3.483256	 0.195541	 -0.101356
H	 2.555573	 2.977295	 0.775706
H	 4.147206	 2.303088	 1.072366
H	 2.743297	 1.595093	 1.839533

	symmetry c1
}
set optking {
	frozen_dihedral = ("
		13 10 7 11
	")
}

ee = optimize('scf')
oeprop('DIPOLE', 'QUADRUPOLE', 'MULLIKEN_CHARGES')
f=open( 'psi4out.xyz', 'w' )
f.write( "24  " )
f.write( str(ee) + "\n" )
f.write( MOL.save_string_xyz() )
f.close()
--------------------------------------------------------------------------

    Molecular point group: c1
  Charge       = 0
  Multiplicity = 1
  Basis Set: 6-31G*
  Basis Set:
  @DF-RHF Final Energy:  -349.24207939101683
    Total Energy =                       -349.2420793910173415
    Molecular point group: c1
  Basis Set: 6-31G*
  Basis Set:
  Basis Set: 6-31G*
  Basis Set:
  @DF-RHF Final Energy:  -349.24231363411906
    Total Energy =                       -349.2423136341191139
  Basis Set: 6-31G*
  Basis Set:
  Basis Set: 6-31G*
  Basis Set:
  @DF-RHF Final Energy:  -349.24236334366310
    Total Energy =                       -349.2423633436633281
  Basis Set: 6-31G*
  Basis Set:
  Basis Set: 6-31G*
  Basis Set:
  @DF-RHF Final Energy:  -349.24240920337428
    Total Energy =                       -349.2424092033745069
  Basis Set: 6-31G*
  Basis Set:
  Basis Set: 6-31G*
  Basis Set:
  @DF-RHF Final Energy:  -349.24241418562974
    Total Energy =                       -349.2424141856295705
  Basis Set: 6-31G*
  Basis Set:
  Basis Set: 6-31G*
  Basis Set:
  @DF-RHF Final Energy:  -349.24241938276401
    Total Energy =                       -349.2424193827636714
  Basis Set: 6-31G*
  Basis Set:
  Charge       = 0
  Multiplicity = 1
  Basis Set: 6-31G*
  Basis Set:

    Orbital Energies (a.u.)
    -----------------------

    Doubly Occupied:

       1A    -20.553677     2A    -11.267456     3A    -11.217643
       4A    -11.214381     5A    -11.212810     6A    -11.211892
       7A    -11.210745     8A    -11.208127     9A     -1.360174
      10A     -1.087251    11A     -1.047735    12A     -0.984605
      13A     -0.914946    14A     -0.851426    15A     -0.803123
      16A     -0.776085    17A     -0.679870    18A     -0.640974
      19A     -0.632525    20A     -0.615421    21A     -0.601337
      22A     -0.587480    23A     -0.558061    24A     -0.539657
      25A     -0.517092    26A     -0.509849    27A     -0.496733
      28A     -0.477941    29A     -0.466093    30A     -0.459618
      31A     -0.452450    32A     -0.447220    33A     -0.418912

  @DF-RHF Final Energy:  -349.24241980435966

   => Energetics <=

    Nuclear Repulsion Energy =            387.4820766950612096
    One-Electron Energy =               -1241.4023668424611060
    Two-Electron Energy =                 504.6778703430398991
    DFT Exchange-Correlation Energy =       0.0000000000000000
    Empirical Dispersion Energy =           0.0000000000000000
    PCM Polarization Energy =               0.0000000000000000
    EFP Energy =                            0.0000000000000000
    Total Energy =                       -349.2424198043599972
    Molecular point group: c1
  Basis Set: 6-31G*
  Basis Set:

  -Total Gradient:
     Atom            X                  Y                   Z
    ------   -----------------  -----------------  -----------------
       1       -0.000000665379     0.000003575525    -0.000006950734
       2       -0.000002995156     0.000021345477     0.000003041836
       3        0.000013068888    -0.000030029481    -0.000014749212
       4       -0.000010246806     0.000019267542    -0.000003245192
       5        0.000002939102    -0.000006181581     0.000012667807
       6        0.000014662262     0.000004267222     0.000000663413
       7        0.000810140502    -0.002341099895    -0.000761776595
       8        0.000003842940     0.000009106845     0.000007700621
       9       -0.000008073784    -0.000007092788    -0.000003692231
      10       -0.000706254021     0.001820961373     0.000841556827
      11       -0.000541767050     0.001529400511     0.000459989920
      12       -0.000005842277    -0.000005774891    -0.000014459987
      13        0.000433695243    -0.001016281686    -0.000522192230
      14        0.000011392091    -0.000000564027    -0.000001918456
      15       -0.000007456631     0.000002920471     0.000003506424
      16       -0.000003273010    -0.000022065717     0.000002883884
      17       -0.000003862392     0.000002906941     0.000004025555
      18        0.000009812879     0.000006497635    -0.000006950557
      19       -0.000001042677     0.000011631968     0.000005613849
      20       -0.000017292723    -0.000009628703    -0.000005465729
      21        0.000006591124    -0.000004540728    -0.000001060554
      22        0.000002267012     0.000009228774     0.000004453350
      23       -0.000001881054    -0.000001271471     0.000001565668
      24        0.000002240923     0.000003420683    -0.000005207674

  **** Optimization is complete! (in 7 steps) ****
    Final optimized geometry and variables:
    Molecular point group: c1

    Geometry (in Angstrom), charge = 0, multiplicity = 1:

    H           -3.219711236539     0.780709359333    -1.081526079415
    O           -3.276274134744    -0.163337563397    -1.027446474360
    C           -3.023695378511    -0.568125967583     0.294195607666
    C           -1.602934366681    -0.260122783328     0.752596982490
    H           -3.198546927356    -1.636870671340     0.312387618521
    H           -3.740767348702    -0.111267123363     0.974118354340
    C           -0.526211383755    -0.965727268695    -0.076068690267
    H           -1.443697549119     0.818372154459     0.716866905155
    H           -1.510483145180    -0.545000787026     1.799176532672
    C            0.911733151305    -0.590420445307     0.346641013447
    H           -0.683760347731    -0.713175158258    -1.119113300353
    H           -0.673372675680    -2.039454428109     0.004331916909
    C            1.649402329565     0.244779889709    -0.705051286425
    H            0.884732582880    -0.055971840615     1.291898775296
    H            1.488405732584    -1.493373921075     0.532751197813
    C            3.091804420111     0.611159537602    -0.338846151353
    H            1.087151935133     1.157095951870    -0.902694838280
    H            1.659364020285    -0.311455573895    -1.639673820722
    C            3.224289010084     1.571443793202     0.844844494521
    H            3.563140923171     1.063749333087    -1.207902861405
    H            3.651615704465    -0.298536176906    -0.130585461857
    H            2.666300992922     2.487263322968     0.668258095082
    H            4.262775320125     1.844708732971     1.005028856427
    H            2.858052797345     1.133656553580     1.767450214795

  Mulliken Charges: (a.u.)
   Center  Symbol    Alpha    Beta     Spin     Total
       1     H     0.28335  0.28335  0.00000  0.43330
       2     O     4.36827  4.36827  0.00000 -0.73654
       3     C     2.99681  2.99681  0.00000  0.00637
       4     C     3.17046  3.17046  0.00000 -0.34091
       5     H     0.41636  0.41636  0.00000  0.16727
       6     H     0.42816  0.42816  0.00000  0.14368
       7     C     3.15642  3.15642  0.00000 -0.31284
       8     H     0.42822  0.42822  0.00000  0.14355
       9     H     0.42206  0.42206  0.00000  0.15589
      10     C     3.15749  3.15749  0.00000 -0.31497
      11     H     0.40865  0.40865  0.00000  0.18271
      12     H     0.42068  0.42068  0.00000  0.15864
      13     C     3.15351  3.15351  0.00000 -0.30702
      14     H     0.42042  0.42042  0.00000  0.15916
      15     H     0.42134  0.42134  0.00000  0.15733
      16     C     3.15311  3.15311  0.00000 -0.30623
      17     H     0.42647  0.42647  0.00000  0.14706
      18     H     0.42032  0.42032  0.00000  0.15937
      19     C     3.24086  3.24086  0.00000 -0.48172
      20     H     0.42108  0.42108  0.00000  0.15785
      21     H     0.42327  0.42327  0.00000  0.15346
      22     H     0.42305  0.42305  0.00000  0.15390
      23     H     0.41929  0.41929  0.00000  0.16143
      24     H     0.42036  0.42036  0.00000  0.15929

   Total alpha = 33.00000, Total beta = 33.00000, Total charge = -0.00000
