                              Psi4 1.0.54 Driver

  ==> Input File <==

--------------------------------------------------------------------------
set {
	reference rhf
	basis cc-pvtz
}

set_num_threads( 4 )
memory 2 gb

molecule MOL {
0 1

H	 -3.941973	 0.934228	 -0.390224
C	 -3.240162	 0.342701	 0.161016
C	 -2.105997	 -0.000418	 -0.398703
H	 -3.485368	 0.047206	 1.162193
O	 -1.189946	 -0.765863	 0.237511
H	 -1.846458	 0.297311	 -1.398265
C	 0.026572	 -0.995256	 -0.379403
C	 1.057223	 0.049888	 -0.004615
H	 -0.054361	 -1.010670	 -1.459674
H	 0.397526	 -1.952058	 -0.044198
F	 1.795863	 -0.399166	 0.990293
F	 1.863245	 0.326372	 -1.007308
F	 0.502350	 1.173151	 0.381199

	symmetry c1
}
set optking {
	frozen_dihedral = ("
		11 8 7 9
	")
}

ee,wfn = optimize('scf', return_wfn=True)
oeprop( wfn, 'DIPOLE', 'QUADRUPOLE', 'MULLIKEN_CHARGES')
f=open( 'psi4out.xyz', 'w' )
f.write( "13  " )
f.write( str(ee) + "\n" )
f.write( MOL.save_string_xyz() )
f.close()
--------------------------------------------------------------------------

    Molecular point group: c1
  Charge       = 0
  Multiplicity = 1
  Basis Set: CC-PVTZ
  Basis Set:
  @DF-RHF Final Energy:  -527.73672395773201
    Total Energy =                       -527.7367239577322380
    Molecular point group: c1
  Basis Set: CC-PVTZ
  Basis Set:
  Basis Set: CC-PVTZ
  Basis Set:
  @DF-RHF Final Energy:  -527.73750021386763
    Total Energy =                       -527.7375002138678610
  Basis Set: CC-PVTZ
  Basis Set:
  Basis Set: CC-PVTZ
  Basis Set:
  @DF-RHF Final Energy:  -527.73769388556900
    Total Energy =                       -527.7376938855687740
  Basis Set: CC-PVTZ
  Basis Set:
  Basis Set: CC-PVTZ
  Basis Set:
  @DF-RHF Final Energy:  -527.73771156653288
    Total Energy =                       -527.7377115665331075
  Basis Set: CC-PVTZ
  Basis Set:
  Basis Set: CC-PVTZ
  Basis Set:
  @DF-RHF Final Energy:  -527.73771447583556
    Total Energy =                       -527.7377144758352188
  Basis Set: CC-PVTZ
  Basis Set:
  Basis Set: CC-PVTZ
  Basis Set:
  @DF-RHF Final Energy:  -527.73771626192274
    Total Energy =                       -527.7377162619228557
  Basis Set: CC-PVTZ
  Basis Set:
  Basis Set: CC-PVTZ
  Basis Set:
  @DF-RHF Final Energy:  -527.73771741403300
    Total Energy =                       -527.7377174140329998
  Basis Set: CC-PVTZ
  Basis Set:
  Charge       = 0
  Multiplicity = 1
  Basis Set: CC-PVTZ
  Basis Set:

    Orbital Energies (a.u.)
    -----------------------

    Doubly Occupied:

       1A    -26.342343     2A    -26.339101     3A    -26.338131
       4A    -20.604268     5A    -11.499220     6A    -11.319707
       7A    -11.298793     8A    -11.214284     9A     -1.750721
      10A     -1.648310    11A     -1.643358    12A     -1.444987
      13A     -1.085924    14A     -1.019820    15A     -0.932757
      16A     -0.843699    17A     -0.839389    18A     -0.827859
      19A     -0.795911    20A     -0.732769    21A     -0.721706
      22A     -0.702747    23A     -0.680449    24A     -0.668142
      25A     -0.661691    26A     -0.650313    27A     -0.636740
      28A     -0.587510    29A     -0.565099    30A     -0.530165
      31A     -0.516579    32A     -0.357099

  @DF-RHF Final Energy:  -527.73771779425260

   => Energetics <=

    Nuclear Repulsion Energy =            412.5779253414791583
    One-Electron Energy =               -1549.0321048049388537
    Two-Electron Energy =                 608.7164616692070922
    DFT Exchange-Correlation Energy =       0.0000000000000000
    Empirical Dispersion Energy =           0.0000000000000000
    PCM Polarization Energy =               0.0000000000000000
    EFP Energy =                            0.0000000000000000
    Total Energy =                       -527.7377177942526032
    Molecular point group: c1
  Basis Set: CC-PVTZ
  Basis Set:

  -Total Gradient:
     Atom            X                  Y                   Z
    ------   -----------------  -----------------  -----------------
       1        0.000005886779     0.000012234657     0.000004306698
       2        0.000001598081    -0.000001283408     0.000005644888
       3       -0.000005115043    -0.000027299547    -0.000031349585
       4        0.000002477769    -0.000001109065     0.000002915171
       5       -0.000027757533    -0.000003989794     0.000055969984
       6        0.000011079112     0.000009820829     0.000002941332
       7       -0.003401340258     0.003665837264    -0.000671092907
       8       -0.002742468467     0.001450788579     0.003628443476
       9        0.003509372227    -0.003446520207    -0.000185508806
      10       -0.000018520317    -0.000002026024    -0.000012382561
      11        0.002632206884    -0.001656428677    -0.002762983712
      12        0.000060129271    -0.000015654128    -0.000036898998
      13       -0.000027548504     0.000015629519    -0.000000004979

  **** Optimization is complete! (in 8 steps) ****
    Final optimized geometry and variables:
    Molecular point group: c1

    Geometry (in Angstrom), charge = 0, multiplicity = 1:

    H           -3.973351446543     0.902767655449    -0.300185449525
    C           -3.280853288948     0.259209922413     0.202395575442
    C           -2.111805848441     0.020784256947    -0.339494239096
    H           -3.562726979510    -0.171085616748     1.143291421475
    O           -1.199586448209    -0.792291116939     0.240605825031
    H           -1.816777391970     0.452781458238    -1.278587590580
    C            0.011253274545    -0.978673780537    -0.396098841505
    C            1.060764380771     0.067939646060    -0.017763060524
    H           -0.070164072255    -1.000134567675    -1.475371867752
    H            0.398007011060    -1.936567884544    -0.082997053481
    F            1.818470261147    -0.338786573485     0.977530202674
    F            1.867532984387     0.278973141219    -1.042502559768
    F            0.531751981178     1.218198073991     0.316178186755

  Mulliken Charges: (a.u.)
   Center  Symbol    Alpha    Beta     Spin     Total
       1     H     0.42533  0.42533  0.00000  0.14935
       2     C     3.19674  3.19674  0.00000 -0.39349
       3     C     2.95603  2.95603  0.00000  0.08795
       4     H     0.42505  0.42505  0.00000  0.14990
       5     O     4.14141  4.14141  0.00000 -0.28282
       6     H     0.43476  0.43476  0.00000  0.13048
       7     C     3.03198  3.03198  0.00000 -0.06395
       8     C     2.67145  2.67145  0.00000  0.65709
       9     H     0.45445  0.45445  0.00000  0.09110
      10     H     0.43645  0.43645  0.00000  0.12710
      11     F     4.60884  4.60884  0.00000 -0.21768
      12     F     4.61381  4.61381  0.00000 -0.22763
      13     F     4.60370  4.60370  0.00000 -0.20740

   Total alpha = 32.00000, Total beta = 32.00000, Total charge = -0.00000

*** Psi4 exiting successfully. Buy a developer a beer!
