  ==> Input File <==

--------------------------------------------------------------------------
set {
	reference rhf
	basis 6-31G*
}

set_num_threads( 1 )
memory 2 gb

molecule MOL {
0 1

H	 -3.135461	 -1.215070	 0.001379
O	 -2.310168	 -0.871793	 -0.309793
C	 -2.026376	 0.340750	 0.341611
C	 -0.673256	 0.843270	 -0.132153
H	 -2.792215	 1.080697	 0.115987
H	 -2.013526	 0.200402	 1.421792
C	 0.486613	 -0.083066	 0.235839
H	 -0.715586	 0.970948	 -1.210718
H	 -0.508072	 1.829858	 0.297090
C	 0.226205	 -0.886261	 1.511331
H	 1.389350	 0.507284	 0.354442
H	 0.671932	 -0.770325	 -0.588887
C	 1.382847	 -1.816297	 1.875862
H	 0.041756	 -0.201036	 2.336051
H	 -0.683347	 -1.471971	 1.392579
H	 2.299674	 -1.256034	 2.035310
H	 1.171382	 -2.370938	 2.785038
H	 1.570643	 -2.537121	 1.084877

	symmetry c1
}
set optking {
	frozen_dihedral = ("
		14 10 7 11,
		2 3 4 8,
		1 2 3 4
	")
}

ee = energy('scf')
oeprop('DIPOLE', 'QUADRUPOLE', 'MULLIKEN_CHARGES')
f=open( 'psi4out.xyz', 'w' )
f.write( "18  " )
f.write( str(ee) + "\n" )
f.write( MOL.save_string_xyz() )
f.close()
--------------------------------------------------------------------------

    Molecular point group: c1

    Geometry (in Angstrom), charge = 0, multiplicity = 1:

       Center              X                  Y                   Z               Mass
    ------------   -----------------  -----------------  -----------------  -----------------
           H         -2.602780787944    -0.778717673246    -0.579150467784     1.007825032070
           O         -1.777487787944    -0.435440673246    -0.890322467784    15.994914619560
           C         -1.493695787944     0.777102326754    -0.238918467784    12.000000000000
           C         -0.140575787944     1.279622326754    -0.712682467784    12.000000000000
           H         -2.259534787944     1.517049326754    -0.464542467784     1.007825032070
           H         -1.480845787944     0.636754326754     0.841262532216     1.007825032070
           C          1.019293212056     0.353286326754    -0.344690467784    12.000000000000
           H         -0.182905787944     1.407300326754    -1.791247467784     1.007825032070
           H          0.024608212056     2.266210326754    -0.283439467784     1.007825032070
           C          0.758885212056    -0.449908673246     0.930801532216    12.000000000000
           H          1.922030212056     0.943636326754    -0.226087467784     1.007825032070
           H          1.204612212056    -0.333972673246    -1.169416467784     1.007825032070
           C          1.915527212056    -1.379944673246     1.295332532216    12.000000000000
           H          0.574436212056     0.235316326754     1.755521532216     1.007825032070
           H         -0.150666787944    -1.035618673246     0.812049532216     1.007825032070
           H          2.832354212056    -0.819681673246     1.454780532216     1.007825032070
           H          1.704062212056    -1.934585673246     2.204508532216     1.007825032070
           H          2.103323212056    -2.100768673246     0.504347532216     1.007825032070

  Charge       = 0
  Multiplicity = 1
  Basis Set: 6-31G*
  Basis Set:

    Orbital Energies (a.u.)
    -----------------------

    Doubly Occupied:

       1A    -20.554895     2A    -11.266742     3A    -11.211489
       4A    -11.206959     5A    -11.206257     6A    -11.202499
       7A     -1.361747     8A     -1.076263     9A     -1.003877
      10A     -0.911835    11A     -0.835957    12A     -0.763646
      13A     -0.706503    14A     -0.647105    15A     -0.625245
      16A     -0.583895    17A     -0.560640    18A     -0.554161
      19A     -0.536807    20A     -0.496957    21A     -0.489457
      22A     -0.462402    23A     -0.453884    24A     -0.444611
      25A     -0.429488

  @DF-RHF Final Energy:  -271.17215891245900

   => Energetics <=

    Nuclear Repulsion Energy =            258.0163111888978733
    One-Electron Energy =                -879.1901913194468534
    Two-Electron Energy =                 350.0017212180897559
    DFT Exchange-Correlation Energy =       0.0000000000000000
    Empirical Dispersion Energy =           0.0000000000000000
    PCM Polarization Energy =               0.0000000000000000
    EFP Energy =                            0.0000000000000000
    Total Energy =                       -271.1721589124591674

  Mulliken Charges: (a.u.)
   Center  Symbol    Alpha    Beta     Spin     Total
       1     H     0.28064  0.28064  0.00000  0.43872
       2     O     4.36900  4.36900  0.00000 -0.73800
       3     C     3.00773  3.00773  0.00000 -0.01547
       4     C     3.16100  3.16100  0.00000 -0.32200
       5     H     0.42650  0.42650  0.00000  0.14700
       6     H     0.42772  0.42772  0.00000  0.14456
       7     C     3.14841  3.14841  0.00000 -0.29681
       8     H     0.41278  0.41278  0.00000  0.17445
       9     H     0.42294  0.42294  0.00000  0.15412
      10     C     3.16381  3.16381  0.00000 -0.32762
      11     H     0.42306  0.42306  0.00000  0.15388
      12     H     0.41590  0.41590  0.00000  0.16820
      13     C     3.23759  3.23759  0.00000 -0.47518
      14     H     0.42769  0.42769  0.00000  0.14463
      15     H     0.40874  0.40874  0.00000  0.18252
      16     H     0.42396  0.42396  0.00000  0.15207
      17     H     0.42171  0.42171  0.00000  0.15659
      18     H     0.42083  0.42083  0.00000  0.15835

   Total alpha = 25.00000, Total beta = 25.00000, Total charge =  0.00000
