  ==> Input File <==

--------------------------------------------------------------------------
set {
	reference rhf
	basis 6-31G*
}

set_num_threads( 1 )
memory 2 gb

molecule MOL {
0 1

O	 -2.533059	 0.917162	 -1.384828
C	 -2.515705	 -0.077959	 -0.733637
C	 -3.665674	 -1.048673	 -0.652686
O	 -1.481751	 -0.454642	 0.000584
H	 -3.892247	 -1.403672	 -1.650936
H	 -3.442138	 -1.885283	 -0.007275
H	 -4.539237	 -0.523313	 -0.285582
C	 -0.334255	 0.388708	 0.000906
C	 0.891947	 -0.504646	 0.000751
H	 -0.365390	 1.025305	 -0.873475
H	 -0.365484	 1.024911	 0.875569
C	 2.191998	 0.301789	 0.000897
H	 0.855148	 -1.151283	 -0.871571
H	 0.855132	 -1.151660	 0.872805
C	 3.441114	 -0.581407	 0.000108
H	 2.215074	 0.954890	 -0.869742
H	 2.215465	 0.953923	 0.872248
C	 4.739576	 0.224112	 -0.001102
H	 3.419457	 -1.233487	 -0.870178
H	 3.420834	 -1.233096	 0.870717
H	 4.804918	 0.861552	 -0.878265
H	 5.606527	 -0.429058	 -0.001824
H	 4.806469	 0.861674	 0.875853

	symmetry c1
}
set optking {
	frozen_dihedral = ("
		13 9 8 10,
		16 12 9 13,
		19 15 12 16,
		1 2 4 8
	")
}

ee = energy('scf')
oeprop('DIPOLE', 'QUADRUPOLE', 'MULLIKEN_CHARGES')
f=open( 'psi4out.xyz', 'w' )
f.write( "23  " )
f.write( str(ee) + "\n" )
f.write( MOL.save_string_xyz() )
f.close()
--------------------------------------------------------------------------

    Molecular point group: c1

    Geometry (in Angstrom), charge = 0, multiplicity = 1:

       Center              X                  Y                   Z               Mass
    ------------   -----------------  -----------------  -----------------  -----------------
           O         -2.598301620974     1.005814132670    -1.071875930507    15.994914619560
           C         -2.580947620974     0.010693132670    -0.420684930507    12.000000000000
           C         -3.730916620974    -0.960020867330    -0.339733930507    12.000000000000
           O         -1.546993620974    -0.365989867330     0.313536069493    15.994914619560
           H         -3.957489620974    -1.315019867330    -1.337983930507     1.007825032070
           H         -3.507380620974    -1.796630867330     0.305677069493     1.007825032070
           H         -4.604479620974    -0.434660867330     0.027370069493     1.007825032070
           C         -0.399497620974     0.477360132670     0.313858069493    12.000000000000
           C          0.826704379026    -0.415993867330     0.313703069493    12.000000000000
           H         -0.430632620974     1.113957132670    -0.560522930507     1.007825032070
           H         -0.430726620974     1.113563132670     1.188521069493     1.007825032070
           C          2.126755379026     0.390441132670     0.313849069493    12.000000000000
           H          0.789905379026    -1.062630867330    -0.558618930507     1.007825032070
           H          0.789889379026    -1.063007867330     1.185757069493     1.007825032070
           C          3.375871379026    -0.492754867330     0.313060069493    12.000000000000
           H          2.149831379026     1.043542132670    -0.556789930507     1.007825032070
           H          2.150222379026     1.042575132670     1.185200069493     1.007825032070
           C          4.674333379026     0.312764132670     0.311850069493    12.000000000000
           H          3.354214379026    -1.144834867330    -0.557225930507     1.007825032070
           H          3.355591379026    -1.144443867330     1.183669069493     1.007825032070
           H          4.739675379026     0.950204132670    -0.565312930507     1.007825032070
           H          5.541284379026    -0.340405867330     0.311128069493     1.007825032070
           H          4.741226379026     0.950326132670     1.188805069493     1.007825032070

  Charge       = 0
  Multiplicity = 1
  Basis Set: 6-31G*
  Basis Set:

    Orbital Energies (a.u.)
    -----------------------

    Doubly Occupied:

       1A    -20.603307     2A    -20.540279     3A    -11.375322
       4A    -11.278221     5A    -11.232986     6A    -11.223128
       7A    -11.222505     8A    -11.220882     9A    -11.212358
      10A     -1.468647    11A     -1.361263    12A     -1.093107
      13A     -1.041928    14A     -1.003253    15A     -0.930448
      16A     -0.842683    17A     -0.801272    18A     -0.774003
      19A     -0.697544    20A     -0.681730    21A     -0.664356
      22A     -0.646971    23A     -0.605246    24A     -0.587691
      25A     -0.583478    26A     -0.569997    27A     -0.553741
      28A     -0.538440    29A     -0.522864    30A     -0.506922
      31A     -0.488921    32A     -0.477463    33A     -0.471366
      34A     -0.469091    35A     -0.446115    36A     -0.433716

  @DF-RHF Final Energy:  -422.97751010605526

   => Energetics <=

    Nuclear Repulsion Energy =            451.2355151021741335
    One-Electron Energy =               -1470.0836191991136275
    Two-Electron Energy =                 595.8705939908840037
    DFT Exchange-Correlation Energy =       0.0000000000000000
    Empirical Dispersion Energy =           0.0000000000000000
    PCM Polarization Energy =               0.0000000000000000
    EFP Energy =                            0.0000000000000000
    Total Energy =                       -422.9775101060555471

  Mulliken Charges: (a.u.)
   Center  Symbol    Alpha    Beta     Spin     Total
       1     O     4.28420  4.28420  0.00000 -0.56840
       2     C     2.61559  2.61559  0.00000  0.76882
       3     C     3.28861  3.28861  0.00000 -0.57723
       4     O     4.31119  4.31119  0.00000 -0.62237
       5     H     0.39747  0.39747  0.00000  0.20507
       6     H     0.39966  0.39966  0.00000  0.20069
       7     H     0.39716  0.39716  0.00000  0.20569
       8     C     3.00632  3.00632  0.00000 -0.01264
       9     C     3.16245  3.16245  0.00000 -0.32490
      10     H     0.39480  0.39480  0.00000  0.21040
      11     H     0.41553  0.41553  0.00000  0.16894
      12     C     3.16069  3.16069  0.00000 -0.32138
      13     H     0.41555  0.41555  0.00000  0.16890
      14     H     0.41488  0.41488  0.00000  0.17023
      15     C     3.15133  3.15133  0.00000 -0.30265
      16     H     0.42000  0.42000  0.00000  0.16001
      17     H     0.42181  0.42181  0.00000  0.15638
      18     C     3.23985  3.23985  0.00000 -0.47971
      19     H     0.42132  0.42132  0.00000  0.15735
      20     H     0.42159  0.42159  0.00000  0.15681
      21     H     0.42069  0.42069  0.00000  0.15862
      22     H     0.41814  0.41814  0.00000  0.16373
      23     H     0.42118  0.42118  0.00000  0.15764

   Total alpha = 36.00000, Total beta = 36.00000, Total charge = -0.00000
