  ==> Input File <==

--------------------------------------------------------------------------
set {
	reference rhf
	basis cc-pvtz
}

set_num_threads( 4 )
memory 2 gb

molecule MOL {
0 1

H	 -3.144994	 -1.202467	 -0.018751
O	 -2.321472	 -0.864941	 -0.318626
C	 -2.021813	 0.336996	 0.342658
C	 -0.669613	 0.837286	 -0.127252
H	 -2.780861	 1.084746	 0.127159
H	 -2.006390	 0.184138	 1.420053
C	 0.490865	 -0.082543	 0.241244
H	 -0.708709	 0.967192	 -1.204587
H	 -0.507562	 1.822272	 0.303070
C	 1.839800	 0.429565	 -0.255472
H	 0.305636	 -1.070211	 -0.165276
H	 0.527397	 -0.195943	 1.322876
C	 1.745842	 1.165959	 -1.587644
H	 2.268116	 1.092093	 0.491727
H	 2.529980	 -0.404530	 -0.353589
H	 1.089801	 2.026685	 -1.512304
H	 2.718380	 1.518463	 -1.912013
H	 1.352332	 0.519602	 -2.365344

	symmetry c1
}
set optking {
	frozen_dihedral = ("
		14 10 7 11
	")
}

ee = optimize('scf')
oeprop('DIPOLE', 'QUADRUPOLE', 'MULLIKEN_CHARGES')
f=open( 'psi4out.xyz', 'w' )
f.write( "18  " )
f.write( str(ee) + "\n" )
f.write( MOL.save_string_xyz() )
f.close()
--------------------------------------------------------------------------

    Molecular point group: c1
  Charge       = 0
  Multiplicity = 1
  Basis Set: CC-PVTZ
  Basis Set:
  @DF-RHF Final Energy:  -271.27921245720046
    Total Energy =                       -271.2792124572005150
    Molecular point group: c1
  Basis Set: CC-PVTZ
  Basis Set:
  Basis Set: CC-PVTZ
  Basis Set:
  @DF-RHF Final Energy:  -271.28062217640962
    Total Energy =                       -271.2806221764095653
  Basis Set: CC-PVTZ
  Basis Set:
  Basis Set: CC-PVTZ
  Basis Set:
  @DF-RHF Final Energy:  -271.28204392713451
    Total Energy =                       -271.2820439271345663
  Basis Set: CC-PVTZ
  Basis Set:
  Basis Set: CC-PVTZ
  Basis Set:
  @DF-RHF Final Energy:  -271.28216876215419
    Total Energy =                       -271.2821687621543560
  Basis Set: CC-PVTZ
  Basis Set:
  Basis Set: CC-PVTZ
  Basis Set:
  @DF-RHF Final Energy:  -271.28217975670134
    Total Energy =                       -271.2821797567012254
  Basis Set: CC-PVTZ
  Basis Set:
  Basis Set: CC-PVTZ
  Basis Set:
  @DF-RHF Final Energy:  -271.28218567242260
    Total Energy =                       -271.2821856724228837
  Basis Set: CC-PVTZ
  Basis Set:
  Charge       = 0
  Multiplicity = 1
  Basis Set: CC-PVTZ
  Basis Set:

    Orbital Energies (a.u.)
    -----------------------

    Doubly Occupied:

       1A    -20.546020     2A    -11.265779     3A    -11.210149
       4A    -11.209556     5A    -11.205253     6A    -11.202783
       7A     -1.363931     8A     -1.074937     9A     -1.006966
      10A     -0.916549    11A     -0.833619    12A     -0.768045
      13A     -0.707335    14A     -0.643610    15A     -0.615966
      16A     -0.603799    17A     -0.562724    18A     -0.554770
      19A     -0.528994    20A     -0.508758    21A     -0.490560
      22A     -0.463789    23A     -0.451773    24A     -0.449930
      25A     -0.429981

  @DF-RHF Final Energy:  -271.28218629435617

   => Energetics <=

    Nuclear Repulsion Energy =            252.3715929973230914
    One-Electron Energy =                -868.0764060941444313
    Two-Electron Energy =                 344.4226268024652313
    DFT Exchange-Correlation Energy =       0.0000000000000000
    Empirical Dispersion Energy =           0.0000000000000000
    PCM Polarization Energy =               0.0000000000000000
    EFP Energy =                            0.0000000000000000
    Total Energy =                       -271.2821862943561086
    Molecular point group: c1
  Basis Set: CC-PVTZ
  Basis Set:

  -Total Gradient:
     Atom            X                  Y                   Z
    ------   -----------------  -----------------  -----------------
       1        0.000002281499     0.000000943655     0.000001765527
       2        0.000002909966    -0.000001759594    -0.000011837483
       3       -0.000001989654    -0.000001933878     0.000008193058
       4       -0.000001028877     0.000005167561     0.000003345181
       5        0.000007807135     0.000005840113    -0.000002512569
       6        0.000006450703     0.000005527411     0.000001061753
       7       -0.002237128128     0.001909574604    -0.004964028301
       8        0.000001129834    -0.000002001004    -0.000002176121
       9       -0.000016067527     0.000010400940    -0.000001402017
      10       -0.002501149759     0.004788227854    -0.001888867084
      11        0.002311996937    -0.002373268138     0.004464581085
      12       -0.000003649142     0.000000380991     0.000003899306
      13       -0.000003139213    -0.000002205583    -0.000009210840
      14        0.002432713182    -0.004348189209     0.002406613544
      15        0.000005116080    -0.000003719930     0.000001018773
      16        0.000003163553     0.000002042776     0.000000429027
      17       -0.000004322511    -0.000000865282    -0.000001464447
      18       -0.000005094080     0.000005836714    -0.000009408394

  **** Optimization is complete! (in 7 steps) ****
    Final optimized geometry and variables:
    Molecular point group: c1

    Geometry (in Angstrom), charge = 0, multiplicity = 1:

    H           -2.943336847971    -1.529862027394     0.380251814676
    O           -2.143645815084    -1.174650488316     0.039355631834
    C           -1.829143325910     0.025703071490     0.696495621910
    C           -0.518656780785     0.560291452479     0.151005921495
    H           -2.614888781262     0.759712463367     0.536297252055
    H           -1.745356767601    -0.139024036059     1.768870487030
    C            0.671584125093    -0.349244341571     0.440654307006
    H           -0.634438460526     0.709679463839    -0.916231210137
    H           -0.348550866899     1.540026599774     0.591274527807
    C            2.046562753355     0.194040954685     0.022285793952
    H            0.514919872035    -1.327525324259     0.002382568299
    H            0.705680354247    -0.531570553621     1.512762694392
    C            2.109194064588     0.892509009046    -1.332252765676
    H            2.434451604367     0.842363880297     0.803089648706
    H            2.734604656903    -0.646597006222     0.003209712808
    H            1.529285042916     1.807396208721    -1.346346587414
    H            3.132673374243     1.151223706025    -1.578516076004
    H            1.732703557821     0.250424160893    -2.121945984230

  Mulliken Charges: (a.u.)
   Center  Symbol    Alpha    Beta     Spin     Total
       1     H     0.39574  0.39574  0.00000  0.20852
       2     O     4.19870  4.19870  0.00000 -0.39740
       3     C     2.97521  2.97521  0.00000  0.04958
       4     C     3.09372  3.09372  0.00000 -0.18744
       5     H     0.46552  0.46552  0.00000  0.06896
       6     H     0.47314  0.47314  0.00000  0.05371
       7     C     3.09404  3.09404  0.00000 -0.18808
       8     H     0.44942  0.44942  0.00000  0.10117
       9     H     0.45285  0.45285  0.00000  0.09429
      10     C     3.08911  3.08911  0.00000 -0.17821
      11     H     0.44221  0.44221  0.00000  0.11558
      12     H     0.45708  0.45708  0.00000  0.08583
      13     C     3.15596  3.15596  0.00000 -0.31193
      14     H     0.45418  0.45418  0.00000  0.09163
      15     H     0.45183  0.45183  0.00000  0.09635
      16     H     0.45329  0.45329  0.00000  0.09343
      17     H     0.44629  0.44629  0.00000  0.10742
      18     H     0.45171  0.45171  0.00000  0.09658

   Total alpha = 25.00000, Total beta = 25.00000, Total charge = -0.00000
