  ==> Input File <==

--------------------------------------------------------------------------
set {
	reference rhf
	basis cc-pvtz
}

set_num_threads( 4 )
memory 2 gb

molecule MOL {
0 1

O	 -0.694481	 1.313155	 -0.204815
C	 -0.862519	 0.151932	 -0.046791
C	 -2.171428	 -0.477048	 0.339095
O	 0.085519	 -0.757083	 -0.192238
H	 -2.467997	 -1.191667	 -0.417688
H	 -2.923379	 0.287970	 0.444097
H	 -2.053854	 -1.015120	 1.270901
C	 -0.292188	 -2.112395	 -0.404249
C	 -0.561642	 -2.396292	 -1.867361
H	 -1.155539	 -2.339660	 0.201384
H	 0.548390	 -2.689427	 -0.048983
H	 -0.780388	 -3.450044	 -1.998538
H	 -1.409700	 -1.826613	 -2.221829
H	 0.304042	 -2.150628	 -2.470547

	symmetry c1
}
set optking {
	frozen_dihedral = ("
		8 4 2 1
	")
}

ee = optimize('scf')
oeprop('DIPOLE', 'QUADRUPOLE', 'MULLIKEN_CHARGES')
f=open( 'psi4out.xyz', 'w' )
f.write( "14  " )
f.write( str(ee) + "\n" )
f.write( MOL.save_string_xyz() )
f.close()
--------------------------------------------------------------------------

    Molecular point group: c1
  Charge       = 0
  Multiplicity = 1
  Basis Set: CC-PVTZ
  Basis Set:
  @DF-RHF Final Energy:  -305.96476671737855
    Total Energy =                       -305.9647667173786658
    Molecular point group: c1
  Basis Set: CC-PVTZ
  Basis Set:
  Basis Set: CC-PVTZ
  Basis Set:
  @DF-RHF Final Energy:  -305.97173245648611
    Total Energy =                       -305.9717324564862224
  Basis Set: CC-PVTZ
  Basis Set:
  Basis Set: CC-PVTZ
  Basis Set:
  @DF-RHF Final Energy:  -305.97500466155645
    Total Energy =                       -305.9750046615562269
  Basis Set: CC-PVTZ
  Basis Set:
  Basis Set: CC-PVTZ
  Basis Set:
  @DF-RHF Final Energy:  -305.97588231122506
    Total Energy =                       -305.9758823112250639
  Basis Set: CC-PVTZ
  Basis Set:
  @DF-RHF Final Energy:  -305.97616082891716
    Total Energy =                       -305.9761608289172159
  Basis Set: CC-PVTZ
  Basis Set:
  @DF-RHF Final Energy:  -305.97626911530142
    Total Energy =                       -305.9762691153015339
  Basis Set: CC-PVTZ
  Basis Set:
  Basis Set: CC-PVTZ
  Basis Set:
  @DF-RHF Final Energy:  -305.97629300284450
    Total Energy =                       -305.9762930028446704
  Basis Set: CC-PVTZ
  Basis Set:
  Basis Set: CC-PVTZ
  Basis Set:
  @DF-RHF Final Energy:  -305.97629766116017
    Total Energy =                       -305.9762976611601744
  Basis Set: CC-PVTZ
  Basis Set:
  Charge       = 0
  Multiplicity = 1
  Basis Set: CC-PVTZ
  Basis Set:

    Orbital Energies (a.u.)
    -----------------------

    Doubly Occupied:

       1A    -20.591521     2A    -20.528248     3A    -11.368992
       4A    -11.297776     5A    -11.240857     6A    -11.230210
       7A     -1.464867     8A     -1.367217     9A     -1.050112
      10A     -1.018343    11A     -0.899299    12A     -0.773893
      13A     -0.700300    14A     -0.689618    15A     -0.667162
      16A     -0.617972    17A     -0.597369    18A     -0.584638
      19A     -0.557028    20A     -0.544290    21A     -0.528073
      22A     -0.500670    23A     -0.448274    24A     -0.436776

  @DF-RHF Final Energy:  -305.97629856433014

   => Energetics <=

    Nuclear Repulsion Energy =            248.5319018170058598
    One-Electron Energy =                -909.6093915903081779
    Two-Electron Energy =                 355.1011912089720681
    DFT Exchange-Correlation Energy =       0.0000000000000000
    Empirical Dispersion Energy =           0.0000000000000000
    PCM Polarization Energy =               0.0000000000000000
    EFP Energy =                            0.0000000000000000
    Total Energy =                       -305.9762985643302500
    Molecular point group: c1
  Basis Set: CC-PVTZ
  Basis Set:

  -Total Gradient:
     Atom            X                  Y                   Z
    ------   -----------------  -----------------  -----------------
       1       -0.000356599868    -0.000224756039    -0.001513430828
       2        0.000543051306     0.000402962571     0.001434765011
       3       -0.000041683476     0.000004279387    -0.000081549234
       4       -0.000161356095    -0.000378454359     0.001482328235
       5       -0.000000809758    -0.000007168787     0.000026524479
       6        0.000001806280    -0.000013409770     0.000002058027
       7        0.000022831733    -0.000006513564     0.000017521380
       8        0.000082998756     0.000196708336    -0.001379233215
       9       -0.000037588919    -0.000041662571    -0.000038027169
      10       -0.000020548695     0.000023806984    -0.000011314767
      11        0.000007216190     0.000019185772     0.000044181829
      12       -0.000006864413     0.000019073348    -0.000008378554
      13       -0.000016641198     0.000005819281    -0.000025302037
      14       -0.000015811842     0.000000129412     0.000049856844

  **** Optimization is complete! (in 9 steps) ****
    Final optimized geometry and variables:
    Molecular point group: c1

    Geometry (in Angstrom), charge = 0, multiplicity = 1:

    O            0.095425335780     1.995333608228     0.191518668915
    C           -0.159649578478     0.857280810855     0.363434721182
    C           -1.524124995010     0.395481761039     0.816744337254
    O            0.791177159520    -0.057099663307     0.191718371605
    H           -1.991362368564    -0.243910826279     0.079336757798
    H           -2.135068522278     1.269574996808     0.967045145854
    H           -1.449914856927    -0.159373248905     1.743685290775
    C            0.537911374067    -1.428680656518    -0.031703098757
    C            0.280354721693    -1.716666201550    -1.497705338582
    H           -0.277185939075    -1.778908600021     0.585984819341
    H            1.433627248885    -1.933777420628     0.297120292330
    H            0.160670936013    -2.783485518125    -1.648391550247
    H           -0.618016806673    -1.223216548902    -1.849666863325
    H            1.111686485235    -1.373405216647    -2.099149447929

  Mulliken Charges: (a.u.)
   Center  Symbol    Alpha    Beta     Spin     Total
       1     O     4.18072  4.18072  0.00000 -0.36144
       2     C     2.81435  2.81435  0.00000  0.37131
       3     C     3.16527  3.16527  0.00000 -0.33054
       4     O     4.13741  4.13741  0.00000 -0.27482
       5     H     0.44868  0.44868  0.00000  0.10263
       6     H     0.42673  0.42673  0.00000  0.14654
       7     H     0.44514  0.44514  0.00000  0.10972
       8     C     2.99922  2.99922  0.00000  0.00156
       9     C     3.13964  3.13964  0.00000 -0.27928
      10     H     0.45920  0.45920  0.00000  0.08161
      11     H     0.43684  0.43684  0.00000  0.12633
      12     H     0.45050  0.45050  0.00000  0.09900
      13     H     0.45409  0.45409  0.00000  0.09181
      14     H     0.44220  0.44220  0.00000  0.11559

   Total alpha = 24.00000, Total beta = 24.00000, Total charge = -0.00000
