  ==> Input File <==

--------------------------------------------------------------------------
set {
	reference rhf
	basis 6-31G*
}

set_num_threads( 1 )
memory 2 gb

molecule MOL {
0 1

H	 -2.698709	 -0.000305	 0.034435
C	 -1.693833	 0.000034	 0.434417
O	 -0.828952	 -0.000968	 -0.659236
H	 -1.574200	 0.882896	 1.055746
H	 -1.574147	 -0.881698	 1.057355
C	 -0.242299	 -1.219456	 -1.053734
C	 0.684552	 -1.795766	 0.014783
C	 -1.274133	 -2.236603	 -1.537148
H	 0.367118	 -0.935653	 -1.903497
H	 1.369220	 -1.033117	 0.369950
H	 1.268585	 -2.610792	 -0.400998
H	 0.136809	 -2.188222	 0.865736
H	 -1.945596	 -1.778915	 -2.255561
H	 -0.774876	 -3.070370	 -2.020925
H	 -1.866737	 -2.639908	 -0.722282

	symmetry c1
}
set optking {
	frozen_dihedral = ("
		9 6 3 2
	")
}

ee = energy('scf')
oeprop('DIPOLE', 'QUADRUPOLE', 'MULLIKEN_CHARGES')
f=open( 'psi4out.xyz', 'w' )
f.write( "15  " )
f.write( str(ee) + "\n" )
f.write( MOL.save_string_xyz() )
f.close()
--------------------------------------------------------------------------

    Molecular point group: c1

    Geometry (in Angstrom), charge = 0, multiplicity = 1:

       Center              X                  Y                   Z               Mass
    ------------   -----------------  -----------------  -----------------  -----------------
           H         -2.011318771577     1.044670106090     0.577078520269     1.007825032070
           C         -1.006442771577     1.045009106090     0.977060520269    12.000000000000
           O         -0.141561771577     1.044007106090    -0.116592479731    15.994914619560
           H         -0.886809771577     1.927871106090     1.598389520269     1.007825032070
           H         -0.886756771577     0.163277106090     1.599998520269     1.007825032070
           C          0.445091228423    -0.174480893910    -0.511090479731    12.000000000000
           C          1.371942228423    -0.750790893910     0.557426520269    12.000000000000
           C         -0.586742771577    -1.191627893910    -0.994504479731    12.000000000000
           H          1.054508228423     0.109322106090    -1.360853479731     1.007825032070
           H          2.056610228423     0.011858106090     0.912593520269     1.007825032070
           H          1.955975228423    -1.565816893910     0.141645520269     1.007825032070
           H          0.824199228423    -1.143246893910     1.408379520269     1.007825032070
           H         -1.258205771577    -0.733939893910    -1.712917479731     1.007825032070
           H         -0.087485771577    -2.025394893910    -1.478281479731     1.007825032070
           H         -1.179346771577    -1.594932893910    -0.179638479731     1.007825032070

  Charge       = 0
  Multiplicity = 1
  Basis Set: 6-31G*
  Basis Set:

    Orbital Energies (a.u.)
    -----------------------

    Doubly Occupied:

       1A    -20.545676     2A    -11.275250     3A    -11.260892
       4A    -11.210857     5A    -11.210550     6A     -1.369396
       7A     -1.050486     8A     -0.939705     9A     -0.931195
      10A     -0.781471    11A     -0.675799    12A     -0.639855
      13A     -0.632284    14A     -0.572609    15A     -0.563133
      16A     -0.551856    17A     -0.537122    18A     -0.500968
      19A     -0.497087    20A     -0.442166    21A     -0.402445

  @DF-RHF Final Energy:  -232.13443828441751

   => Energetics <=

    Nuclear Repulsion Energy =            198.8445049295258968
    One-Electron Energy =                -708.7761936384619048
    Two-Electron Energy =                 277.7972504245187224
    DFT Exchange-Correlation Energy =       0.0000000000000000
    Empirical Dispersion Energy =           0.0000000000000000
    PCM Polarization Energy =               0.0000000000000000
    EFP Energy =                            0.0000000000000000
    Total Energy =                       -232.1344382844172856

  Mulliken Charges: (a.u.)
   Center  Symbol    Alpha    Beta     Spin     Total
       1     H     0.42394  0.42394  0.00000  0.15212
       2     C     3.07950  3.07950  0.00000 -0.15900
       3     O     4.31431  4.31431  0.00000 -0.62863
       4     H     0.41670  0.41670  0.00000  0.16661
       5     H     0.43076  0.43076  0.00000  0.13848
       6     C     2.91015  2.91015  0.00000  0.17971
       7     C     3.25221  3.25221  0.00000 -0.50442
       8     C     3.25206  3.25206  0.00000 -0.50412
       9     H     0.41510  0.41510  0.00000  0.16980
      10     H     0.41119  0.41119  0.00000  0.17762
      11     H     0.41940  0.41940  0.00000  0.16119
      12     H     0.42160  0.42160  0.00000  0.15680
      13     H     0.41142  0.41142  0.00000  0.17717
      14     H     0.41966  0.41966  0.00000  0.16068
      15     H     0.42200  0.42200  0.00000  0.15600

   Total alpha = 21.00000, Total beta = 21.00000, Total charge = -0.00000
