                              Psi4 1.0.54 Driver

  ==> Input File <==

--------------------------------------------------------------------------
set {
	reference rhf
	basis cc-pvtz
}

set_num_threads( 4 )
memory 2 gb

molecule MOL {
0 1

H	 -3.642953	 0.223825	 0.000000
C	 -2.571844	 0.155001	 0.000000
C	 -1.957580	 -1.086132	 0.000000
C	 -1.807160	 1.303787	 0.000000
H	 -2.551493	 -1.979629	 0.000000
C	 -0.582719	 -1.174294	 0.000000
H	 -2.279934	 2.266806	 0.000000
C	 -0.427220	 1.213406	 0.000000
H	 -0.094904	 -2.127556	 0.000000
C	 0.196908	 -0.024061	 0.000000
H	 0.151409	 2.115254	 0.000000
C	 1.690041	 -0.173233	 0.000000
C	 2.550156	 1.048337	 0.229406
O	 2.190763	 -1.237641	 -0.177977
H	 2.364296	 1.796880	 -0.531593
H	 3.585765	 0.749883	 0.195194
H	 2.334067	 1.494305	 1.192940

	symmetry c1
}
set optking {
	frozen_dihedral = ("
		13 12 10 8
	")
}

ee,wfn = optimize('scf', return_wfn=True)
oeprop( wfn, 'DIPOLE', 'QUADRUPOLE', 'MULLIKEN_CHARGES')
f=open( 'psi4out.xyz', 'w' )
f.write( "17  " )
f.write( str(ee) + "\n" )
f.write( MOL.save_string_xyz() )
f.close()
--------------------------------------------------------------------------

    Molecular point group: c1
  Charge       = 0
  Multiplicity = 1
  Basis Set: CC-PVTZ
  Basis Set:
  @DF-RHF Final Energy:  -382.60555851382207
    Total Energy =                       -382.6055585138218476
    Molecular point group: c1
  Basis Set: CC-PVTZ
  Basis Set:
  Basis Set: CC-PVTZ
  Basis Set:
  @DF-RHF Final Energy:  -382.60434459127617
    Total Energy =                       -382.6043445912760035
  Basis Set: CC-PVTZ
  Basis Set:
  Basis Set: CC-PVTZ
  Basis Set:
  @DF-RHF Final Energy:  -382.60556179850073
    Total Energy =                       -382.6055617985007302
  Basis Set: CC-PVTZ
  Basis Set:
  Basis Set: CC-PVTZ
  Basis Set:
  @DF-RHF Final Energy:  -382.60563874818070
    Total Energy =                       -382.6056387481808088
  Basis Set: CC-PVTZ
  Basis Set:
  Basis Set: CC-PVTZ
  Basis Set:
  @DF-RHF Final Energy:  -382.60564351202618
    Total Energy =                       -382.6056435120264041
  Basis Set: CC-PVTZ
  Basis Set:
  Charge       = 0
  Multiplicity = 1
  Basis Set: CC-PVTZ
  Basis Set:

    Orbital Energies (a.u.)
    -----------------------

    Doubly Occupied:

       1A    -20.540517     2A    -11.327821     3A    -11.246888
       4A    -11.244399     5A    -11.242630     6A    -11.238990
       7A    -11.238896     8A    -11.236626     9A    -11.228928
      10A     -1.401984    11A     -1.171180    12A     -1.053418
      13A     -1.030709    14A     -0.998793    15A     -0.864570
      16A     -0.838896    17A     -0.763563    18A     -0.713362
      19A     -0.658669    20A     -0.651977    21A     -0.628674
      22A     -0.610573    23A     -0.602515    24A     -0.600715
      25A     -0.555336    26A     -0.529460    27A     -0.521871
      28A     -0.503659    29A     -0.497744    30A     -0.414424
      31A     -0.350966    32A     -0.346792

  @DF-RHF Final Energy:  -382.60564445177226

   => Energetics <=

    Nuclear Repulsion Energy =            404.4875718737370107
    One-Electron Energy =               -1320.4753441481943810
    Two-Electron Energy =                 533.3821278226848790
    DFT Exchange-Correlation Energy =       0.0000000000000000
    Empirical Dispersion Energy =           0.0000000000000000
    PCM Polarization Energy =               0.0000000000000000
    EFP Energy =                            0.0000000000000000
    Total Energy =                       -382.6056444517724913
    Molecular point group: c1
  Basis Set: CC-PVTZ
  Basis Set:

  -Total Gradient:
     Atom            X                  Y                   Z
    ------   -----------------  -----------------  -----------------
       1        0.000000291401    -0.000001055002    -0.000006614404
       2        0.000001045771     0.000005899508     0.000010669699
       3        0.000007100432    -0.000002255242    -0.000002391416
       4       -0.000006839726     0.000003773877     0.000010413071
       5       -0.000001829411    -0.000000897035     0.000003545258
       6       -0.000016050498     0.000011647154    -0.000014554097
       7       -0.000002003067    -0.000000636433    -0.000002040197
       8       -0.000019393092     0.000001287830    -0.000968937404
       9        0.000001979246    -0.000005386722     0.000003425751
      10       -0.000010908515    -0.000056197821     0.001807796756
      11       -0.000004902478    -0.000005515392     0.000004901138
      12        0.000063384219     0.000080713019    -0.001622899119
      13       -0.000006772353    -0.000152513754     0.000693811759
      14       -0.000028873686     0.000074183044    -0.000003052619
      15        0.000000363142     0.000043704978    -0.000005643923
      16        0.000055710575    -0.000015684715     0.000005497629
      17       -0.000032301958     0.000018932703     0.000086072118

  **** Optimization is complete! (in 6 steps) ****
    Final optimized geometry and variables:
    Molecular point group: c1

    Geometry (in Angstrom), charge = 0, multiplicity = 1:

    H           -3.642742376775     0.224036561924    -0.008905625318
    C           -2.571593185898     0.155398022899    -0.006443311765
    C           -1.957225636936    -1.085791299008    -0.013437447874
    C           -1.806916823232     1.304098735418     0.002660363822
    H           -2.551191693091    -1.979273890230    -0.020916858926
    C           -0.582343585933    -1.173899935534    -0.014157995995
    H           -2.279532157042     2.267252730181     0.004704058100
    C           -0.426843166058     1.213761046779     0.009569651844
    H           -0.094681359070    -2.127286739548    -0.027308466403
    C            0.196924333284    -0.023606747446     0.002430348647
    H            0.152108518337     2.115537770964     0.018631949657
    C            1.690357513584    -0.172311919057    -0.012356718398
    C            2.550214206899     1.050986797868     0.209869090057
    O            2.189589305613    -1.238579984532    -0.181040629320
    H            2.410352417437     1.767783803691    -0.590927719261
    H            3.583886363923     0.744343685158     0.235769066281
    H            2.289656452306     1.539353189807     1.141188974505

  Mulliken Charges: (a.u.)
   Center  Symbol    Alpha    Beta     Spin     Total
       1     H     0.42023  0.42023  0.00000  0.15955
       2     C     3.07252  3.07252  0.00000 -0.14504
       3     C     3.07439  3.07439  0.00000 -0.14877
       4     C     3.07735  3.07735  0.00000 -0.15469
       5     H     0.42028  0.42028  0.00000  0.15944
       6     C     3.07461  3.07461  0.00000 -0.14921
       7     H     0.42234  0.42234  0.00000  0.15531
       8     C     3.08648  3.08648  0.00000 -0.17297
       9     H     0.40719  0.40719  0.00000  0.18562
      10     C     3.01163  3.01163  0.00000 -0.02327
      11     H     0.42149  0.42149  0.00000  0.15701
      12     C     2.83457  2.83457  0.00000  0.33087
      13     C     3.16714  3.16714  0.00000 -0.33428
      14     O     4.18352  4.18352  0.00000 -0.36704
      15     H     0.44821  0.44821  0.00000  0.10358
      16     H     0.43188  0.43188  0.00000  0.13623
      17     H     0.44618  0.44618  0.00000  0.10765

   Total alpha = 32.00000, Total beta = 32.00000, Total charge = -0.00000

*** Psi4 exiting successfully. Buy a developer a beer!
