  ==> Input File <==

--------------------------------------------------------------------------
set {
	reference rhf
	basis 6-31G*
}

set_num_threads( 1 )
memory 2 gb

molecule MOL {
0 1

O	 0.126779	 0.795696	 0.945232
C	 0.486307	 0.169203	 0.000779
C	 1.608116	 -0.841643	 0.000302
O	 -0.061759	 0.280810	 -1.201209
C	 2.990107	 -0.200498	 -0.000684
H	 1.468623	 -1.481519	 -0.865924
H	 1.469683	 -1.481289	 0.866878
H	 3.129736	 0.423364	 -0.875135
H	 3.757882	 -0.966877	 -0.001197
H	 3.130964	 0.423383	 0.873533
C	 -1.136441	 1.202749	 -1.351166
C	 -1.583076	 1.147867	 -2.796786
H	 -0.794139	 2.190975	 -1.075805
H	 -1.934477	 0.927010	 -0.675372
H	 -0.771144	 1.421339	 -3.460969
H	 -2.404666	 1.838709	 -2.956083
H	 -1.917807	 0.150496	 -3.058437

	symmetry c1
}
set optking {
	frozen_dihedral = ("
		2 4 11 13,
		11 4 2 3
	")
}

ee = energy('scf')
oeprop('DIPOLE', 'QUADRUPOLE', 'MULLIKEN_CHARGES')
f=open( 'psi4out.xyz', 'w' )
f.write( "17  " )
f.write( str(ee) + "\n" )
f.write( MOL.save_string_xyz() )
f.close()
--------------------------------------------------------------------------

    Molecular point group: c1

    Geometry (in Angstrom), charge = 0, multiplicity = 1:

       Center              X                  Y                   Z               Mass
    ------------   -----------------  -----------------  -----------------  -----------------
           O         -0.212161238102     0.419248137130     1.583838751487    15.994914619560
           C          0.147366761898    -0.207244862870     0.639385751487    12.000000000000
           C          1.269175761898    -1.218090862870     0.638908751487    12.000000000000
           O         -0.400699238102    -0.095637862870    -0.562602248513    15.994914619560
           C          2.651166761898    -0.576945862870     0.637922751487    12.000000000000
           H          1.129682761898    -1.857966862870    -0.227317248513     1.007825032070
           H          1.130742761898    -1.857736862870     1.505484751487     1.007825032070
           H          2.790795761898     0.046916137130    -0.236528248513     1.007825032070
           H          3.418941761898    -1.343324862870     0.637409751487     1.007825032070
           H          2.792023761898     0.046935137130     1.512139751487     1.007825032070
           C         -1.475381238102     0.826301137130    -0.712559248513    12.000000000000
           C         -1.922016238102     0.771419137130    -2.158179248513    12.000000000000
           H         -1.133079238102     1.814527137130    -0.437198248513     1.007825032070
           H         -2.273417238102     0.550562137130    -0.036765248513     1.007825032070
           H         -1.110084238102     1.044891137130    -2.822362248513     1.007825032070
           H         -2.743606238102     1.462261137130    -2.317476248513     1.007825032070
           H         -2.256747238102    -0.225951862870    -2.419830248513     1.007825032070

  Charge       = 0
  Multiplicity = 1
  Basis Set: 6-31G*
  Basis Set:

    Orbital Energies (a.u.)
    -----------------------

    Doubly Occupied:

       1A    -20.602063     2A    -20.542152     3A    -11.370458
       4A    -11.284302     5A    -11.235581     6A    -11.225963
       7A    -11.222273     8A     -1.467246     9A     -1.360744
      10A     -1.072495    11A     -1.032058    12A     -0.910861
      13A     -0.852389    14A     -0.776392    15A     -0.693280
      16A     -0.683579    17A     -0.667306    18A     -0.613674
      19A     -0.599203    20A     -0.575663    21A     -0.554890
      22A     -0.537363    23A     -0.529086    24A     -0.508500
      25A     -0.500327    26A     -0.495969    27A     -0.451129
      28A     -0.431598

  @DF-RHF Final Energy:  -344.90930223609649

   => Energetics <=

    Nuclear Repulsion Energy =            315.5033572630184722
    One-Electron Energy =               -1095.2321578466990104
    Two-Electron Energy =                 434.8194983475837034
    DFT Exchange-Correlation Energy =       0.0000000000000000
    Empirical Dispersion Energy =           0.0000000000000000
    PCM Polarization Energy =               0.0000000000000000
    EFP Energy =                            0.0000000000000000
    Total Energy =                       -344.9093022360968916

  Mulliken Charges: (a.u.)
   Center  Symbol    Alpha    Beta     Spin     Total
       1     O     4.28570  4.28570  0.00000 -0.57140
       2     C     2.61253  2.61253  0.00000  0.77494
       3     C     3.19847  3.19847  0.00000 -0.39694
       4     O     4.30920  4.30920  0.00000 -0.61841
       5     C     3.24784  3.24784  0.00000 -0.49568
       6     H     0.40243  0.40243  0.00000  0.19514
       7     H     0.40127  0.40127  0.00000  0.19747
       8     H     0.41286  0.41286  0.00000  0.17429
       9     H     0.41213  0.41213  0.00000  0.17573
      10     H     0.40569  0.40569  0.00000  0.18862
      11     C     3.00305  3.00305  0.00000 -0.00611
      12     C     3.24845  3.24845  0.00000 -0.49691
      13     H     0.41024  0.41024  0.00000  0.17953
      14     H     0.40994  0.40994  0.00000  0.18011
      15     H     0.41205  0.41205  0.00000  0.17591
      16     H     0.41628  0.41628  0.00000  0.16745
      17     H     0.41188  0.41188  0.00000  0.17625

   Total alpha = 28.00000, Total beta = 28.00000, Total charge = -0.00000
