                              Psi4 1.0.54 Driver

  ==> Input File <==

--------------------------------------------------------------------------
set {
	reference rhf
	basis cc-pvtz
}

set_num_threads( 4 )
memory 2 gb

molecule MOL {
0 1

H	 2.614283	 2.028610	 0.296620
O	 3.358864	 1.662087	 -0.142800
C	 3.565468	 0.338079	 0.273842
C	 2.533667	 -0.637565	 -0.272227
H	 4.548038	 0.064914	 -0.086598
H	 3.593945	 0.282242	 1.360360
C	 1.114816	 -0.402372	 0.240993
H	 2.544552	 -0.580764	 -1.356576
H	 2.850574	 -1.642962	 -0.005497
C	 0.383117	 0.697401	 -0.527090
H	 1.152602	 -0.143838	 1.293958
H	 0.546692	 -1.328073	 0.166155
C	 -1.069121	 0.925024	 -0.103475
H	 0.935492	 1.628856	 -0.429623
H	 0.397043	 0.447567	 -1.584378
C	 -1.251119	 1.488946	 1.304577
H	 -1.527384	 1.609899	 -0.811620
H	 -1.618559	 -0.009720	 -0.190232
C	 -2.708630	 1.791370	 1.643120
H	 -0.664824	 2.399931	 1.403737
H	 -0.858346	 0.792860	 2.039558
C	 -2.894335	 2.351036	 3.049598
H	 -3.105816	 2.497871	 0.919464
H	 -3.297277	 0.884093	 1.536324
H	 -2.343263	 3.276770	 3.178344
H	 -3.938422	 2.556821	 3.256094
H	 -2.541083	 1.651023	 3.799629

	symmetry c1
}
set optking {
	frozen_dihedral = ("
		10 7 4 8
	")
}

ee,wfn = optimize('scf', return_wfn=True)
oeprop( wfn, 'DIPOLE', 'QUADRUPOLE', 'MULLIKEN_CHARGES')
f=open( 'psi4out.xyz', 'w' )
f.write( "27  " )
f.write( str(ee) + "\n" )
f.write( MOL.save_string_xyz() )
f.close()
--------------------------------------------------------------------------

    Molecular point group: c1
  Charge       = 0
  Multiplicity = 1
  Basis Set: CC-PVTZ
  Basis Set:
  @DF-RHF Final Energy:  -388.42183869685692
    Total Energy =                       -388.4218386968570940
    Molecular point group: c1
  Basis Set: CC-PVTZ
  Basis Set:
  Basis Set: CC-PVTZ
  Basis Set:
  @DF-RHF Final Energy:  -388.37704392140779
    Total Energy =                       -388.3770439214076760
  Basis Set: CC-PVTZ
  Basis Set:
  Basis Set: CC-PVTZ
  Basis Set:
  @DF-RHF Final Energy:  -388.42156259596686
    Total Energy =                       -388.4215625959670888
  Basis Set: CC-PVTZ
  Basis Set:
  Basis Set: CC-PVTZ
  Basis Set:
  @DF-RHF Final Energy:  -388.42367714186832
    Total Energy =                       -388.4236771418682110
  Basis Set: CC-PVTZ
  Basis Set:
  @DF-RHF Final Energy:  -388.42376324215104
    Total Energy =                       -388.4237632421508124
  Basis Set: CC-PVTZ
  Basis Set:
  @DF-RHF Final Energy:  -388.42376731537843
    Total Energy =                       -388.4237673153788819
  Basis Set: CC-PVTZ
  Basis Set:
  Basis Set: CC-PVTZ
  Basis Set:
  @DF-RHF Final Energy:  -388.42377750929541
    Total Energy =                       -388.4237775092950642
  Basis Set: CC-PVTZ
  Basis Set:
  Basis Set: CC-PVTZ
  Basis Set:
  @DF-RHF Final Energy:  -388.42377990857790
    Total Energy =                       -388.4237799085775578
  Basis Set: CC-PVTZ
  Basis Set:
  Charge       = 0
  Multiplicity = 1
  Basis Set: CC-PVTZ
  Basis Set:

    Orbital Energies (a.u.)
    -----------------------

    Doubly Occupied:

       1A    -20.545586     2A    -11.265497     3A    -11.216243
       4A    -11.214176     5A    -11.213464     6A    -11.213245
       7A    -11.212788     8A    -11.212176     9A    -11.207745
      10A     -1.363527    11A     -1.094837    12A     -1.061054
      13A     -1.012839    14A     -0.949391    15A     -0.889272
      16A     -0.822508    17A     -0.800545    18A     -0.776052
      19A     -0.701734    20A     -0.648664    21A     -0.636860
      22A     -0.618263    23A     -0.595455    24A     -0.584053
      25A     -0.572381    26A     -0.556927    27A     -0.547342
      28A     -0.530173    29A     -0.515530    30A     -0.495308
      31A     -0.490325    32A     -0.472842    33A     -0.467239
      34A     -0.459192    35A     -0.448402    36A     -0.440726
      37A     -0.423658

  @DF-RHF Final Energy:  -388.42378003287490

   => Energetics <=

    Nuclear Repulsion Energy =            466.8340457828451235
    One-Electron Energy =               -1451.9636088231475242
    Two-Electron Energy =                 596.7057830074276126
    DFT Exchange-Correlation Energy =       0.0000000000000000
    Empirical Dispersion Energy =           0.0000000000000000
    PCM Polarization Energy =               0.0000000000000000
    EFP Energy =                            0.0000000000000000
    Total Energy =                       -388.4237800328747880
    Molecular point group: c1
  Basis Set: CC-PVTZ
  Basis Set:

  -Total Gradient:
     Atom            X                  Y                   Z
    ------   -----------------  -----------------  -----------------
       1       -0.000052568966     0.000050023255     0.000045069063
       2        0.000035546764    -0.000046543848    -0.000051594218
       3        0.000004696666     0.000005506332     0.000012205890
       4        0.000011592468     0.000292903288    -0.000059041495
       5        0.000028663910    -0.000007647395    -0.000009335331
       6        0.000000527167     0.000009364016     0.000024219914
       7       -0.000063668834    -0.000230780343    -0.000065923815
       8       -0.000010779037    -0.000202253128     0.000047560104
       9        0.000004611784    -0.000000590949    -0.000001081322
      10        0.000038289046     0.000156899656     0.000039602930
      11        0.000001157043     0.000005760093     0.000011783903
      12       -0.000004662565    -0.000007871477     0.000002232329
      13        0.000012822315    -0.000023780626     0.000002878216
      14       -0.000005184917    -0.000019558810     0.000001806967
      15       -0.000001123097    -0.000000830989     0.000002023653
      16       -0.000007267570     0.000013668827    -0.000014476681
      17        0.000013932723     0.000001304801     0.000005676928
      18       -0.000006034517    -0.000004106413    -0.000004145491
      19        0.000002205405     0.000007091608     0.000002825584
      20       -0.000001843633     0.000009002296    -0.000002228215
      21       -0.000002103026     0.000001476390    -0.000000787924
      22       -0.000000519028    -0.000009655178     0.000009125659
      23        0.000006646954     0.000004346421     0.000001423301
      24       -0.000002689403    -0.000002665643    -0.000002086695
      25       -0.000000079441    -0.000001340572    -0.000004261485
      26       -0.000003092791    -0.000001568857     0.000004484026
      27        0.000000924581     0.000001847246     0.000002044202

  **** Optimization is complete! (in 9 steps) ****
    Final optimized geometry and variables:
    Molecular point group: c1

    Geometry (in Angstrom), charge = 0, multiplicity = 1:

    H            2.245902845648     1.423554360700    -0.843994311732
    O            2.921273995203     0.946388053761    -1.287664754767
    C            3.282304950373    -0.189193038183    -0.546275543513
    C            2.334129822093    -1.372101430491    -0.691293020681
    H            4.260983752482    -0.478537167146    -0.906234718273
    H            3.391279092836     0.066184218375     0.505807567460
    C            0.923125774788    -1.186810787123    -0.116501915484
    H            2.273161762376    -1.649767250960    -1.739226143134
    H            2.807927495074    -2.205393924782    -0.178790775410
    C           -0.074090359841    -0.490054710516    -1.046355002869
    H            0.993082943093    -0.659200039842     0.830975928567
    H            0.521362675934    -2.167797560808     0.120475904963
    C           -1.506072604719    -0.436306767415    -0.510101053917
    H            0.254922661745     0.516576280914    -1.280245441508
    H           -0.081304224592    -1.022420338963    -1.992807801152
    C           -1.706471383693     0.462768216419     0.708713100256
    H           -2.156055635692    -0.086280142308    -1.307206285212
    H           -1.837761117919    -1.444184964483    -0.271248261288
    C           -3.164371346936     0.554279394379     1.151855752686
    H           -1.340931370904     1.461998486677     0.479911612723
    H           -1.109708323860     0.102539315755     1.541195600035
    C           -3.366615692699     1.448343376111     2.370650719200
    H           -3.766928733648     0.926915838527     0.328142748435
    H           -3.534687281065    -0.443272474745     1.372134439088
    H           -3.036531141104     2.462550333484     2.171251495366
    H           -4.411070980603     1.491742142053     2.657377680445
    H           -2.805073795813     1.081185480459     3.223389134488

  Mulliken Charges: (a.u.)
   Center  Symbol    Alpha    Beta     Spin     Total
       1     H     0.39156  0.39156  0.00000  0.21687
       2     O     4.20421  4.20421  0.00000 -0.40842
       3     C     2.98126  2.98126  0.00000  0.03747
       4     C     3.09246  3.09246  0.00000 -0.18491
       5     H     0.44969  0.44969  0.00000  0.10061
       6     H     0.46970  0.46970  0.00000  0.06059
       7     C     3.11283  3.11283  0.00000 -0.22565
       8     H     0.45321  0.45321  0.00000  0.09359
       9     H     0.44894  0.44894  0.00000  0.10213
      10     C     3.10179  3.10179  0.00000 -0.20358
      11     H     0.45203  0.45203  0.00000  0.09594
      12     H     0.44631  0.44631  0.00000  0.10739
      13     C     3.09650  3.09650  0.00000 -0.19300
      14     H     0.45275  0.45275  0.00000  0.09450
      15     H     0.44556  0.44556  0.00000  0.10888
      16     C     3.08870  3.08870  0.00000 -0.17740
      17     H     0.44727  0.44727  0.00000  0.10547
      18     H     0.45371  0.45371  0.00000  0.09258
      19     C     3.08390  3.08390  0.00000 -0.16780
      20     H     0.45762  0.45762  0.00000  0.08476
      21     H     0.45352  0.45352  0.00000  0.09296
      22     C     3.14975  3.14975  0.00000 -0.29951
      23     H     0.45358  0.45358  0.00000  0.09283
      24     H     0.45413  0.45413  0.00000  0.09175
      25     H     0.45534  0.45534  0.00000  0.08932
      26     H     0.44807  0.44807  0.00000  0.10387
      27     H     0.45563  0.45563  0.00000  0.08874

   Total alpha = 37.00000, Total beta = 37.00000, Total charge = -0.00000

*** Psi4 exiting successfully. Buy a developer a beer!
