  ==> Input File <==

--------------------------------------------------------------------------
set {
	reference rhf
	basis cc-pvtz
}

set_num_threads( 4 )
memory 2 gb

molecule MOL {
0 1

H	 -1.067551	 -1.366296	 0.127042
O	 -1.432053	 -0.565244	 -0.200812
C	 -0.727158	 0.534527	 0.310686
C	 0.680222	 0.664433	 -0.252229
H	 -1.306802	 1.408001	 0.044211
H	 -0.690821	 0.490158	 1.397609
C	 1.605391	 -0.489360	 0.123098
H	 0.615089	 0.745647	 -1.332226
H	 1.101414	 1.597893	 0.110950
H	 1.247627	 -1.432485	 -0.275204
H	 2.601435	 -0.332816	 -0.273062
H	 1.691776	 -0.589902	 1.200774

	symmetry c1
}
set optking {
	frozen_dihedral = ("
		1 2 3 4
	")
}

ee = optimize('scf')
oeprop('DIPOLE', 'QUADRUPOLE', 'MULLIKEN_CHARGES')
f=open( 'psi4out.xyz', 'w' )
f.write( "12  " )
f.write( str(ee) + "\n" )
f.write( MOL.save_string_xyz() )
f.close()
--------------------------------------------------------------------------

    Molecular point group: c1
  Charge       = 0
  Multiplicity = 1
  Basis Set: CC-PVTZ
  Basis Set:
  @DF-RHF Final Energy:  -193.19060535098407
    Total Energy =                       -193.1906053509841570
    Molecular point group: c1
  Basis Set: CC-PVTZ
  Basis Set:
  Charge       = 0
  Multiplicity = 1
  Basis Set: CC-PVTZ
  Basis Set:

    Orbital Energies (a.u.)
    -----------------------

    Doubly Occupied:

       1A    -20.546163     2A    -11.265954     3A    -11.217307
       4A    -11.215311     5A     -1.364309     6A     -1.052180
       7A     -0.928659     8A     -0.810661     9A     -0.698544
      10A     -0.637838    11A     -0.603018    12A     -0.590011
      13A     -0.541919    14A     -0.510938    15A     -0.493115
      16A     -0.469958    17A     -0.432995

  @DF-RHF Final Energy:  -193.19060578237259

   => Energetics <=

    Nuclear Repulsion Energy =            133.1965994609518020
    One-Electron Energy =                -526.0166472398849464
    Two-Electron Energy =                 199.6294419965604732
    DFT Exchange-Correlation Energy =       0.0000000000000000
    Empirical Dispersion Energy =           0.0000000000000000
    PCM Polarization Energy =               0.0000000000000000
    EFP Energy =                            0.0000000000000000
    Total Energy =                       -193.1906057823726712
    Molecular point group: c1
  Basis Set: CC-PVTZ
  Basis Set:

  -Total Gradient:
     Atom            X                  Y                   Z
    ------   -----------------  -----------------  -----------------
       1        0.000086302867     0.000048984794    -0.000117685495
       2       -0.000184665119    -0.000002929386     0.000179718195
       3        0.000024606587     0.000047721716    -0.000079533795
       4        0.000080803646    -0.000054885026     0.000026940804
       5       -0.000036998232    -0.000039109400     0.000000689034
       6       -0.000033740953    -0.000014412627    -0.000012026389
       7        0.000028904993     0.000009272912     0.000034392787
       8       -0.000014926269    -0.000006801222     0.000003050278
       9        0.000028759297    -0.000002630199    -0.000025454368
      10        0.000040141071     0.000028866063    -0.000024116003
      11       -0.000008885786    -0.000004863032     0.000018664322
      12       -0.000010302101    -0.000009214594    -0.000004639371

  **** Optimization is complete! (in 2 steps) ****
    Final optimized geometry and variables:
    Molecular point group: c1

    Geometry (in Angstrom), charge = 0, multiplicity = 1:

    H           -1.071270467180    -1.365387691573     0.129165189267
    O           -1.434902282948    -0.563907989895    -0.198340472724
    C           -0.726689701243     0.534452077115     0.311101482985
    C            0.680230031912     0.663092920641    -0.253613684931
    H           -1.306126707111     1.408232552587     0.045485175179
    H           -0.688497899573     0.490134572125     1.398003281207
    C            1.606605160986    -0.489428167008     0.122931988924
    H            0.614291313013     0.742836506960    -1.333666949463
    H            1.101757613410     1.596982544406     0.107844479343
    H            1.255344680982    -1.432497190385    -0.281397536208
    H            2.604490814165    -0.328109315238    -0.266477254394
    H            1.686566074827    -0.593988753064     1.200623354640

  Mulliken Charges: (a.u.)
   Center  Symbol    Alpha    Beta     Spin     Total
       1     H     0.39260  0.39260  0.00000  0.21480
       2     O     4.20526  4.20526  0.00000 -0.41053
       3     C     2.97573  2.97573  0.00000  0.04855
       4     C     3.08322  3.08322  0.00000 -0.16644
       5     H     0.45008  0.45008  0.00000  0.09984
       6     H     0.47070  0.47070  0.00000  0.05859
       7     C     3.15930  3.15930  0.00000 -0.31859
       8     H     0.45130  0.45130  0.00000  0.09741
       9     H     0.45648  0.45648  0.00000  0.08704
      10     H     0.45702  0.45702  0.00000  0.08596
      11     H     0.44464  0.44464  0.00000  0.11072
      12     H     0.45367  0.45367  0.00000  0.09266

   Total alpha = 17.00000, Total beta = 17.00000, Total charge = -0.00000
