  ==> Input File <==

--------------------------------------------------------------------------
set {
	reference rhf
	basis 6-31G*
}

set_num_threads( 1 )
memory 2 gb

molecule MOL {
0 1

O	 3.225979	 0.970355	 -0.599647
C	 2.701189	 0.057885	 -0.047330
C	 1.245376	 -0.013843	 0.345420
O	 3.347903	 -1.046386	 0.304773
C	 0.455112	 1.231400	 -0.050772
H	 0.838542	 -0.913825	 -0.103701
H	 1.208210	 -0.175333	 1.419774
C	 -0.998893	 1.219485	 0.433193
H	 0.482531	 1.345121	 -1.130325
H	 0.957290	 2.103070	 0.354729
C	 -1.883438	 0.145884	 -0.207175
H	 -1.431207	 2.195402	 0.224832
H	 -1.019646	 1.105716	 1.516076
C	 -3.116127	 -0.189393	 0.634886
H	 -2.202043	 0.485361	 -1.191586
H	 -1.310425	 -0.764374	 -0.368607
C	 -4.004699	 -1.264855	 0.007231
H	 -3.702612	 0.714614	 0.789944
H	 -2.798523	 -0.518707	 1.623005
C	 -5.235465	 -1.591087	 0.852505
H	 -4.322150	 -0.937830	 -0.980657
H	 -3.421372	 -2.170659	 -0.144524
H	 -5.844981	 -2.356212	 0.381676
H	 -5.858458	 -0.712312	 0.993329
H	 -4.950641	 -1.954039	 1.836078
C	 4.728119	 -1.109107	 -0.004993
H	 4.882018	 -1.033965	 -1.071845
H	 5.068212	 -2.067527	 0.355250
H	 5.265056	 -0.311663	 0.488280

	symmetry c1
}
set optking {
	frozen_dihedral = ("
		21 17 14 11,
		17 14 11 15,
		6 3 5 9,
		11 8 5 9,
		2 4 26 27,
		1 2 4 26,
		6 3 2 1
	")
}

ee = energy('scf')
oeprop('DIPOLE', 'QUADRUPOLE', 'MULLIKEN_CHARGES')
f=open( 'psi4out.xyz', 'w' )
f.write( "29  " )
f.write( str(ee) + "\n" )
f.write( MOL.save_string_xyz() )
f.close()
--------------------------------------------------------------------------

    Molecular point group: c1

    Geometry (in Angstrom), charge = 0, multiplicity = 1:

       Center              X                  Y                   Z               Mass
    ------------   -----------------  -----------------  -----------------  -----------------
           O          3.140350669146     1.130940767524    -0.750597365899    15.994914619560
           C          2.615560669146     0.218470767524    -0.198280365899    12.000000000000
           C          1.159747669146     0.146742767524     0.194469634101    12.000000000000
           O          3.262274669146    -0.885800232476     0.153822634101    15.994914619560
           C          0.369483669146     1.391985767524    -0.201722365899    12.000000000000
           H          0.752913669146    -0.753239232476    -0.254651365899     1.007825032070
           H          1.122581669146    -0.014747232476     1.268823634101     1.007825032070
           C         -1.084521330854     1.380070767524     0.282242634101    12.000000000000
           H          0.396902669146     1.505706767524    -1.281275365899     1.007825032070
           H          0.871661669146     2.263655767524     0.203778634101     1.007825032070
           C         -1.969066330854     0.306469767524    -0.358125365899    12.000000000000
           H         -1.516835330854     2.355987767524     0.073881634101     1.007825032070
           H         -1.105274330854     1.266301767524     1.365125634101     1.007825032070
           C         -3.201755330854    -0.028807232476     0.483935634101    12.000000000000
           H         -2.287671330854     0.645946767524    -1.342536365899     1.007825032070
           H         -1.396053330854    -0.603788232476    -0.519557365899     1.007825032070
           C         -4.090327330854    -1.104269232476    -0.143719365899    12.000000000000
           H         -3.788240330854     0.875199767524     0.638993634101     1.007825032070
           H         -2.884151330854    -0.358121232476     1.472054634101     1.007825032070
           C         -5.321093330854    -1.430501232476     0.701554634101    12.000000000000
           H         -4.407778330854    -0.777244232476    -1.131607365899     1.007825032070
           H         -3.507000330854    -2.010073232476    -0.295474365899     1.007825032070
           H         -5.930609330854    -2.195626232476     0.230725634101     1.007825032070
           H         -5.944086330854    -0.551726232476     0.842378634101     1.007825032070
           H         -5.036269330854    -1.793453232476     1.685127634101     1.007825032070
           C          4.642490669146    -0.948521232476    -0.155943365899    12.000000000000
           H          4.796389669146    -0.873379232476    -1.222795365899     1.007825032070
           H          4.982583669146    -1.906941232476     0.204299634101     1.007825032070
           H          5.179427669146    -0.151077232476     0.337329634101     1.007825032070

  Charge       = 0
  Multiplicity = 1
  Basis Set: 6-31G*
  Basis Set:

    Orbital Energies (a.u.)
    -----------------------

    Doubly Occupied:

       1A    -20.603508     2A    -20.545275     3A    -11.372199
       4A    -11.280762     5A    -11.234887     6A    -11.219222
       7A    -11.217185     8A    -11.215883     9A    -11.215435
      10A    -11.214607    11A    -11.209175    12A     -1.469186
      13A     -1.362613    14A     -1.098341    15A     -1.066779
      16A     -1.019498    17A     -0.977224    18A     -0.928900
      19A     -0.861633    20A     -0.799361    21A     -0.790556
      22A     -0.763876    23A     -0.701837    24A     -0.682355
      25A     -0.672160    26A     -0.649007    27A     -0.629928
      28A     -0.604552    29A     -0.596905    30A     -0.579123
      31A     -0.566850    32A     -0.551482    33A     -0.532910
      34A     -0.529540    35A     -0.514782    36A     -0.510326
      37A     -0.499958    38A     -0.476864    39A     -0.470761
      40A     -0.462544    41A     -0.457509    42A     -0.455516
      43A     -0.439862    44A     -0.436130

  @DF-RHF Final Energy:  -501.04191085108573

   => Energetics <=

    Nuclear Repulsion Energy =            612.6942116529799023
    One-Electron Energy =               -1896.4981972198943367
    Two-Electron Energy =                 782.7620747158279073
    DFT Exchange-Correlation Energy =       0.0000000000000000
    Empirical Dispersion Energy =           0.0000000000000000
    PCM Polarization Energy =               0.0000000000000000
    EFP Energy =                            0.0000000000000000
    Total Energy =                       -501.0419108510865271

  Mulliken Charges: (a.u.)
   Center  Symbol    Alpha    Beta     Spin     Total
       1     O     4.28583  4.28583  0.00000 -0.57167
       2     C     2.60470  2.60470  0.00000  0.79060
       3     C     3.20959  3.20959  0.00000 -0.41917
       4     O     4.30744  4.30744  0.00000 -0.61488
       5     C     3.15402  3.15402  0.00000 -0.30805
       6     H     0.39935  0.39935  0.00000  0.20130
       7     H     0.40117  0.40117  0.00000  0.19767
       8     C     3.15769  3.15769  0.00000 -0.31539
       9     H     0.41323  0.41323  0.00000  0.17355
      10     H     0.40876  0.40876  0.00000  0.18247
      11     C     3.15518  3.15518  0.00000 -0.31037
      12     H     0.41718  0.41718  0.00000  0.16563
      13     H     0.42357  0.42357  0.00000  0.15287
      14     C     3.15110  3.15110  0.00000 -0.30220
      15     H     0.42067  0.42067  0.00000  0.15865
      16     H     0.42411  0.42411  0.00000  0.15178
      17     C     3.15159  3.15159  0.00000 -0.30318
      18     H     0.42326  0.42326  0.00000  0.15347
      19     H     0.42423  0.42423  0.00000  0.15154
      20     C     3.23931  3.23931  0.00000 -0.47863
      21     H     0.42276  0.42276  0.00000  0.15447
      22     H     0.42344  0.42344  0.00000  0.15312
      23     H     0.41921  0.41921  0.00000  0.16157
      24     H     0.42159  0.42159  0.00000  0.15683
      25     H     0.42194  0.42194  0.00000  0.15613
      26     C     3.09240  3.09240  0.00000 -0.18480
      27     H     0.40906  0.40906  0.00000  0.18188
      28     H     0.40851  0.40851  0.00000  0.18299
      29     H     0.40910  0.40910  0.00000  0.18181

   Total alpha = 44.00000, Total beta = 44.00000, Total charge =  0.00000
