  ==> Input File <==

--------------------------------------------------------------------------
set {
	reference rhf
	basis cc-pvtz
}

set_num_threads( 4 )
memory 2 gb

molecule MOL {
0 1

H	 -1.752232	 -2.214755	 -0.011938
C	 -1.343852	 -1.221619	 -0.018179
N	 -0.058800	 -1.097635	 -0.261688
C	 -2.148159	 -0.124236	 0.219734
C	 0.449026	 0.119242	 -0.273393
H	 -3.196988	 -0.237571	 0.417076
N	 -1.655094	 1.094230	 0.209506
C	 -0.370318	 1.215445	 -0.035100
C	 1.924033	 0.265863	 -0.538106
H	 0.033214	 2.210441	 -0.046812
C	 2.473268	 1.618136	 -0.080777
H	 2.441758	 -0.528535	 -0.014030
H	 2.114464	 0.130394	 -1.596216
H	 3.541070	 1.672656	 -0.256163
H	 2.294056	 1.764264	 0.976346
H	 2.002317	 2.432925	 -0.619171

	symmetry c1
}
set optking {
	frozen_dihedral = ("
		12 9 5 3
	")
}

ee = optimize('scf')
oeprop('DIPOLE', 'QUADRUPOLE', 'MULLIKEN_CHARGES')
f=open( 'psi4out.xyz', 'w' )
f.write( "16  " )
f.write( str(ee) + "\n" )
f.write( MOL.save_string_xyz() )
f.close()
--------------------------------------------------------------------------

    Molecular point group: c1
  Charge       = 0
  Multiplicity = 1
  Basis Set: CC-PVTZ
  Basis Set:
  @DF-RHF Final Energy:  -340.86861490816494
    Total Energy =                       -340.8686149081645453
    Molecular point group: c1
  Basis Set: CC-PVTZ
  Basis Set:
  Basis Set: CC-PVTZ
  Basis Set:
  @DF-RHF Final Energy:  -340.86963121152422
    Total Energy =                       -340.8696312115241653
  Basis Set: CC-PVTZ
  Basis Set:
  Basis Set: CC-PVTZ
  Basis Set:
  @DF-RHF Final Energy:  -340.87014102207604
    Total Energy =                       -340.8701410220756998
  Basis Set: CC-PVTZ
  Basis Set:
  Basis Set: CC-PVTZ
  Basis Set:
  @DF-RHF Final Energy:  -340.87015310359749
    Total Energy =                       -340.8701531035971470
  Basis Set: CC-PVTZ
  Basis Set:
  Basis Set: CC-PVTZ
  Basis Set:
  @DF-RHF Final Energy:  -340.87018171752902
    Total Energy =                       -340.8701817175292490
  Basis Set: CC-PVTZ
  Basis Set:
  Basis Set: CC-PVTZ
  Basis Set:
  @DF-RHF Final Energy:  -340.87018328639107
    Total Energy =                       -340.8701832863913523
  Basis Set: CC-PVTZ
  Basis Set:
  Charge       = 0
  Multiplicity = 1
  Basis Set: CC-PVTZ
  Basis Set:

    Orbital Energies (a.u.)
    -----------------------

    Doubly Occupied:

       1A    -15.579745     2A    -15.574669     3A    -11.279087
       4A    -11.271975     5A    -11.267112     6A    -11.266832
       7A    -11.232106     8A    -11.221631     9A     -1.315199
      10A     -1.222922    11A     -1.086970    12A     -1.016353
      13A     -0.910244    14A     -0.893502    15A     -0.831544
      16A     -0.716789    17A     -0.711511    18A     -0.653206
      19A     -0.630568    20A     -0.611149    21A     -0.572418
      22A     -0.565533    23A     -0.520833    24A     -0.512947
      25A     -0.507817    26A     -0.485668    27A     -0.431274
      28A     -0.396955    29A     -0.346405

  @DF-RHF Final Energy:  -340.87018375990539

   => Energetics <=

    Nuclear Repulsion Energy =            349.9840041563881528
    One-Electron Energy =               -1154.4424462420065538
    Two-Electron Energy =                 463.5882583257127862
    DFT Exchange-Correlation Energy =       0.0000000000000000
    Empirical Dispersion Energy =           0.0000000000000000
    PCM Polarization Energy =               0.0000000000000000
    EFP Energy =                            0.0000000000000000
    Total Energy =                       -340.8701837599055580
    Molecular point group: c1
  Basis Set: CC-PVTZ
  Basis Set:

  -Total Gradient:
     Atom            X                  Y                   Z
    ------   -----------------  -----------------  -----------------
       1        0.000018560945    -0.000003063335     0.000010023325
       2       -0.000117559581     0.000050037270    -0.000010977216
       3        0.000201489432     0.000062016661     0.000359636555
       4        0.000023777492    -0.000149823870    -0.000044090153
       5       -0.000102574155    -0.000182998415    -0.000572849755
       6        0.000007155420     0.000000678593     0.000021804371
       7        0.000134878181     0.000110334359    -0.000027248619
       8       -0.000122472337     0.000085576586     0.000070451988
       9        0.000079279622     0.000256512554     0.000505217615
      10       -0.000004247955     0.000005389692    -0.000005454982
      11       -0.000033630677     0.000026350321     0.000013859860
      12       -0.000061927861    -0.000256455216    -0.000324438331
      13       -0.000018967978    -0.000011279404    -0.000001605061
      14       -0.000024120629    -0.000021320700    -0.000002396915
      15        0.000002825979     0.000011629901     0.000013583271
      16        0.000017534103     0.000016415006    -0.000005515954

  **** Optimization is complete! (in 7 steps) ****
    Final optimized geometry and variables:
    Molecular point group: c1

    Geometry (in Angstrom), charge = 0, multiplicity = 1:

    H           -1.670286470134    -2.495987511319     0.037318292837
    C           -1.287579867459    -1.492750779235     0.051935735217
    N           -0.002043371795    -1.333773484841    -0.158770736418
    C           -2.123218387775    -0.418512013828     0.288086697036
    C            0.481492430527    -0.105472306664    -0.142471464961
    H           -3.173190450215    -0.558349137781     0.460753408417
    N           -1.656581477957     0.808621985500     0.311740747112
    C           -0.368191657501     0.966174041170     0.099892525179
    C            1.960618955053     0.036868458561    -0.412065000183
    H            0.001498197254     1.971383633298     0.124675961237
    C            2.596772563156     1.365889076646    -0.020634856002
    H            2.454842234986    -0.777764505920     0.101893661867
    H            2.120417994485    -0.142848733965    -1.471052244141
    H            3.664173614701     1.326258011226    -0.197778109715
    H            2.443221401057     1.587841661948     1.029319738878
    H            2.203495657812     2.192562347818    -0.600075267406

  Mulliken Charges: (a.u.)
   Center  Symbol    Alpha    Beta     Spin     Total
       1     H     0.41375  0.41375  0.00000  0.17249
       2     C     3.04246  3.04246  0.00000 -0.08491
       3     N     3.59400  3.59400  0.00000 -0.18799
       4     C     3.04859  3.04859  0.00000 -0.09717
       5     C     2.95479  2.95479  0.00000  0.09042
       6     H     0.41417  0.41417  0.00000  0.17167
       7     N     3.58848  3.58848  0.00000 -0.17696
       8     C     3.07505  3.07505  0.00000 -0.15011
       9     C     3.06190  3.06190  0.00000 -0.12380
      10     H     0.41235  0.41235  0.00000  0.17529
      11     C     3.16261  3.16261  0.00000 -0.32523
      12     H     0.44290  0.44290  0.00000  0.11419
      13     H     0.44558  0.44558  0.00000  0.10884
      14     H     0.44278  0.44278  0.00000  0.11444
      15     H     0.44758  0.44758  0.00000  0.10484
      16     H     0.45300  0.45300  0.00000  0.09399

   Total alpha = 29.00000, Total beta = 29.00000, Total charge =  0.00000
