                              Psi4 1.0.54 Driver

  ==> Input File <==

--------------------------------------------------------------------------
set {
	reference rhf
	basis cc-pvtz
}

set_num_threads( 4 )
memory 2 gb

molecule MOL {
0 1

H	 -1.795697	 1.666963	 -0.070993
C	 -1.927413	 0.604749	 -0.249866
O	 -0.775228	 0.000056	 -0.739966
H	 -2.689097	 0.483300	 -1.006992
H	 -2.283458	 0.141234	 0.664474
C	 0.406133	 -0.000384	 0.036994
C	 1.526415	 -0.003194	 -0.997339
C	 0.498772	 1.259027	 0.900673
C	 0.495883	 -1.257378	 0.904465
H	 1.452279	 0.872071	 -1.630204
H	 1.451276	 -0.881020	 -1.626529
H	 2.497919	 -0.002741	 -0.517601
H	 0.368981	 2.144239	 0.289753
H	 1.470064	 1.313479	 1.377660
H	 -0.248448	 1.271586	 1.684297
H	 0.363971	 -2.144195	 0.296316
H	 1.467114	 -1.312636	 1.381470
H	 -0.251246	 -1.265768	 1.688235

	symmetry c1
}
set optking {
	frozen_dihedral = ("
		2 3 6 7
	")
}

ee,wfn = optimize('scf', return_wfn=True)
oeprop( wfn, 'DIPOLE', 'QUADRUPOLE', 'MULLIKEN_CHARGES')
f=open( 'psi4out.xyz', 'w' )
f.write( "18  " )
f.write( str(ee) + "\n" )
f.write( MOL.save_string_xyz() )
f.close()
--------------------------------------------------------------------------

    Molecular point group: c1
  Charge       = 0
  Multiplicity = 1
  Basis Set: CC-PVTZ
  Basis Set:
  @DF-RHF Final Energy:  -271.27387450909924
    Total Energy =                       -271.2738745090993575
    Molecular point group: c1
  Basis Set: CC-PVTZ
  Basis Set:
  Basis Set: CC-PVTZ
  Basis Set:
  @DF-RHF Final Energy:  -271.24332578980227
    Total Energy =                       -271.2433257898023840
  Basis Set: CC-PVTZ
  Basis Set:
  Basis Set: CC-PVTZ
  Basis Set:
  @DF-RHF Final Energy:  -271.27403477384644
    Total Energy =                       -271.2740347738461537
  Basis Set: CC-PVTZ
  Basis Set:
  Basis Set: CC-PVTZ
  Basis Set:
  @DF-RHF Final Energy:  -271.27495433218769
    Total Energy =                       -271.2749543321878036
  Basis Set: CC-PVTZ
  Basis Set:
  Basis Set: CC-PVTZ
  Basis Set:
  @DF-RHF Final Energy:  -271.27472518487480
    Total Energy =                       -271.2747251848746828
  Basis Set: CC-PVTZ
  Basis Set:
  Basis Set: CC-PVTZ
  Basis Set:
  @DF-RHF Final Energy:  -271.27499714855418
    Total Energy =                       -271.2749971485543483
  Basis Set: CC-PVTZ
  Basis Set:
  Basis Set: CC-PVTZ
  Basis Set:
  @DF-RHF Final Energy:  -271.27500240656411
    Total Energy =                       -271.2750024065642265
  Basis Set: CC-PVTZ
  Basis Set:
  Charge       = 0
  Multiplicity = 1
  Basis Set: CC-PVTZ
  Basis Set:

    Orbital Energies (a.u.)
    -----------------------

    Doubly Occupied:

       1A    -20.539071     2A    -11.280350     3A    -11.259080
       4A    -11.210202     5A    -11.204254     6A    -11.201946
       7A     -1.371902     8A     -1.075006     9A     -0.949733
      10A     -0.938274    11A     -0.912418    12A     -0.752879
      13A     -0.657466    14A     -0.647970    15A     -0.639209
      16A     -0.588289    17A     -0.575415    18A     -0.552058
      19A     -0.537754    20A     -0.526066    21A     -0.515403
      22A     -0.492240    23A     -0.485545    24A     -0.441940
      25A     -0.403252

  @DF-RHF Final Energy:  -271.27500326136027

   => Energetics <=

    Nuclear Repulsion Energy =            272.5075774220885592
    One-Electron Energy =                -908.0497166456502782
    Two-Electron Energy =                 364.2671359622013370
    DFT Exchange-Correlation Energy =       0.0000000000000000
    Empirical Dispersion Energy =           0.0000000000000000
    PCM Polarization Energy =               0.0000000000000000
    EFP Energy =                            0.0000000000000000
    Total Energy =                       -271.2750032613603253
    Molecular point group: c1
  Basis Set: CC-PVTZ
  Basis Set:

  -Total Gradient:
     Atom            X                  Y                   Z
    ------   -----------------  -----------------  -----------------
       1       -0.000001203982     0.000016568735    -0.000001363222
       2        0.000204683151     0.002564020133    -0.002108529701
       3       -0.000356435775    -0.003069966537     0.003070055237
       4       -0.000009943157    -0.000010474556    -0.000006970326
       5       -0.000000023210    -0.000008478583     0.000003862414
       6        0.000399859987    -0.002103595506    -0.000442406317
       7       -0.000253121982     0.002631060100    -0.000553124134
       8        0.000012205210     0.000020144559     0.000050390622
       9        0.000001474759     0.000032435550     0.000017212437
      10       -0.000002555449    -0.000013605108    -0.000011312812
      11        0.000008308131    -0.000010777872     0.000013989281
      12        0.000009416277     0.000010902545    -0.000008470648
      13       -0.000002758344    -0.000048283833     0.000042834095
      14       -0.000045018692    -0.000011083168    -0.000004972276
      15        0.000049168799     0.000000069893    -0.000064621587
      16        0.000015144400     0.000007713428    -0.000030834030
      17       -0.000012822019     0.000011483449     0.000006041206
      18       -0.000016378104    -0.000018133228     0.000028219762

  **** Optimization is complete! (in 8 steps) ****
    Final optimized geometry and variables:
    Molecular point group: c1

    Geometry (in Angstrom), charge = 0, multiplicity = 1:

    H           -1.987254368172     1.412942278978     0.044732766004
    C           -1.987100967796     0.340167161224     0.203640751026
    O           -0.931544654941    -0.292461130327    -0.442387850276
    H           -2.896657855134    -0.065070607472    -0.216881268551
    H           -1.997063314014     0.149315402364     1.273729458915
    C            0.405819795518    -0.066756037945    -0.030811625816
    C            1.237109672265    -0.235769645421    -1.298250853617
    C            0.628980724732     1.339739184825     0.529359852248
    C            0.777184524371    -1.120335591756     1.011407417772
    H            0.971132852056     0.522302945266    -2.024028579701
    H            1.049375086140    -1.205944616586    -1.740852744072
    H            2.296450828339    -0.154525990006    -1.083410970439
    H            0.328172814694     2.096573733386    -0.184753038892
    H            1.682608890423     1.478375293956     0.737032005413
    H            0.089813360221     1.505530559047     1.453235321241
    H            0.638988070816    -2.112905613243     0.601646347062
    H            1.810614884325    -1.015854515961     1.321911388473
    H            0.153130795951    -1.029760121132     1.893207322872

  Mulliken Charges: (a.u.)
   Center  Symbol    Alpha    Beta     Spin     Total
       1     H     0.46701  0.46701  0.00000  0.06597
       2     C     3.04297  3.04297  0.00000 -0.08595
       3     O     4.19520  4.19520  0.00000 -0.39039
       4     H     0.44226  0.44226  0.00000  0.11548
       5     H     0.47037  0.47037  0.00000  0.05926
       6     C     2.87394  2.87394  0.00000  0.25213
       7     C     3.14069  3.14069  0.00000 -0.28137
       8     C     3.17456  3.17456  0.00000 -0.34913
       9     C     3.14843  3.14843  0.00000 -0.29686
      10     H     0.45137  0.45137  0.00000  0.09726
      11     H     0.44757  0.44757  0.00000  0.10486
      12     H     0.45929  0.45929  0.00000  0.08142
      13     H     0.44519  0.44519  0.00000  0.10961
      14     H     0.44396  0.44396  0.00000  0.11208
      15     H     0.44491  0.44491  0.00000  0.11017
      16     H     0.44802  0.44802  0.00000  0.10396
      17     H     0.45384  0.45384  0.00000  0.09232
      18     H     0.45041  0.45041  0.00000  0.09918

   Total alpha = 25.00000, Total beta = 25.00000, Total charge = -0.00000

*** Psi4 exiting successfully. Buy a developer a beer!
