  ==> Input File <==

--------------------------------------------------------------------------
set {
	reference rhf
	basis 6-31G*
}

set_num_threads( 4 )
memory 2 gb

molecule MOL {
0 1

H	 0.104242	 -3.440490	 0.728760
O	 0.647716	 -2.667439	 0.611360
C	 -0.156833	 -1.617423	 0.448313
C	 0.624473	 -0.343591	 0.253101
O	 -1.340131	 -1.720482	 0.462420
C	 -0.265902	 0.883932	 0.072916
H	 1.288000	 -0.244962	 1.105965
H	 1.269482	 -0.490862	 -0.609469
C	 -1.728698	 0.646073	 0.462102
H	 -0.209144	 1.219470	 -0.958188
H	 0.135059	 1.692851	 0.673903
C	 -2.482460	 -0.343073	 -0.431425
H	 -2.245265	 1.602650	 0.432430
H	 -1.779332	 0.308348	 1.496285
C	 -3.960546	 -0.461025	 -0.060175
H	 -2.395034	 -0.026811	 -1.468912
H	 -2.024850	 -1.327147	 -0.371646
H	 -4.472726	 -1.168004	 -0.705284
H	 -4.465146	 0.496508	 -0.151489
H	 -4.081218	 -0.800940	 0.964585

	symmetry c1
}
set optking {
	frozen_dihedral = ("
		7 4 6 10
	")
}

ee = optimize('scf')
oeprop('DIPOLE', 'QUADRUPOLE', 'MULLIKEN_CHARGES')
f=open( 'psi4out.xyz', 'w' )
f.write( "20  " )
f.write( str(ee) + "\n" )
f.write( MOL.save_string_xyz() )
f.close()
--------------------------------------------------------------------------

    Molecular point group: c1
  Charge       = 0
  Multiplicity = 1
  Basis Set: 6-31G*
  Basis Set:
  @DF-RHF Final Energy:  -383.76853576758850
    Total Energy =                       -383.7685357675882187
    Molecular point group: c1
  Basis Set: 6-31G*
  Basis Set:
  Basis Set: 6-31G*
  Basis Set:
  @DF-RHF Final Energy:  -383.86374137243587
    Total Energy =                       -383.8637413724355838
  Basis Set: 6-31G*
  Basis Set:
  Basis Set: 6-31G*
  Basis Set:
  @DF-RHF Final Energy:  -383.89989593746475
    Total Energy =                       -383.8998959374646347
  Basis Set: 6-31G*
  Basis Set:
  Basis Set: 6-31G*
  Basis Set:
  @DF-RHF Final Energy:  -383.92010310826777
    Total Energy =                       -383.9201031082677673
  Basis Set: 6-31G*
  Basis Set:
  @DF-RHF Final Energy:  -383.92800609742318
    Total Energy =                       -383.9280060974232356
  @DF-RHF Final Energy:  -383.93209480039872
    Total Energy =                       -383.9320948003984313
  @DF-RHF Final Energy:  -383.93407580173977
    Total Energy =                       -383.9340758017397093
  @DF-RHF Final Energy:  -383.93506157477231
    Total Energy =                       -383.9350615747722486
  @DF-RHF Final Energy:  -383.93529359600143
    Total Energy =                       -383.9352935960014293
  @DF-RHF Final Energy:  -383.93574626926284
    Total Energy =                       -383.9357462692627223
  @DF-RHF Final Energy:  -383.93592008160732
    Total Energy =                       -383.9359200816070370
  @DF-RHF Final Energy:  -383.93603407562040
    Total Energy =                       -383.9360340756204550
  @DF-RHF Final Energy:  -383.93607615247447
    Total Energy =                       -383.9360761524744703
  @DF-RHF Final Energy:  -383.93607874504698
    Total Energy =                       -383.9360787450469843
  @DF-RHF Final Energy:  -383.93608154725564
    Total Energy =                       -383.9360815472557533
  @DF-RHF Final Energy:  -383.93608553637449
    Total Energy =                       -383.9360855363745486
  @DF-RHF Final Energy:  -383.93609502091647
    Total Energy =                       -383.9360950209166958
  @DF-RHF Final Energy:  -383.93609335755053
    Total Energy =                       -383.9360933575507033
  @DF-RHF Final Energy:  -383.93500533435673
    Total Energy =                       -383.9350053343562195
  @DF-RHF Final Energy:  -383.93610422456692
    Total Energy =                       -383.9361042245673161
  @DF-RHF Final Energy:  -383.93618968549708
    Total Energy =                       -383.9361896854973111
  @DF-RHF Final Energy:  -383.93619349920488
    Total Energy =                       -383.9361934992045917
  @DF-RHF Final Energy:  -383.93620249257424
    Total Energy =                       -383.9362024925744663
  @DF-RHF Final Energy:  -383.93620498386576
    Total Energy =                       -383.9362049838655366
  @DF-RHF Final Energy:  -383.93621157679183
    Total Energy =                       -383.9362115767917203
  @DF-RHF Final Energy:  -383.93621400427361
    Total Energy =                       -383.9362140042732108
  @DF-RHF Final Energy:  -383.93623301211261
    Total Energy =                       -383.9362330121128934
  @DF-RHF Final Energy:  -383.93624886612656
    Total Energy =                       -383.9362488661265616
  @DF-RHF Final Energy:  -383.93626239880723
    Total Energy =                       -383.9362623988072301
  @DF-RHF Final Energy:  -383.93627448980260
    Total Energy =                       -383.9362744898023720
  @DF-RHF Final Energy:  -383.93628591308953
    Total Energy =                       -383.9362859130898187
  @DF-RHF Final Energy:  -383.93629873119664
    Total Energy =                       -383.9362987311966435
  @DF-RHF Final Energy:  -383.93631916314416
    Total Energy =                       -383.9363191631437076
  @DF-RHF Final Energy:  -383.93632191346819
    Total Energy =                       -383.9363219134681913
  @DF-RHF Final Energy:  -383.93632169829749
    Total Energy =                       -383.9363216982975473
  @DF-RHF Final Energy:  -383.93632135481943
    Total Energy =                       -383.9363213548195972
  Basis Set: 6-31G*
  Basis Set:
  @DF-RHF Final Energy:  -383.93538362505512
    Total Energy =                       -383.9353836250550103
  Basis Set: 6-31G*
  Basis Set:
  Basis Set: 6-31G*
  Basis Set:
  @DF-RHF Final Energy:  -383.93518702397381
    Total Energy =                       -383.9351870239740947
  Basis Set: 6-31G*
  Basis Set:
  Basis Set: 6-31G*
  Basis Set:
  @DF-RHF Final Energy:  -383.93381956991612
    Total Energy =                       -383.9338195699160678
  Basis Set: 6-31G*
  Basis Set:
  Charge       = 0
  Multiplicity = 1
  Basis Set: 6-31G*
  Basis Set:

    Orbital Energies (a.u.)
    -----------------------

    Doubly Occupied:

       1A    -20.614612     2A    -20.552294     3A    -11.387092
       4A    -11.246494     5A    -11.228827     6A    -11.210138
       7A    -11.202488     8A    -11.198850     9A     -1.478839
      10A     -1.362716    11A     -1.087290    12A     -1.035036
      13A     -0.957110    14A     -0.869750    15A     -0.807945
      16A     -0.773162    17A     -0.703289    18A     -0.683835
      19A     -0.658276    20A     -0.629437    21A     -0.605697
      22A     -0.588403    23A     -0.560018    24A     -0.555743
      25A     -0.544848    26A     -0.497481    27A     -0.494754
      28A     -0.478033    29A     -0.467848    30A     -0.455394
      31A     -0.444578    32A     -0.435446

  @DF-RHF Final Energy:  -383.93444107694870

   => Energetics <=

    Nuclear Repulsion Energy =            387.7267548906230559
    One-Electron Energy =               -1291.6909422037188051
    Two-Electron Energy =                 520.0297462361470480
    DFT Exchange-Correlation Energy =       0.0000000000000000
    Empirical Dispersion Energy =           0.0000000000000000
    PCM Polarization Energy =               0.0000000000000000
    EFP Energy =                            0.0000000000000000
    Total Energy =                       -383.9344410769487013
    Molecular point group: c1
  Basis Set: 6-31G*
  Basis Set:

  -Total Gradient:
     Atom            X                  Y                   Z
    ------   -----------------  -----------------  -----------------
       1       -0.000086215496     0.001461133728    -0.000460210305
       2       -0.005752806210    -0.002846302614    -0.001243169926
       3        0.011810955049     0.003199998936     0.005972811972
       4       -0.003070377101    -0.003527030987     0.004604623418
       5       -0.008021606998    -0.010232764342     0.000267259956
       6       -0.008034661229     0.000153550701    -0.001865174410
       7        0.004347468044     0.000693579311    -0.003163617874
       8        0.000592117825     0.007216411476    -0.002406314457
       9        0.011047524994     0.004144516374    -0.002791591788
      10        0.004109242813     0.000583623194    -0.000831037933
      11       -0.004431298654    -0.000345524889     0.002874866693
      12       -0.006733123865     0.009445467081     0.008843700264
      13       -0.002521804201    -0.001356883071    -0.003648616484
      14        0.000089127875    -0.002853500080    -0.001441234882
      15        0.002024301941     0.001890618114     0.000343095157
      16       -0.000944459319    -0.000133590373    -0.001376045698
      17        0.003561642628    -0.006703799951    -0.003078214366
      18        0.000658589075    -0.000095023462    -0.000419025734
      19        0.001157516975    -0.000479092496    -0.000488072683
      20        0.000197865853    -0.000215386648     0.000305969078

    Molecular point group: c1

    Geometry (in Angstrom), charge = 0, multiplicity = 1:

    H            1.876432667540    -2.578862365709     1.089062308885
    O            2.169590968496    -1.681591537373     0.947136579434
    C            1.188604303494    -1.026649579688     0.315973289772
    C            1.652953169466     0.367396419332     0.038953717037
    O            0.154488314917    -1.541361868736     0.024527772381
    C            0.639533952571     1.478270553277    -0.355657178036
    H            2.273853610878     0.646650111438     0.881292002536
    H            2.345951085574     0.340474789823    -0.795857987456
    C           -0.845852194794     1.316496636821     0.100164236750
    H            0.704542583960     1.661663568905    -1.425551109717
    H            0.996597236037     2.401620207546     0.105660892708
    C           -1.838278219891     0.780711708856    -0.905729109949
    H           -1.232737888112     2.286067933307     0.395670442589
    H           -0.890324412425     0.673108853411     0.974956588092
    C           -3.220420168191     0.658386111393    -0.301397557302
    H           -1.873742542821     1.442090589491    -1.769289365227
    H           -1.500499490867    -0.168687578560    -1.255497593305
    H           -3.941017177958     0.291598600536    -1.026599696415
    H           -3.572738536368     1.622226883997     0.055467652891
    H           -3.215428897526    -0.029633108117     0.538773524628

  Mulliken Charges: (a.u.)
   Center  Symbol    Alpha    Beta     Spin     Total
       1     H     0.26700  0.26700  0.00000  0.46600
       2     O     4.34588  4.34588  0.00000 -0.69176
       3     C     2.62491  2.62491  0.00000  0.75019
       4     C     3.21883  3.21883  0.00000 -0.43766
       5     O     4.28405  4.28405  0.00000 -0.56809
       6     C     3.15374  3.15374  0.00000 -0.30747
       7     H     0.39557  0.39557  0.00000  0.20886
       8     H     0.39459  0.39459  0.00000  0.21083
       9     C     3.15218  3.15218  0.00000 -0.30437
      10     H     0.41402  0.41402  0.00000  0.17197
      11     H     0.41456  0.41456  0.00000  0.17088
      12     C     3.15343  3.15343  0.00000 -0.30687
      13     H     0.42346  0.42346  0.00000  0.15309
      14     H     0.41761  0.41761  0.00000  0.16478
      15     C     3.24064  3.24064  0.00000 -0.48127
      16     H     0.42976  0.42976  0.00000  0.14047
      17     H     0.40486  0.40486  0.00000  0.19027
      18     H     0.42017  0.42017  0.00000  0.15965
      19     H     0.42569  0.42569  0.00000  0.14861
      20     H     0.41905  0.41905  0.00000  0.16190

   Total alpha = 32.00000, Total beta = 32.00000, Total charge = -0.00000
