  ==> Input File <==

--------------------------------------------------------------------------
set {
	reference rhf
	basis 6-31G*
}

set_num_threads( 1 )
memory 2 gb

molecule MOL {
0 1

H	 -2.652399	 0.237995	 -1.471478
O	 -3.452007	 0.283848	 -0.965577
C	 -3.181085	 -0.079926	 0.364119
C	 -1.765924	 0.277073	 0.805136
H	 -3.327791	 -1.152017	 0.410903
H	 -3.905698	 0.375695	 1.036898
C	 -0.677594	 -0.417312	 -0.014550
H	 -1.637766	 1.358238	 0.744969
H	 -1.659588	 0.017670	 1.857098
C	 0.738335	 -0.034840	 0.421385
H	 -0.814977	 -0.178223	 -1.064632
H	 -0.802730	 -1.495410	 0.071702
C	 1.822265	 -0.738362	 -0.399735
H	 0.853533	 1.043532	 0.342250
H	 0.871597	 -0.279636	 1.474438
C	 3.258060	 -0.455774	 0.057203
H	 1.718003	 -0.459167	 -1.447053
H	 1.651028	 -1.811884	 -0.354513
C	 3.709143	 0.994797	 -0.123830
H	 3.930637	 -1.101717	 -0.501982
H	 3.365259	 -0.739518	 1.102287
H	 3.601178	 1.310569	 -1.158127
H	 4.753787	 1.110486	 0.148516
H	 3.135362	 1.678896	 0.492569

	symmetry c1
}
set optking {
	frozen_dihedral = ("
		20 16 13 17,
		17 13 10 7,
		13 10 7 11,
		11 7 4 3,
		7 4 3 2
	")
}

ee = energy('scf')
oeprop('DIPOLE', 'QUADRUPOLE', 'MULLIKEN_CHARGES')
f=open( 'psi4out.xyz', 'w' )
f.write( "24  " )
f.write( str(ee) + "\n" )
f.write( MOL.save_string_xyz() )
f.close()
--------------------------------------------------------------------------

    Molecular point group: c1

    Geometry (in Angstrom), charge = 0, multiplicity = 1:

       Center              X                  Y                   Z               Mass
    ------------   -----------------  -----------------  -----------------  -----------------
           H         -2.659067307537     0.246582277223    -1.467770076252     1.007825032070
           O         -3.458675307537     0.292435277223    -0.961869076252    15.994914619560
           C         -3.187753307537    -0.071338722777     0.367826923748    12.000000000000
           C         -1.772592307537     0.285660277223     0.808843923748    12.000000000000
           H         -3.334459307537    -1.143429722777     0.414610923748     1.007825032070
           H         -3.912366307537     0.384282277223     1.040605923748     1.007825032070
           C         -0.684262307537    -0.408724722777    -0.010842076252    12.000000000000
           H         -1.644434307537     1.366825277223     0.748676923748     1.007825032070
           H         -1.666256307537     0.026257277223     1.860805923748     1.007825032070
           C          0.731666692463    -0.026252722777     0.425092923748    12.000000000000
           H         -0.821645307537    -0.169635722777    -1.060924076252     1.007825032070
           H         -0.809398307537    -1.486822722777     0.075409923748     1.007825032070
           C          1.815596692463    -0.729774722777    -0.396027076252    12.000000000000
           H          0.846864692463     1.052119277223     0.345957923748     1.007825032070
           H          0.864928692463    -0.271048722777     1.478145923748     1.007825032070
           C          3.251391692463    -0.447186722777     0.060910923748    12.000000000000
           H          1.711334692463    -0.450579722777    -1.443345076252     1.007825032070
           H          1.644359692463    -1.803296722777    -0.350805076252     1.007825032070
           C          3.702474692463     1.003384277223    -0.120122076252    12.000000000000
           H          3.923968692463    -1.093129722777    -0.498274076252     1.007825032070
           H          3.358590692463    -0.730930722777     1.105994923748     1.007825032070
           H          3.594509692463     1.319156277223    -1.154419076252     1.007825032070
           H          4.747118692463     1.119073277223     0.152223923748     1.007825032070
           H          3.128693692463     1.687483277223     0.496276923748     1.007825032070

  Charge       = 0
  Multiplicity = 1
  Basis Set: 6-31G*
  Basis Set:

    Orbital Energies (a.u.)
    -----------------------

    Doubly Occupied:

       1A    -20.547544     2A    -11.265982     3A    -11.227129
       4A    -11.222262     5A    -11.221458     6A    -11.219277
       7A    -11.218555     8A    -11.211356     9A     -1.356669
      10A     -1.097031    11A     -1.053991    12A     -0.989945
      13A     -0.921864    14A     -0.857413    15A     -0.803510
      16A     -0.783760    17A     -0.674441    18A     -0.661363
      19A     -0.629886    20A     -0.622132    21A     -0.606929
      22A     -0.591247    23A     -0.563875    24A     -0.538377
      25A     -0.529087    26A     -0.515533    27A     -0.495330
      28A     -0.484068    29A     -0.480762    30A     -0.466075
      31A     -0.459905    32A     -0.438697    33A     -0.427276

  @DF-RHF Final Energy:  -349.24318774724014

   => Energetics <=

    Nuclear Repulsion Energy =            385.4491836349910159
    One-Electron Energy =               -1237.0191276711211685
    Two-Electron Energy =                 502.3267562888900102
    DFT Exchange-Correlation Energy =       0.0000000000000000
    Empirical Dispersion Energy =           0.0000000000000000
    PCM Polarization Energy =               0.0000000000000000
    EFP Energy =                            0.0000000000000000
    Total Energy =                       -349.2431877472401993

  Mulliken Charges: (a.u.)
   Center  Symbol    Alpha    Beta     Spin     Total
       1     H     0.27609  0.27609  0.00000  0.44782
       2     O     4.37901  4.37901  0.00000 -0.75801
       3     C     2.98300  2.98300  0.00000  0.03401
       4     C     3.17812  3.17812  0.00000 -0.35624
       5     H     0.43011  0.43011  0.00000  0.13979
       6     H     0.41735  0.41735  0.00000  0.16530
       7     C     3.16008  3.16008  0.00000 -0.32015
       8     H     0.41630  0.41630  0.00000  0.16739
       9     H     0.41915  0.41915  0.00000  0.16171
      10     C     3.15254  3.15254  0.00000 -0.30508
      11     H     0.43233  0.43233  0.00000  0.13534
      12     H     0.41821  0.41821  0.00000  0.16359
      13     C     3.15308  3.15308  0.00000 -0.30616
      14     H     0.41952  0.41952  0.00000  0.16095
      15     H     0.42181  0.42181  0.00000  0.15638
      16     C     3.15280  3.15280  0.00000 -0.30560
      17     H     0.42395  0.42395  0.00000  0.15209
      18     H     0.42159  0.42159  0.00000  0.15682
      19     C     3.24151  3.24151  0.00000 -0.48301
      20     H     0.42010  0.42010  0.00000  0.15981
      21     H     0.42292  0.42292  0.00000  0.15416
      22     H     0.42197  0.42197  0.00000  0.15606
      23     H     0.41843  0.41843  0.00000  0.16314
      24     H     0.42005  0.42005  0.00000  0.15990

   Total alpha = 33.00000, Total beta = 33.00000, Total charge = -0.00000
