                              Psi4 1.0.54 Driver

  ==> Input File <==

--------------------------------------------------------------------------
set {
	reference rhf
	basis cc-pvtz
}

set_num_threads( 4 )
memory 2 gb

molecule MOL {
0 1

H	 -2.698799	 -0.000846	 0.036018
C	 -1.694291	 -0.000483	 0.434279
O	 -0.828718	 -0.000608	 -0.655022
H	 -1.576855	 0.881100	 1.056504
H	 -1.576401	 -0.881658	 1.057001
C	 -1.145418	 0.790733	 -1.773663
C	 -2.427333	 0.340710	 -2.465360
C	 -1.153004	 2.281243	 -1.453396
H	 -0.321580	 0.602885	 -2.450880
H	 -2.404504	 -0.727354	 -2.643621
H	 -2.525211	 0.843128	 -3.420735
H	 -3.310963	 0.573160	 -1.882481
H	 -0.246409	 2.558954	 -0.929940
H	 -1.204669	 2.854229	 -2.371977
H	 -2.002750	 2.565151	 -0.843585

	symmetry c1
}
set optking {
	frozen_dihedral = ("
		6 3 2 1
	")
}

ee,wfn = optimize('scf', return_wfn=True)
oeprop( wfn, 'DIPOLE', 'QUADRUPOLE', 'MULLIKEN_CHARGES')
f=open( 'psi4out.xyz', 'w' )
f.write( "15  " )
f.write( str(ee) + "\n" )
f.write( MOL.save_string_xyz() )
f.close()
--------------------------------------------------------------------------

    Molecular point group: c1
  Charge       = 0
  Multiplicity = 1
  Basis Set: CC-PVTZ
  Basis Set:
  @DF-RHF Final Energy:  -232.22312308940900
    Total Energy =                       -232.2231230894090004
    Molecular point group: c1
  Basis Set: CC-PVTZ
  Basis Set:
  Basis Set: CC-PVTZ
  Basis Set:
  @DF-RHF Final Energy:  -232.22493092691141
    Total Energy =                       -232.2249309269115543
  Basis Set: CC-PVTZ
  Basis Set:
  Basis Set: CC-PVTZ
  Basis Set:
  @DF-RHF Final Energy:  -232.22566922646769
    Total Energy =                       -232.2256692264676872
  Basis Set: CC-PVTZ
  Basis Set:
  Basis Set: CC-PVTZ
  Basis Set:
  @DF-RHF Final Energy:  -232.22568772518738
    Total Energy =                       -232.2256877251871856
  Basis Set: CC-PVTZ
  Basis Set:
  Basis Set: CC-PVTZ
  Basis Set:
  @DF-RHF Final Energy:  -232.22569414201371
    Total Energy =                       -232.2256941420138219
  Basis Set: CC-PVTZ
  Basis Set:
  Charge       = 0
  Multiplicity = 1
  Basis Set: CC-PVTZ
  Basis Set:

    Orbital Energies (a.u.)
    -----------------------

    Doubly Occupied:

       1A    -20.541188     2A    -11.272810     3A    -11.258850
       4A    -11.209466     5A    -11.207947     6A     -1.373037
       7A     -1.051350     8A     -0.940752     9A     -0.931224
      10A     -0.781622    11A     -0.676636    12A     -0.641801
      13A     -0.634442    14A     -0.572798    15A     -0.564164
      16A     -0.553275    17A     -0.535156    18A     -0.499863
      19A     -0.497788    20A     -0.444773    21A     -0.408082

  @DF-RHF Final Energy:  -232.22569432435901

   => Energetics <=

    Nuclear Repulsion Energy =            199.0612601637686510
    One-Electron Energy =                -709.3798587848556281
    Two-Electron Energy =                 278.0929042967280793
    DFT Exchange-Correlation Energy =       0.0000000000000000
    Empirical Dispersion Energy =           0.0000000000000000
    PCM Polarization Energy =               0.0000000000000000
    EFP Energy =                            0.0000000000000000
    Total Energy =                       -232.2256943243588694
    Molecular point group: c1
  Basis Set: CC-PVTZ
  Basis Set:

  -Total Gradient:
     Atom            X                  Y                   Z
    ------   -----------------  -----------------  -----------------
       1        0.000135571610     0.001469985952     0.000005792929
       2       -0.000393136494    -0.002344538109    -0.000196306367
       3        0.000983457043     0.001740363308     0.000687299390
       4       -0.000020986231    -0.000000274879     0.000001419165
       5       -0.000023176058     0.000003793018     0.000007768251
       6       -0.000677790322    -0.000888236916    -0.000470439394
       7        0.000010093885     0.000019449313    -0.000018990691
       8       -0.000007606315     0.000015401087    -0.000003656936
       9       -0.000012030075    -0.000003604062    -0.000010729717
      10       -0.000005795294    -0.000002342986     0.000004387734
      11        0.000001125101    -0.000006422158     0.000000619248
      12        0.000021198744     0.000005069401    -0.000017431777
      13       -0.000007206059    -0.000010581745    -0.000001877088
      14       -0.000001884991     0.000000956660     0.000009058883
      15       -0.000001834541     0.000000982114     0.000003086371

  **** Optimization is complete! (in 6 steps) ****
    Final optimized geometry and variables:
    Molecular point group: c1

    Geometry (in Angstrom), charge = 0, multiplicity = 1:

    H           -1.272696165416    -0.594900959055     1.332556942932
    C           -0.224125190927    -0.676610067250     1.597032669519
    O            0.611917695621    -0.710252085485     0.483931053192
    H            0.021044497198     0.150675988803     2.256892962990
    H           -0.078099321873    -1.599907163826     2.139510128611
    C            0.323634365430     0.130765665111    -0.605612341218
    C           -0.912190753651    -0.324640118817    -1.373875761630
    C            0.255958783182     1.601426546105    -0.211075420922
    H            1.179959669922     0.001007255740    -1.255684348055
    H           -0.836278596135    -1.378176838676    -1.612209557198
    H           -0.995301256262     0.230170858573    -2.301551306144
    H           -1.827135504468    -0.164628052116    -0.815730966691
    H            1.143224380038     1.886451503608     0.341118795104
    H            0.195006589322     2.220071376362    -1.098792008151
    H           -0.612499223677     1.818250573323     0.400622562384

  Mulliken Charges: (a.u.)
   Center  Symbol    Alpha    Beta     Spin     Total
       1     H     0.47053  0.47053  0.00000  0.05893
       2     C     3.04016  3.04016  0.00000 -0.08031
       3     O     4.18436  4.18436  0.00000 -0.36872
       4     H     0.46567  0.46567  0.00000  0.06867
       5     H     0.44291  0.44291  0.00000  0.11418
       6     C     2.93642  2.93642  0.00000  0.12717
       7     C     3.15350  3.15350  0.00000 -0.30701
       8     C     3.16023  3.16023  0.00000 -0.32046
       9     H     0.44681  0.44681  0.00000  0.10639
      10     H     0.44469  0.44469  0.00000  0.11062
      11     H     0.45136  0.45136  0.00000  0.09727
      12     H     0.45617  0.45617  0.00000  0.08767
      13     H     0.44402  0.44402  0.00000  0.11197
      14     H     0.44820  0.44820  0.00000  0.10360
      15     H     0.45498  0.45498  0.00000  0.09004

   Total alpha = 21.00000, Total beta = 21.00000, Total charge = -0.00000

*** Psi4 exiting successfully. Buy a developer a beer!
