  ==> Input File <==

--------------------------------------------------------------------------
set {
	reference rhf
	basis cc-pvtz
}

set_num_threads( 4 )
memory 2 gb

molecule MOL {
0 1

H	 1.651322	 -0.822465	 0.000000
O	 0.729993	 -1.034364	 0.000000
C	 0.037305	 0.100061	 0.000000
C	 -0.461641	 0.454030	 1.368881
O	 -0.144603	 0.730555	 -0.982945
H	 -1.091398	 -0.343579	 1.741297
H	 -1.015799	 1.376851	 1.323756
H	 0.377800	 0.553523	 2.044832

	symmetry c1
}
set optking {
	frozen_dihedral = ("
		4 3 2 1
	")
}

ee = optimize('scf')
oeprop('DIPOLE', 'QUADRUPOLE', 'MULLIKEN_CHARGES')
f=open( 'psi4out.xyz', 'w' )
f.write( "8  " )
f.write( str(ee) + "\n" )
f.write( MOL.save_string_xyz() )
f.close()
--------------------------------------------------------------------------

    Molecular point group: c1
  Charge       = 0
  Multiplicity = 1
  Basis Set: CC-PVTZ
  Basis Set:
  @DF-RHF Final Energy:  -227.88413092472885
    Total Energy =                       -227.8841309247289360
    Molecular point group: c1
  Basis Set: CC-PVTZ
  Basis Set:
  Basis Set: CC-PVTZ
  Basis Set:
  @DF-RHF Final Energy:  -227.88529247736500
    Total Energy =                       -227.8852924773649420
  Basis Set: CC-PVTZ
  Basis Set:
  Basis Set: CC-PVTZ
  Basis Set:
  @DF-RHF Final Energy:  -227.88484712071897
    Total Energy =                       -227.8848471207188595
  Basis Set: CC-PVTZ
  Basis Set:
  Basis Set: CC-PVTZ
  Basis Set:
  @DF-RHF Final Energy:  -227.88549493656086
    Total Energy =                       -227.8854949365607467
  Basis Set: CC-PVTZ
  Basis Set:
  Basis Set: CC-PVTZ
  Basis Set:
  @DF-RHF Final Energy:  -227.88550765394922
    Total Energy =                       -227.8855076539492188
  Basis Set: CC-PVTZ
  Basis Set:
  Basis Set: CC-PVTZ
  Basis Set:
  @DF-RHF Final Energy:  -227.88551104054790
    Total Energy =                       -227.8855110405479536
  Basis Set: CC-PVTZ
  Basis Set:
  Charge       = 0
  Multiplicity = 1
  Basis Set: CC-PVTZ
  Basis Set:

    Orbital Energies (a.u.)
    -----------------------

    Doubly Occupied:

       1A    -20.588456     2A    -20.552769     3A    -11.379384
       4A    -11.241193     5A     -1.466355     6A     -1.372781
       7A     -1.024704     8A     -0.828922     9A     -0.711126
      10A     -0.675054    11A     -0.663951    12A     -0.590050
      13A     -0.579667    14A     -0.517594    15A     -0.503677
      16A     -0.453960

  @DF-RHF Final Energy:  -227.88551177825275

   => Energetics <=

    Nuclear Repulsion Energy =            122.0686107054577718
    One-Electron Energy =                -553.6089600965048021
    Two-Electron Energy =                 203.6548376127941822
    DFT Exchange-Correlation Energy =       0.0000000000000000
    Empirical Dispersion Energy =           0.0000000000000000
    PCM Polarization Energy =               0.0000000000000000
    EFP Energy =                            0.0000000000000000
    Total Energy =                       -227.8855117782528339
    Molecular point group: c1
  Basis Set: CC-PVTZ
  Basis Set:

  -Total Gradient:
     Atom            X                  Y                   Z
    ------   -----------------  -----------------  -----------------
       1        0.000002585814    -0.000105366612     0.005144545476
       2        0.001243041370     0.000677385978    -0.006168959209
       3       -0.003968627022    -0.002082183194     0.000372123316
       4        0.002803450054     0.001629767203     0.000631508886
       5       -0.000034831405    -0.000088375885     0.000027341509
       6       -0.000017371464    -0.000007504565    -0.000015021861
       7       -0.000013330192    -0.000003563660     0.000009642671
       8       -0.000014917155    -0.000020159264    -0.000001180788

  **** Optimization is complete! (in 7 steps) ****
    Final optimized geometry and variables:
    Molecular point group: c1

    Geometry (in Angstrom), charge = 0, multiplicity = 1:

    H            1.590730822068    -0.950314155401    -0.113445513902
    O            0.660145900175    -1.102872654328    -0.122219919646
    C           -0.035289476938     0.064711603730    -0.094244524407
    C           -0.549668188017     0.411994084592     1.272275293789
    O           -0.196392731397     0.713507340811    -1.058914131249
    H           -1.133826423707    -0.411280744619     1.662823936050
    H           -1.144640673357     1.309903943177     1.230328689349
    H            0.292627652942     0.555148074405     1.939136848906

  Mulliken Charges: (a.u.)
   Center  Symbol    Alpha    Beta     Spin     Total
       1     H     0.38430  0.38430  0.00000  0.23139
       2     O     4.17748  4.17748  0.00000 -0.35497
       3     C     2.80512  2.80512  0.00000  0.38976
       4     C     3.13645  3.13645  0.00000 -0.27291
       5     O     4.16263  4.16263  0.00000 -0.32527
       6     H     0.44293  0.44293  0.00000  0.11414
       7     H     0.43838  0.43838  0.00000  0.12325
       8     H     0.45270  0.45270  0.00000  0.09460

   Total alpha = 16.00000, Total beta = 16.00000, Total charge = -0.00000
