                              Psi4 1.0.54 Driver

  ==> Input File <==

--------------------------------------------------------------------------
set {
	reference rhf
	basis cc-pvtz
}

set_num_threads( 4 )
memory 2 gb

molecule MOL {
0 1

H	 -1.783044	 0.237568	 0.873995
C	 -1.254769	 -0.129921	 0.000201
C	 0.145815	 0.408861	 0.000132
H	 -1.783488	 0.238274	 -0.873022
H	 -1.246388	 -1.209623	 -0.000218
O	 1.121393	 -0.257818	 -0.000291
H	 0.225854	 1.502654	 -0.000102

	symmetry c1
}
ee,wfn = energy('scf', return_wfn=True)
oeprop( wfn, 'DIPOLE', 'QUADRUPOLE', 'MULLIKEN_CHARGES')
oeprop( wfn, 'GRID_ESP')
f=open( 'psi4out.xyz', 'w' )
f.write( "7  " )
f.write( str(ee) + "\n" )
f.write( MOL.save_string_xyz() )
f.close()
--------------------------------------------------------------------------

    Molecular point group: c1

    Geometry (in Angstrom), charge = 0, multiplicity = 1:

       Center              X                  Y                   Z               Mass
    ------------   -----------------  -----------------  -----------------  -----------------
           H         -1.783184310755     0.237604511009     0.873995009322     1.007825032070
           C         -1.254909310755    -0.129884488991     0.000201009322    12.000000000000
           C          0.145674689245     0.408897511009     0.000132009322    12.000000000000
           H         -1.783628310755     0.238310511009    -0.873021990678     1.007825032070
           H         -1.246528310755    -1.209586488991    -0.000217990678     1.007825032070
           O          1.121252689245    -0.257781488991    -0.000290990678    15.994914619560
           H          0.225713689245     1.502690511009    -0.000101990678     1.007825032070

  Charge       = 0
  Multiplicity = 1
  Basis Set: CC-PVTZ
  Basis Set:

    Orbital Energies (a.u.)
    -----------------------

    Doubly Occupied:

       1A    -20.555043     2A    -11.327339     3A    -11.235834
       4A     -1.410538     5A     -1.021230     6A     -0.802026
       7A     -0.680262     8A     -0.629759     9A     -0.608095
      10A     -0.563353    11A     -0.512268    12A     -0.422153

  @DF-RHF Final Energy:  -152.97593699057552

   => Energetics <=

    Nuclear Repulsion Energy =             70.5161302804177694
    One-Electron Energy =                -347.4482935437970355
    Two-Electron Energy =                 123.9562262728038178
    DFT Exchange-Correlation Energy =       0.0000000000000000
    Empirical Dispersion Energy =           0.0000000000000000
    PCM Polarization Energy =               0.0000000000000000
    EFP Energy =                            0.0000000000000000
    Total Energy =                       -152.9759369905754625

  Mulliken Charges: (a.u.)
   Center  Symbol    Alpha    Beta     Spin     Total
       1     H     0.45195  0.45195  0.00000  0.09610
       2     C     3.13049  3.13049  0.00000 -0.26098
       3     C     2.89601  2.89601  0.00000  0.20799
       4     H     0.45194  0.45194  0.00000  0.09612
       5     H     0.44090  0.44090  0.00000  0.11820
       6     O     4.16326  4.16326  0.00000 -0.32652
       7     H     0.46546  0.46546  0.00000  0.06909

   Total alpha = 12.00000, Total beta = 12.00000, Total charge =  0.00000

*** Psi4 exiting successfully. Buy a developer a beer!
