                              Psi4 1.0.54 Driver

  ==> Input File <==

--------------------------------------------------------------------------
set {
	reference rhf
	basis cc-pvtz
}

set_num_threads( 4 )
memory 2 gb

molecule MOL {
0 1

H	 1.355422	 -1.345685	 0.175438
C	 0.788096	 -0.429819	 0.000000
N	 -0.537714	 -0.645117	 0.000000
O	 1.326235	 0.618584	 -0.167262
C	 -1.522613	 0.412524	 0.000000
H	 -0.845894	 -1.585866	 0.000000
H	 -2.150256	 0.356137	 -0.880771
H	 -1.005621	 1.357208	 0.000000
H	 -2.150256	 0.356137	 0.880771

	symmetry c1
}
set optking {
	frozen_dihedral = ("
		1 2 3 6
	")
}

ee,wfn = optimize('scf', return_wfn=True)
oeprop( wfn, 'DIPOLE', 'QUADRUPOLE', 'MULLIKEN_CHARGES')
f=open( 'psi4out.xyz', 'w' )
f.write( "9  " )
f.write( str(ee) + "\n" )
f.write( MOL.save_string_xyz() )
f.close()
--------------------------------------------------------------------------

    Molecular point group: c1
  Charge       = 0
  Multiplicity = 1
  Basis Set: CC-PVTZ
  Basis Set:
  @DF-RHF Final Energy:  -208.04241386432693
    Total Energy =                       -208.0424138643269032
    Molecular point group: c1
  Basis Set: CC-PVTZ
  Basis Set:
  Basis Set: CC-PVTZ
  Basis Set:
  @DF-RHF Final Energy:  -208.04238642808346
    Total Energy =                       -208.0423864280834891
  Basis Set: CC-PVTZ
  Basis Set:
  Basis Set: CC-PVTZ
  Basis Set:
  @DF-RHF Final Energy:  -208.04326240607404
    Total Energy =                       -208.0432624060740068
  Basis Set: CC-PVTZ
  Basis Set:
  Basis Set: CC-PVTZ
  Basis Set:
  @DF-RHF Final Energy:  -208.04336115701676
    Total Energy =                       -208.0433611570165908
  Basis Set: CC-PVTZ
  Basis Set:
  @DF-RHF Final Energy:  -208.04338125906392
    Total Energy =                       -208.0433812590637785
  @DF-RHF Final Energy:  -208.04343091061986
    Total Energy =                       -208.0434309106198043
  @DF-RHF Final Energy:  -208.04345600920240
    Total Energy =                       -208.0434560092023162
  @DF-RHF Final Energy:  -208.04352683092173
    Total Energy =                       -208.0435268309217918
  @DF-RHF Final Energy:  -208.04350907884140
    Total Energy =                       -208.0435090788413390
  Basis Set: CC-PVTZ
  Basis Set:
  @DF-RHF Final Energy:  -208.04364093529085
    Total Energy =                       -208.0436409352908527
  Basis Set: CC-PVTZ
  Basis Set:
  Basis Set: CC-PVTZ
  Basis Set:
  @DF-RHF Final Energy:  -208.04364373049387
    Total Energy =                       -208.0436437304939545
  Basis Set: CC-PVTZ
  Basis Set:
  Basis Set: CC-PVTZ
  Basis Set:
  @DF-RHF Final Energy:  -208.04364483796743
    Total Energy =                       -208.0436448379675198
  Basis Set: CC-PVTZ
  Basis Set:
  Charge       = 0
  Multiplicity = 1
  Basis Set: CC-PVTZ
  Basis Set:

    Orbital Energies (a.u.)
    -----------------------

    Doubly Occupied:

       1A    -20.517571     2A    -15.584456     3A    -11.336724
       4A    -11.259919     5A     -1.394725     6A     -1.239474
       7A     -0.969427     8A     -0.808559     9A     -0.748716
      10A     -0.646370    11A     -0.630180    12A     -0.595872
      13A     -0.557966    14A     -0.538563    15A     -0.429119
      16A     -0.397294

  @DF-RHF Final Energy:  -208.04364496108218

   => Energetics <=

    Nuclear Repulsion Energy =            122.8815916523372636
    One-Electron Energy =                -526.5406024458940237
    Two-Electron Energy =                 195.6153658324746516
    DFT Exchange-Correlation Energy =       0.0000000000000000
    Empirical Dispersion Energy =           0.0000000000000000
    PCM Polarization Energy =               0.0000000000000000
    EFP Energy =                            0.0000000000000000
    Total Energy =                       -208.0436449610821228
    Molecular point group: c1
  Basis Set: CC-PVTZ
  Basis Set:

  -Total Gradient:
     Atom            X                  Y                   Z
    ------   -----------------  -----------------  -----------------
       1        0.000105807631     0.000155738955     0.000499286884
       2       -0.000193712616    -0.000235981777    -0.000854496566
       3        0.000215164949     0.000157124773     0.000940810805
       4        0.000010929838     0.000009207478    -0.000003996709
       5        0.000008287358    -0.000012014587     0.000011445922
       6       -0.000140158314    -0.000080075109    -0.000588304052
       7       -0.000000390617    -0.000002589851    -0.000013249947
       8        0.000006185162     0.000010572686     0.000003430906
       9       -0.000012113391    -0.000001982569     0.000005072755

  **** Optimization is complete! (in 13 steps) ****
    Final optimized geometry and variables:
    Molecular point group: c1

    Geometry (in Angstrom), charge = 0, multiplicity = 1:

    H            1.382595769047    -1.336787622297     0.141666841594
    C            0.786748038432    -0.435255425099    -0.012953120594
    N           -0.505811483238    -0.605467499655     0.312350882131
    O            1.267276135308     0.579475725689    -0.407219037036
    C           -1.493187170254     0.433010876200     0.117901663584
    H           -0.812738364702    -1.527526502831     0.500795956172
    H           -1.774852125526     0.535527456479    -0.923605328838
    H           -1.095208162630     1.376930197698     0.456134284271
    H           -2.373017387250     0.194459164594     0.698352991198

  Mulliken Charges: (a.u.)
   Center  Symbol    Alpha    Beta     Spin     Total
       1     H     0.46381  0.46381  0.00000  0.07238
       2     C     2.88020  2.88020  0.00000  0.23960
       3     N     3.60571  3.60571  0.00000 -0.21143
       4     O     4.21327  4.21327  0.00000 -0.42653
       5     C     3.07736  3.07736  0.00000 -0.15472
       6     H     0.41139  0.41139  0.00000  0.17721
       7     H     0.45470  0.45470  0.00000  0.09060
       8     H     0.43983  0.43983  0.00000  0.12034
       9     H     0.45372  0.45372  0.00000  0.09256

   Total alpha = 16.00000, Total beta = 16.00000, Total charge = -0.00000

*** Psi4 exiting successfully. Buy a developer a beer!
