  ==> Input File <==

--------------------------------------------------------------------------
set {
	reference rhf
	basis 6-31G*
}

set_num_threads( 4 )
memory 2 gb

molecule MOL {
0 1

H	 0.469937	 3.351668	 0.522587
C	 0.466260	 2.641364	 1.358696
C	 -0.803728	 1.843645	 1.511613
O	 1.417194	 2.544816	 2.064496
C	 -1.220012	 1.144545	 0.209990
H	 -0.666695	 1.133789	 2.319100
H	 -1.585679	 2.541183	 1.809353
C	 -0.252658	 0.041456	 -0.226725
H	 -2.210614	 0.721652	 0.348391
H	 -1.315123	 1.884611	 -0.583114
C	 1.180775	 0.282413	 0.250794
H	 -0.266029	 -0.034465	 -1.312038
H	 -0.597733	 -0.921000	 0.146291
C	 2.148627	 -0.814315	 -0.201312
H	 1.516199	 1.249228	 -0.115937
H	 1.192670	 0.346017	 1.338083
C	 3.580890	 -0.659131	 0.322722
H	 2.166869	 -0.852443	 -1.289387
H	 1.762857	 -1.776509	 0.128956
C	 4.324889	 0.564933	 -0.213704
H	 4.142010	 -1.551473	 0.056605
H	 3.564836	 -0.624694	 1.410140
H	 4.342616	 0.565491	 -1.300421
H	 3.866655	 1.493402	 0.110242
H	 5.353900	 0.572371	 0.132816

	symmetry c1
}
set optking {
	frozen_dihedral = ("
		3 5 8 12
	")
}

ee = optimize('scf')
oeprop('DIPOLE', 'QUADRUPOLE', 'MULLIKEN_CHARGES')
f=open( 'psi4out.xyz', 'w' )
f.write( "25  " )
f.write( str(ee) + "\n" )
f.write( MOL.save_string_xyz() )
f.close()
--------------------------------------------------------------------------

    Molecular point group: c1
  Charge       = 0
  Multiplicity = 1
  Basis Set: 6-31G*
  Basis Set:
  @DF-RHF Final Energy:  -387.10404970660170
    Total Energy =                       -387.1040497066020407
    Molecular point group: c1
  Basis Set: 6-31G*
  Basis Set:
  Basis Set: 6-31G*
  Basis Set:
  @DF-RHF Final Energy:  -387.11100067155417
    Total Energy =                       -387.1110006715542795
  Basis Set: 6-31G*
  Basis Set:
  Basis Set: 6-31G*
  Basis Set:
  @DF-RHF Final Energy:  -387.11248753479839
    Total Energy =                       -387.1124875347986745
  Basis Set: 6-31G*
  Basis Set:
  Basis Set: 6-31G*
  Basis Set:
  @DF-RHF Final Energy:  -387.11293537730961
    Total Energy =                       -387.1129353773090997
  Basis Set: 6-31G*
  Basis Set:
  @DF-RHF Final Energy:  -387.11449532336866
    Total Energy =                       -387.1144953233683736
  @DF-RHF Final Energy:  -387.11460554895933
    Total Energy =                       -387.1146055489602986
  @DF-RHF Final Energy:  -387.11461660233164
    Total Energy =                       -387.1146166023320347
  @DF-RHF Final Energy:  -387.11471939063500
    Total Energy =                       -387.1147193906344910
  Basis Set: 6-31G*
  Basis Set:
  @DF-RHF Final Energy:  -387.11473161285369
    Total Energy =                       -387.1147316128532339
  Basis Set: 6-31G*
  Basis Set:
  Basis Set: 6-31G*
  Basis Set:
  @DF-RHF Final Energy:  -387.11470751030242
    Total Energy =                       -387.1147075103024235
  Basis Set: 6-31G*
  Basis Set:
  Basis Set: 6-31G*
  Basis Set:
  @DF-RHF Final Energy:  -387.11473740936304
    Total Energy =                       -387.1147374093627604
  Basis Set: 6-31G*
  Basis Set:
  Charge       = 0
  Multiplicity = 1
  Basis Set: 6-31G*
  Basis Set:

    Orbital Energies (a.u.)
    -----------------------

    Doubly Occupied:

       1A    -20.560609     2A    -11.326828     3A    -11.235695
       4A    -11.235089     5A    -11.224246     6A    -11.217379
       7A    -11.215707     8A    -11.214312     9A    -11.205859
      10A     -1.401614    11A     -1.101335    12A     -1.065725
      13A     -1.008666    14A     -0.943863    15A     -0.880990
      16A     -0.813034    17A     -0.787501    18A     -0.777247
      19A     -0.661242    20A     -0.657974    21A     -0.633050
      22A     -0.626799    23A     -0.606615    24A     -0.591096
      25A     -0.562305    26A     -0.554305    27A     -0.537456
      28A     -0.526357    29A     -0.508121    30A     -0.501611
      31A     -0.479005    32A     -0.470726    33A     -0.460226
      34A     -0.453180    35A     -0.442486    36A     -0.409202

  @DF-RHF Final Energy:  -387.11473759943692

   => Energetics <=

    Nuclear Repulsion Energy =            457.2045923001638812
    One-Electron Energy =               -1430.8437508695594715
    Two-Electron Energy =                 586.5244209699583280
    DFT Exchange-Correlation Energy =       0.0000000000000000
    Empirical Dispersion Energy =           0.0000000000000000
    PCM Polarization Energy =               0.0000000000000000
    EFP Energy =                            0.0000000000000000
    Total Energy =                       -387.1147375994372624
    Molecular point group: c1
  Basis Set: 6-31G*
  Basis Set:

  -Total Gradient:
     Atom            X                  Y                   Z
    ------   -----------------  -----------------  -----------------
       1       -0.000006219193    -0.000000482207    -0.000003813400
       2        0.000004909579     0.000006931964    -0.000003732635
       3        0.002458746975     0.003110597152    -0.002292837122
       4       -0.000001106109    -0.000000983989     0.000005455540
       5       -0.002632944965    -0.003632701502     0.003298826934
       6       -0.000001975152    -0.000005647942    -0.000006065874
       7       -0.000004721255    -0.000006360513    -0.000002698309
       8       -0.004247243117    -0.003559752803    -0.000862328832
       9       -0.000003547907     0.000000927202     0.000000520460
      10        0.000003954248     0.000001939012     0.000011372310
      11       -0.000014180162     0.000031202100     0.000004869745
      12        0.004428482344     0.004101870719    -0.000134651435
      13        0.000009962279    -0.000000044771     0.000001128461
      14        0.000009510540    -0.000031046931    -0.000004549277
      15       -0.000002164645    -0.000015310165     0.000002835438
      16       -0.000013571668     0.000003848340    -0.000003197689
      17       -0.000001813517    -0.000001300576    -0.000014164465
      18       -0.000000418642     0.000006172337     0.000008211669
      19        0.000016683391    -0.000008630339    -0.000006433982
      20        0.000002328709     0.000002367202     0.000003208810
      21        0.000001897014    -0.000006200710     0.000006796542
      22       -0.000007915235     0.000008179473    -0.000006191030
      23       -0.000001659636    -0.000000409262    -0.000001945237
      24        0.000003094509    -0.000003941582     0.000002548523
      25       -0.000000088387    -0.000001222216    -0.000003165141

  **** Optimization is complete! (in 12 steps) ****
    Final optimized geometry and variables:
    Molecular point group: c1

    Geometry (in Angstrom), charge = 0, multiplicity = 1:

    H           -1.015084567331     2.626580983965    -0.051182352698
    C           -0.999833513495     2.014560204235     0.859157978083
    C           -2.083221112605     0.968302597574     0.946106310086
    O           -0.194524495023     2.223906967332     1.707126733840
    C           -2.362471700879     0.219381059326    -0.366455691051
    H           -1.854027012601     0.302024677277     1.769556538399
    H           -2.987416157416     1.511557553015     1.221923136408
    C           -1.358919006436    -0.880330326221    -0.782283322988
    H           -3.352624578046    -0.219301916591    -0.306984340568
    H           -2.421880966899     0.961703566426    -1.160704074056
    C            0.096398268533    -0.676968297672    -0.341993786189
    H           -1.349760270080    -0.927279917265    -1.868022568222
    H           -1.703680357799    -1.843839932730    -0.417771990647
    C            1.008585306805    -1.797109280059    -0.851163312631
    H            0.456569411426     0.278980784111    -0.713420874560
    H            0.164609829244    -0.631180846618     0.741300626498
    C            2.458428498955    -1.710571907623    -0.361052699579
    H            0.997878027814    -1.804378813243    -1.940076119000
    H            0.594873511627    -2.753593978844    -0.537713731828
    C            3.225815715413    -0.484347185951    -0.858627260547
    H            2.982901392631    -2.606679327658    -0.683823104192
    H            2.471065105275    -1.726432028128     0.726571672334
    H            3.210125532651    -0.427441143112    -1.944048043148
    H            2.810298798199     0.439331166282    -0.470358634739
    H            4.264589886208    -0.528751436566    -0.546482700417

  Mulliken Charges: (a.u.)
   Center  Symbol    Alpha    Beta     Spin     Total
       1     H     0.43177  0.43177  0.00000  0.13646
       2     C     2.82846  2.82846  0.00000  0.34308
       3     C     3.21138  3.21138  0.00000 -0.42276
       4     O     4.24172  4.24172  0.00000 -0.48344
       5     C     3.16761  3.16761  0.00000 -0.33523
       6     H     0.39862  0.39862  0.00000  0.20276
       7     H     0.40414  0.40414  0.00000  0.19172
       8     C     3.15124  3.15124  0.00000 -0.30248
       9     H     0.41119  0.41119  0.00000  0.17761
      10     H     0.42002  0.42002  0.00000  0.15997
      11     C     3.16643  3.16643  0.00000 -0.33285
      12     H     0.41903  0.41903  0.00000  0.16193
      13     H     0.41901  0.41901  0.00000  0.16199
      14     C     3.15187  3.15187  0.00000 -0.30373
      15     H     0.42121  0.42121  0.00000  0.15758
      16     H     0.41389  0.41389  0.00000  0.17223
      17     C     3.15230  3.15230  0.00000 -0.30461
      18     H     0.42459  0.42459  0.00000  0.15083
      19     H     0.42235  0.42235  0.00000  0.15531
      20     C     3.24274  3.24274  0.00000 -0.48547
      21     H     0.42135  0.42135  0.00000  0.15730
      22     H     0.42089  0.42089  0.00000  0.15821
      23     H     0.42390  0.42390  0.00000  0.15219
      24     H     0.41577  0.41577  0.00000  0.16847
      25     H     0.41854  0.41854  0.00000  0.16293

   Total alpha = 36.00000, Total beta = 36.00000, Total charge = -0.00000
