  ==> Input File <==

--------------------------------------------------------------------------
set {
	reference rhf
	basis 6-31G*
}

set_num_threads( 1 )
memory 2 gb

molecule MOL {
0 1

O	 0.625848	 1.349995	 -0.000749
C	 0.486307	 0.169203	 0.000779
C	 1.608116	 -0.841643	 0.000302
O	 -0.698257	 -0.426125	 0.001050
C	 2.990107	 -0.200498	 -0.000684
H	 1.468623	 -1.481519	 -0.865924
H	 1.469683	 -1.481289	 0.866878
H	 3.129736	 0.423364	 -0.875135
H	 3.757882	 -0.966877	 -0.001197
H	 3.130964	 0.423383	 0.873533
C	 -1.818777	 0.338674	 0.433392
C	 -3.039273	 -0.552510	 0.341241
H	 -1.913409	 1.212512	 -0.196716
H	 -1.645701	 0.676217	 1.446161
H	 -3.195718	 -0.886485	 -0.678143
H	 -3.920350	 -0.006731	 0.662918
H	 -2.926673	 -1.425731	 0.973746

	symmetry c1
}
set optking {
	frozen_dihedral = ("
		2 4 11 13,
		4 2 3 6
	")
}

ee = energy('scf')
oeprop('DIPOLE', 'QUADRUPOLE', 'MULLIKEN_CHARGES')
f=open( 'psi4out.xyz', 'w' )
f.write( "17  " )
f.write( str(ee) + "\n" )
f.write( MOL.save_string_xyz() )
f.close()
--------------------------------------------------------------------------

    Molecular point group: c1

    Geometry (in Angstrom), charge = 0, multiplicity = 1:

       Center              X                  Y                   Z               Mass
    ------------   -----------------  -----------------  -----------------  -----------------
           O          0.616936552121     1.367676461203    -0.113698694817    15.994914619560
           C          0.477395552121     0.186884461203    -0.112170694817    12.000000000000
           C          1.599204552121    -0.823961538797    -0.112647694817    12.000000000000
           O         -0.707168447879    -0.408443538797    -0.111899694817    15.994914619560
           C          2.981195552121    -0.182816538797    -0.113633694817    12.000000000000
           H          1.459711552121    -1.463837538797    -0.978873694817     1.007825032070
           H          1.460771552121    -1.463607538797     0.753928305183     1.007825032070
           H          3.120824552121     0.441045461203    -0.988084694817     1.007825032070
           H          3.748970552121    -0.949195538797    -0.114146694817     1.007825032070
           H          3.122052552121     0.441064461203     0.760583305183     1.007825032070
           C         -1.827688447879     0.356355461203     0.320442305183    12.000000000000
           C         -3.048184447879    -0.534828538797     0.228291305183    12.000000000000
           H         -1.922320447879     1.230193461203    -0.309665694817     1.007825032070
           H         -1.654612447879     0.693898461203     1.333211305183     1.007825032070
           H         -3.204629447879    -0.868803538797    -0.791092694817     1.007825032070
           H         -3.929261447879     0.010950461203     0.549968305183     1.007825032070
           H         -2.935584447879    -1.408049538797     0.860796305183     1.007825032070

  Charge       = 0
  Multiplicity = 1
  Basis Set: 6-31G*
  Basis Set:

    Orbital Energies (a.u.)
    -----------------------

    Doubly Occupied:

       1A    -20.598675     2A    -20.545083     3A    -11.371468
       4A    -11.285825     5A    -11.237593     6A    -11.222681
       7A    -11.215702     8A     -1.466859     9A     -1.362071
      10A     -1.069686    11A     -1.032221    12A     -0.910316
      13A     -0.848665    14A     -0.772753    15A     -0.697297
      16A     -0.687238    17A     -0.663840    18A     -0.630167
      19A     -0.586519    20A     -0.568778    21A     -0.558532
      22A     -0.523738    23A     -0.518984    24A     -0.516117
      25A     -0.504370    26A     -0.492861    27A     -0.452116
      28A     -0.434986

  @DF-RHF Final Energy:  -344.90955550685459

   => Energetics <=

    Nuclear Repulsion Energy =            314.6783120253324455
    One-Electron Energy =               -1093.6254252790474766
    Two-Electron Energy =                 434.0375577468601591
    DFT Exchange-Correlation Energy =       0.0000000000000000
    Empirical Dispersion Energy =           0.0000000000000000
    PCM Polarization Energy =               0.0000000000000000
    EFP Energy =                            0.0000000000000000
    Total Energy =                       -344.9095555068549288

  Mulliken Charges: (a.u.)
   Center  Symbol    Alpha    Beta     Spin     Total
       1     O     4.28417  4.28417  0.00000 -0.56835
       2     C     2.60526  2.60526  0.00000  0.78948
       3     C     3.20551  3.20551  0.00000 -0.41103
       4     O     4.31386  4.31386  0.00000 -0.62772
       5     C     3.23896  3.23896  0.00000 -0.47792
       6     H     0.40001  0.40001  0.00000  0.19998
       7     H     0.40200  0.40200  0.00000  0.19599
       8     H     0.40961  0.40961  0.00000  0.18077
       9     H     0.41829  0.41829  0.00000  0.16342
      10     H     0.41039  0.41039  0.00000  0.17921
      11     C     3.00324  3.00324  0.00000 -0.00648
      12     C     3.24842  3.24842  0.00000 -0.49684
      13     H     0.40591  0.40591  0.00000  0.18818
      14     H     0.41481  0.41481  0.00000  0.17038
      15     H     0.41064  0.41064  0.00000  0.17871
      16     H     0.41639  0.41639  0.00000  0.16722
      17     H     0.41251  0.41251  0.00000  0.17499

   Total alpha = 28.00000, Total beta = 28.00000, Total charge = -0.00000
