                              Psi4 1.0.54 Driver

  ==> Input File <==

--------------------------------------------------------------------------
set {
	reference rhf
	basis cc-pvtz
}

set_num_threads( 4 )
memory 2 gb

molecule MOL {
0 1

H	 2.241989	 -0.548030	 0.314260
C	 1.819890	 -0.553734	 -0.699374
C	 0.536386	 0.212686	 -0.860672
O	 2.371217	 -1.138793	 -1.566195
C	 -0.554654	 -0.292621	 0.086567
H	 0.223679	 0.144336	 -1.894296
H	 0.750662	 1.256419	 -0.640254
C	 -1.846385	 0.513195	 -0.016346
H	 -0.761913	 -1.336241	 -0.132157
H	 -0.191096	 -0.258692	 1.110455
C	 -3.089953	 -0.365049	 -0.098564
H	 -1.798267	 1.154820	 -0.891143
H	 -1.925398	 1.173265	 0.842889
H	 -3.055079	 -1.012299	 -0.968245
H	 -3.988403	 0.236438	 -0.170014
H	 -3.183055	 -0.995885	 0.779079

	symmetry c1
}
set optking {
	frozen_dihedral = ("
		9 5 8 12
	")
}

ee,wfn = optimize('scf', return_wfn=True)
oeprop( wfn, 'DIPOLE', 'QUADRUPOLE', 'MULLIKEN_CHARGES')
f=open( 'psi4out.xyz', 'w' )
f.write( "16  " )
f.write( str(ee) + "\n" )
f.write( MOL.save_string_xyz() )
f.close()
--------------------------------------------------------------------------

    Molecular point group: c1
  Charge       = 0
  Multiplicity = 1
  Basis Set: CC-PVTZ
  Basis Set:
  @DF-RHF Final Energy:  -270.11400485415766
    Total Energy =                       -270.1140048541573151
    Molecular point group: c1
  Basis Set: CC-PVTZ
  Basis Set:
  Basis Set: CC-PVTZ
  Basis Set:
  @DF-RHF Final Energy:  -270.11428625121368
    Total Energy =                       -270.1142862512137981
  Basis Set: CC-PVTZ
  Basis Set:
  Basis Set: CC-PVTZ
  Basis Set:
  @DF-RHF Final Energy:  -270.11409884521390
    Total Energy =                       -270.1140988452139027
  Basis Set: CC-PVTZ
  Basis Set:
  Basis Set: CC-PVTZ
  Basis Set:
  @DF-RHF Final Energy:  -270.11435471980815
    Total Energy =                       -270.1143547198079773
  Basis Set: CC-PVTZ
  Basis Set:
  Basis Set: CC-PVTZ
  Basis Set:
  @DF-RHF Final Energy:  -270.11435895528246
    Total Energy =                       -270.1143589552825688
  Basis Set: CC-PVTZ
  Basis Set:
  Charge       = 0
  Multiplicity = 1
  Basis Set: CC-PVTZ
  Basis Set:

    Orbital Energies (a.u.)
    -----------------------

    Doubly Occupied:

       1A    -20.552195     2A    -11.321184     3A    -11.234857
       4A    -11.233998     5A    -11.227148     6A    -11.216681
       7A     -1.406951     8A     -1.095623     9A     -1.019870
      10A     -0.906665    11A     -0.813529    12A     -0.794838
      13A     -0.678065    14A     -0.651145    15A     -0.628172
      16A     -0.603469    17A     -0.589008    18A     -0.552583
      19A     -0.521816    20A     -0.520143    21A     -0.488777
      22A     -0.481037    23A     -0.473799    24A     -0.411274

  @DF-RHF Final Energy:  -270.11435842624547

   => Energetics <=

    Nuclear Repulsion Energy =            229.5158880719090462
    One-Electron Energy =                -820.4148428472526575
    Two-Electron Energy =                 320.7845963490983081
    DFT Exchange-Correlation Energy =       0.0000000000000000
    Empirical Dispersion Energy =           0.0000000000000000
    PCM Polarization Energy =               0.0000000000000000
    EFP Energy =                            0.0000000000000000
    Total Energy =                       -270.1143584262452464
    Molecular point group: c1
  Basis Set: CC-PVTZ
  Basis Set:

  -Total Gradient:
     Atom            X                  Y                   Z
    ------   -----------------  -----------------  -----------------
       1       -0.000064367076    -0.000004002799    -0.000095431886
       2        0.000078460466    -0.000029576724    -0.000064798396
       3       -0.000048443738    -0.000098735749     0.000022166412
       4       -0.000086638646     0.000064954914     0.000111605157
       5        0.001325111626     0.001413319736    -0.003868415442
       6        0.000007124390     0.000064905981     0.000011663401
       7        0.000023196325    -0.000031630253     0.000045352319
       8       -0.002260200865    -0.003394978665    -0.001641486317
       9       -0.000597238556    -0.000555936874     0.003490401772
      10       -0.000086830501    -0.000026486911     0.000023974801
      11       -0.000009593322    -0.000033202066    -0.000028182838
      12        0.001500241556     0.002552449223     0.001997901949
      13        0.000078071594     0.000038393243    -0.000049206793
      14       -0.000002088389     0.000027320660     0.000081248462
      15        0.000123930044    -0.000011319637     0.000011860570
      16        0.000019265091     0.000024525919    -0.000048653168

  **** Optimization is complete! (in 6 steps) ****
    Final optimized geometry and variables:
    Molecular point group: c1

    Geometry (in Angstrom), charge = 0, multiplicity = 1:

    H            2.371633787106    -0.252067306959     0.867970737128
    C            1.966406695253    -0.260635512035    -0.152302870292
    C            0.679196136104     0.494541410941    -0.334507043339
    O            2.536357938795    -0.840552772738    -1.010459265196
    C           -0.426744365914    -0.028288957273     0.583925167632
    H            0.387913840242     0.433478454221    -1.374815163646
    H            0.877261414395     1.538386149343    -0.099261894935
    C           -1.733611801556     0.781730664982     0.489496146812
    H           -0.623259250938    -1.073023942529     0.365703193478
    H           -0.071806389974    -0.015626482328     1.610441875888
    C           -2.986398428575    -0.084713404824     0.452888228678
    H           -1.702078185210     1.428447136726    -0.381213134297
    H           -1.793216516938     1.456312083050     1.337711080146
    H           -2.988129675211    -0.731819956908    -0.417384076406
    H           -3.881851494541     0.524363630581     0.417387540607
    H           -3.049523033161    -0.715778092495     1.333037647809

  Mulliken Charges: (a.u.)
   Center  Symbol    Alpha    Beta     Spin     Total
       1     H     0.46554  0.46554  0.00000  0.06892
       2     C     2.90952  2.90952  0.00000  0.18097
       3     C     3.07915  3.07915  0.00000 -0.15830
       4     O     4.16358  4.16358  0.00000 -0.32716
       5     C     3.10580  3.10580  0.00000 -0.21160
       6     H     0.44224  0.44224  0.00000  0.11551
       7     H     0.44881  0.44881  0.00000  0.10238
       8     C     3.08664  3.08664  0.00000 -0.17328
       9     H     0.44559  0.44559  0.00000  0.10883
      10     H     0.44940  0.44940  0.00000  0.10119
      11     C     3.14673  3.14673  0.00000 -0.29347
      12     H     0.45185  0.45185  0.00000  0.09630
      13     H     0.45081  0.45081  0.00000  0.09839
      14     H     0.45301  0.45301  0.00000  0.09398
      15     H     0.44794  0.44794  0.00000  0.10412
      16     H     0.45339  0.45339  0.00000  0.09321

   Total alpha = 24.00000, Total beta = 24.00000, Total charge = -0.00000

*** Psi4 exiting successfully. Buy a developer a beer!
