  ==> Input File <==

--------------------------------------------------------------------------
set {
	reference rhf
	basis 6-31G*
}

set_num_threads( 4 )
memory 2 gb

molecule MOL {
0 1

H	 2.845955	 -0.323208	 0.022310
C	 1.900140	 0.071967	 -0.330070
C	 0.778463	 -0.508087	 0.517968
H	 1.782469	 -0.206877	 -1.370777
H	 1.922247	 1.149867	 -0.254252
N	 -0.540928	 0.005139	 0.058438
H	 0.716718	 -1.581298	 0.454712
H	 0.859711	 -0.198647	 1.550086
O	 -0.786277	 -0.063530	 -1.105333
O	 -1.266920	 0.451665	 0.893932

	symmetry c1
}
set optking {
	frozen_dihedral = ("
		9 6 3 2
	")
}

ee = optimize('scf')
oeprop('DIPOLE', 'QUADRUPOLE', 'MULLIKEN_CHARGES')
f=open( 'psi4out.xyz', 'w' )
f.write( "10  " )
f.write( str(ee) + "\n" )
f.write( MOL.save_string_xyz() )
f.close()
--------------------------------------------------------------------------

    Molecular point group: c1
  Charge       = 0
  Multiplicity = 1
  Basis Set: 6-31G*
  Basis Set:
  @DF-RHF Final Energy:  -282.70020442988806
    Total Energy =                       -282.7002044298881174
    Molecular point group: c1
  Basis Set: 6-31G*
  Basis Set:
  Basis Set: 6-31G*
  Basis Set:
  @DF-RHF Final Energy:  -282.69797809500716
    Total Energy =                       -282.6979780950069880
  Basis Set: 6-31G*
  Basis Set:
  Basis Set: 6-31G*
  Basis Set:
  @DF-RHF Final Energy:  -282.70028124903149
    Total Energy =                       -282.7002812490312635
  Basis Set: 6-31G*
  Basis Set:
  Basis Set: 6-31G*
  Basis Set:
  @DF-RHF Final Energy:  -282.70049411731225
    Total Energy =                       -282.7004941173122461
  Basis Set: 6-31G*
  Basis Set:
  Basis Set: 6-31G*
  Basis Set:
  @DF-RHF Final Energy:  -282.70049547777506
    Total Energy =                       -282.7004954777752346
  Basis Set: 6-31G*
  Basis Set:
  Charge       = 0
  Multiplicity = 1
  Basis Set: 6-31G*
  Basis Set:

    Orbital Energies (a.u.)
    -----------------------

    Doubly Occupied:

       1A    -20.604353     2A    -20.601027     3A    -15.849256
       4A    -11.304296     5A    -11.249869     6A     -1.632863
       7A     -1.418328     8A     -1.126639     9A     -0.967417
      10A     -0.836101    11A     -0.761634    12A     -0.740188
      13A     -0.726290    14A     -0.651609    15A     -0.591058
      16A     -0.563431    17A     -0.542963    18A     -0.486248
      19A     -0.478200    20A     -0.450514

  @DF-RHF Final Energy:  -282.70049618147902

   => Energetics <=

    Nuclear Repulsion Energy =            186.1325966465647639
    One-Electron Energy =                -754.5016193059458374
    Two-Electron Energy =                 285.6685264779019349
    DFT Exchange-Correlation Energy =       0.0000000000000000
    Empirical Dispersion Energy =           0.0000000000000000
    PCM Polarization Energy =               0.0000000000000000
    EFP Energy =                            0.0000000000000000
    Total Energy =                       -282.7004961814790818
    Molecular point group: c1
  Basis Set: 6-31G*
  Basis Set:

  -Total Gradient:
     Atom            X                  Y                   Z
    ------   -----------------  -----------------  -----------------
       1        0.000007867149     0.000001080807    -0.000002899031
       2       -0.000013062385    -0.000059558356    -0.000050938135
       3        0.000029292578     0.000111408545     0.000064733162
       4        0.000003944889     0.000008561322    -0.000003506146
       5        0.000001643195    -0.000008726319    -0.000001580832
       6       -0.000035763667    -0.000179978005    -0.000108838548
       7       -0.000003301929     0.000002311120     0.000000733125
       8       -0.000013746610     0.000003531870    -0.000001934651
       9        0.000060145937     0.000097026745     0.000059038302
      10       -0.000037019156     0.000024342269     0.000045192751

  **** Optimization is complete! (in 6 steps) ****
    Final optimized geometry and variables:
    Molecular point group: c1

    Geometry (in Angstrom), charge = 0, multiplicity = 1:

    H            2.853145801909    -0.314814403589     0.030696409912
    C            1.909703740597     0.071349279115    -0.337919856341
    C            0.785080595267    -0.491983229444     0.514705099836
    H            1.794023158797    -0.218121453073    -1.372403557849
    H            1.939194180710     1.152985998436    -0.276928108425
    N           -0.541072081741     0.012958612176     0.061845726955
    H            0.718051335756    -1.567736270649     0.425768995564
    H            0.862837146227    -0.217137031126     1.552995175122
    O           -0.788345107123    -0.073089874017    -1.102139055138
    O           -1.274304243738     0.450715205623     0.892672469809

  Mulliken Charges: (a.u.)
   Center  Symbol    Alpha    Beta     Spin     Total
       1     H     0.40695  0.40695  0.00000  0.18610
       2     C     3.25585  3.25585  0.00000 -0.51171
       3     C     3.09425  3.09425  0.00000 -0.18849
       4     H     0.39249  0.39249  0.00000  0.21502
       5     H     0.40368  0.40368  0.00000  0.19264
       6     N     3.21837  3.21837  0.00000  0.56327
       7     H     0.38625  0.38625  0.00000  0.22750
       8     H     0.38494  0.38494  0.00000  0.23012
       9     O     4.22977  4.22977  0.00000 -0.45954
      10     O     4.22745  4.22745  0.00000 -0.45491

   Total alpha = 20.00000, Total beta = 20.00000, Total charge =  0.00000
