  ==> Input File <==

--------------------------------------------------------------------------
set {
	reference rhf
	basis cc-pvtz
}

set_num_threads( 4 )
memory 2 gb

molecule MOL {
0 1

H	 -0.000342	 -0.223902	 -3.352295
C	 -0.027146	 0.371068	 -2.446756
C	 0.024493	 -0.518541	 -1.216015
H	 -0.932586	 0.964979	 -2.449855
H	 0.819708	 1.049865	 -2.473332
N	 -0.042516	 0.263377	 -0.000000
H	 -0.822211	 -1.197105	 -1.225584
H	 0.921114	 -1.142847	 -1.255206
C	 0.024493	 -0.518541	 1.216015
H	 0.682568	 0.950412	 -0.000000
C	 -0.097583	 -2.004506	 0.923103
H	 0.980879	 -0.321504	 1.689250
H	 -0.743166	 -0.225144	 1.937015
H	 0.683953	 -2.324722	 0.245442
H	 -0.022656	 -2.583540	 1.836238
H	 -1.054458	 -2.234499	 0.464708

	symmetry c1
}
set optking {
	frozen_dihedral = ("
		12 9 6 3
	")
}

ee = optimize('scf')
oeprop('DIPOLE', 'QUADRUPOLE', 'MULLIKEN_CHARGES')
f=open( 'psi4out.xyz', 'w' )
f.write( "16  " )
f.write( str(ee) + "\n" )
f.write( MOL.save_string_xyz() )
f.close()
--------------------------------------------------------------------------

    Molecular point group: c1
  Charge       = 0
  Multiplicity = 1
  Basis Set: CC-PVTZ
  Basis Set:
  @DF-RHF Final Energy:  -212.37497601210703
    Total Energy =                       -212.3749760121071404
    Molecular point group: c1
  Basis Set: CC-PVTZ
  Basis Set:
  Basis Set: CC-PVTZ
  Basis Set:
  @DF-RHF Final Energy:  -212.37461468905209
    Total Energy =                       -212.3746146890523505
  Basis Set: CC-PVTZ
  Basis Set:
  Basis Set: CC-PVTZ
  Basis Set:
  @DF-RHF Final Energy:  -212.38223672211200
    Total Energy =                       -212.3822367221119976
  Basis Set: CC-PVTZ
  Basis Set:
  Basis Set: CC-PVTZ
  Basis Set:
  @DF-RHF Final Energy:  -212.38368669082485
    Total Energy =                       -212.3836866908247885
  Basis Set: CC-PVTZ
  Basis Set:
  Basis Set: CC-PVTZ
  Basis Set:
  @DF-RHF Final Energy:  -212.38393592766124
    Total Energy =                       -212.3839359276611276
  Basis Set: CC-PVTZ
  Basis Set:
  Basis Set: CC-PVTZ
  Basis Set:
  @DF-RHF Final Energy:  -212.38401456580354
    Total Energy =                       -212.3840145658035681
  Basis Set: CC-PVTZ
  Basis Set:
  Basis Set: CC-PVTZ
  Basis Set:
  @DF-RHF Final Energy:  -212.38401919678265
    Total Energy =                       -212.3840191967829014
  Basis Set: CC-PVTZ
  Basis Set:
  Charge       = 0
  Multiplicity = 1
  Basis Set: CC-PVTZ
  Basis Set:

    Orbital Energies (a.u.)
    -----------------------

    Doubly Occupied:

       1A    -15.522766     2A    -11.239785     3A    -11.237811
       4A    -11.208858     5A    -11.204939     6A     -1.197385
       7A     -1.025036     8A     -0.969855     9A     -0.854213
      10A     -0.792151    11A     -0.662459    12A     -0.628212
      13A     -0.605675    14A     -0.595019    15A     -0.538183
      16A     -0.519647    17A     -0.510993    18A     -0.494270
      19A     -0.482874    20A     -0.478858    21A     -0.346783

  @DF-RHF Final Energy:  -212.38401933169507

   => Energetics <=

    Nuclear Repulsion Energy =            191.7537788944520116
    One-Electron Energy =                -666.0440628724227281
    Two-Electron Energy =                 261.9062646462756447
    DFT Exchange-Correlation Energy =       0.0000000000000000
    Empirical Dispersion Energy =           0.0000000000000000
    PCM Polarization Energy =               0.0000000000000000
    EFP Energy =                            0.0000000000000000
    Total Energy =                       -212.3840193316950717
    Molecular point group: c1
  Basis Set: CC-PVTZ
  Basis Set:

  -Total Gradient:
     Atom            X                  Y                   Z
    ------   -----------------  -----------------  -----------------
       1       -0.000000113017     0.000003429835    -0.000001522897
       2       -0.000000580933    -0.000001064844    -0.000011003063
       3       -0.002783205456    -0.000254807143    -0.000005990450
       4       -0.000001774744     0.000001705947    -0.000002274442
       5       -0.000000005907    -0.000000750928    -0.000000157936
       6        0.003832925224     0.001046587470     0.000443008594
       7        0.000001232303     0.000001996980    -0.000006137477
       8        0.000001643636    -0.000007575998     0.000004818995
       9        0.000396800976    -0.003415316045    -0.002054440249
      10       -0.000009205451     0.000003294188    -0.000000385543
      11       -0.000011403194     0.000003858814     0.000002208802
      12       -0.001439741993     0.002620263246     0.001632120091
      13        0.000003701014    -0.000006962793     0.000004459384
      14        0.000003957101     0.000002373380    -0.000012939795
      15        0.000002941371     0.000004721083    -0.000003252422
      16        0.000002829071    -0.000001753195     0.000011488410

  **** Optimization is complete! (in 8 steps) ****
    Final optimized geometry and variables:
    Molecular point group: c1

    Geometry (in Angstrom), charge = 0, multiplicity = 1:

    H           -0.013185433178     0.473428312998    -3.109418617745
    C           -0.049431902445     0.982522858946    -2.153107682653
    C            0.076955144758    -0.011936035977    -1.009800900126
    H           -0.983557456175     1.525902894233    -2.084038115287
    H            0.761141559959     1.704677346331    -2.133887003031
    N            0.000547425688     0.679214329478     0.259315339638
    H           -0.735109015729    -0.724103874743    -1.074696613585
    H            1.001423582675    -0.579397433119    -1.138468146036
    C            0.065593013175    -0.063037330498     1.516537575682
    H            0.640798345602     1.440333049177     0.276007276917
    C           -0.129674274353    -1.569320569726     1.414727200134
    H            1.006691589372     0.138921491048     2.024568508904
    H           -0.704770065727     0.325108109998     2.176959095636
    H            0.635378285767    -2.045738513597     0.814852141760
    H           -0.085166334953    -1.997741619734     2.409134268469
    H           -1.095961114236    -1.819036718935     0.994112170264

  Mulliken Charges: (a.u.)
   Center  Symbol    Alpha    Beta     Spin     Total
       1     H     0.45425  0.45425  0.00000  0.09150
       2     C     3.14423  3.14423  0.00000 -0.28846
       3     C     3.02082  3.02082  0.00000 -0.04164
       4     H     0.45006  0.45006  0.00000  0.09988
       5     H     0.45996  0.45996  0.00000  0.08008
       6     N     3.64582  3.64582  0.00000 -0.29163
       7     H     0.45687  0.45687  0.00000  0.08627
       8     H     0.47243  0.47243  0.00000  0.05515
       9     C     3.01734  3.01734  0.00000 -0.03467
      10     H     0.44132  0.44132  0.00000  0.11737
      11     C     3.16220  3.16220  0.00000 -0.32441
      12     H     0.46723  0.46723  0.00000  0.06554
      13     H     0.46088  0.46088  0.00000  0.07824
      14     H     0.45126  0.45126  0.00000  0.09748
      15     H     0.44528  0.44528  0.00000  0.10945
      16     H     0.45007  0.45007  0.00000  0.09985

   Total alpha = 21.00000, Total beta = 21.00000, Total charge =  0.00000
