                              Psi4 1.0.54 Driver

  ==> Input File <==

--------------------------------------------------------------------------
set {
	reference rhf
	basis cc-pvtz
}

set_num_threads( 4 )
memory 2 gb

molecule MOL {
0 1

O	 -2.440701	 -0.934798	 -0.415053
C	 -1.922978	 0.063265	 -0.045005
C	 -2.632749	 1.372204	 0.158357
O	 -0.637375	 0.157174	 0.243149
H	 -2.187724	 2.129143	 -0.474664
H	 -3.677681	 1.257276	 -0.079438
H	 -2.516788	 1.693160	 1.185542
C	 0.162530	 -1.009518	 0.097799
C	 1.587210	 -0.664190	 0.477086
H	 0.096803	 -1.356267	 -0.924704
H	 -0.233803	 -1.785900	 0.736810
C	 2.256770	 0.342732	 -0.454344
H	 2.154716	 -1.590834	 0.479041
H	 1.598751	 -0.289614	 1.496104
C	 3.771189	 0.173205	 -0.512731
H	 1.842521	 0.234243	 -1.453207
H	 2.016951	 1.348402	 -0.128830
H	 4.220006	 0.896720	 -1.183161
H	 4.043132	 -0.816578	 -0.864536
H	 4.217827	 0.308952	 0.466608

	symmetry c1
}
set optking {
	frozen_dihedral = ("
		16 12 9 8
	")
}

ee,wfn = optimize('scf', return_wfn=True)
oeprop( wfn, 'DIPOLE', 'QUADRUPOLE', 'MULLIKEN_CHARGES')
f=open( 'psi4out.xyz', 'w' )
f.write( "20  " )
f.write( str(ee) + "\n" )
f.write( MOL.save_string_xyz() )
f.close()
--------------------------------------------------------------------------

    Molecular point group: c1
  Charge       = 0
  Multiplicity = 1
  Basis Set: CC-PVTZ
  Basis Set:
  @DF-RHF Final Energy:  -384.08523225906129
    Total Energy =                       -384.0852322590613994
    Molecular point group: c1
  Basis Set: CC-PVTZ
  Basis Set:
  Basis Set: CC-PVTZ
  Basis Set:
  @DF-RHF Final Energy:  -384.08547257147723
    Total Energy =                       -384.0854725714768847
  Basis Set: CC-PVTZ
  Basis Set:
  Basis Set: CC-PVTZ
  Basis Set:
  @DF-RHF Final Energy:  -384.08531719120998
    Total Energy =                       -384.0853171912100379
  Basis Set: CC-PVTZ
  Basis Set:
  Basis Set: CC-PVTZ
  Basis Set:
  @DF-RHF Final Energy:  -384.08552226268978
    Total Energy =                       -384.0855222626902332
  Basis Set: CC-PVTZ
  Basis Set:
  Basis Set: CC-PVTZ
  Basis Set:
  @DF-RHF Final Energy:  -384.08552334386559
    Total Energy =                       -384.0855233438657024
  Basis Set: CC-PVTZ
  Basis Set:
  Charge       = 0
  Multiplicity = 1
  Basis Set: CC-PVTZ
  Basis Set:

    Orbital Energies (a.u.)
    -----------------------

    Doubly Occupied:

       1A    -20.594038     2A    -20.532495     3A    -11.366429
       4A    -11.280260     5A    -11.231474     6A    -11.223541
       7A    -11.219282     8A    -11.212216     9A     -1.470763
      10A     -1.364882    11A     -1.086601    12A     -1.029021
      13A     -0.982593    14A     -0.881355    15A     -0.813865
      16A     -0.775145    17A     -0.692066    18A     -0.688606
      19A     -0.669960    20A     -0.631049    21A     -0.599011
      22A     -0.594542    23A     -0.572930    24A     -0.553178
      25A     -0.548703    26A     -0.531887    27A     -0.511302
      28A     -0.486026    29A     -0.475894    30A     -0.471339
      31A     -0.452116    32A     -0.441703

  @DF-RHF Final Energy:  -384.08552418844113

   => Energetics <=

    Nuclear Repulsion Energy =            385.5351273219331460
    One-Electron Energy =               -1287.2727559390491479
    Two-Electron Energy =                 517.6521044286752158
    DFT Exchange-Correlation Energy =       0.0000000000000000
    Empirical Dispersion Energy =           0.0000000000000000
    PCM Polarization Energy =               0.0000000000000000
    EFP Energy =                            0.0000000000000000
    Total Energy =                       -384.0855241884407860
    Molecular point group: c1
  Basis Set: CC-PVTZ
  Basis Set:

  -Total Gradient:
     Atom            X                  Y                   Z
    ------   -----------------  -----------------  -----------------
       1       -0.000003198423    -0.000009994972    -0.000002022742
       2        0.000010840100     0.000009445470    -0.000019600391
       3       -0.000003909529     0.000000551938     0.000006834426
       4       -0.000005436136     0.000000491565     0.000033473363
       5        0.000001506255     0.000002905375    -0.000000568449
       6       -0.000000427996    -0.000003050645    -0.000000781107
       7        0.000000934450     0.000003344310     0.000000985359
       8        0.000954661069    -0.002140449505    -0.001647965695
       9       -0.001974242186     0.003608444540     0.002493700717
      10        0.000001935143    -0.000011310444    -0.000003958446
      11       -0.000001210473     0.000011465914     0.000002203084
      12        0.003716624436    -0.004071845972    -0.001702372402
      13       -0.000003465617     0.000003523061    -0.000000641161
      14       -0.000005374329     0.000002988790     0.000003230663
      15        0.000012028329    -0.000001729297    -0.000005404725
      16       -0.002696145801     0.002590719063     0.000836455126
      17        0.000012220792    -0.000001973214     0.000007117767
      18       -0.000000428385    -0.000000476273    -0.000004163325
      19       -0.000010436759     0.000004254443     0.000005159430
      20       -0.000006474947     0.000002695856    -0.000001681490

  **** Optimization is complete! (in 6 steps) ****
    Final optimized geometry and variables:
    Molecular point group: c1

    Geometry (in Angstrom), charge = 0, multiplicity = 1:

    O           -2.446652388477    -0.857576216022    -0.409287023199
    C           -1.923356103073     0.139796250146    -0.045143933644
    C           -2.614546700267     1.465833871652     0.101253305072
    O           -0.646728909267     0.216890485296     0.284363752839
    H           -2.132858294272     2.198227724032    -0.533725960440
    H           -3.652624151808     1.364349416139    -0.170350295452
    H           -2.528040221654     1.809759392147     1.123847533040
    C            0.135185164816    -0.967990928073     0.193690235235
    C            1.557980503027    -0.635061897418     0.586197313273
    H            0.086681735527    -1.344881659741    -0.818693755732
    H           -0.287582467640    -1.717124769772     0.848278561657
    C            2.244343994219     0.378834442435    -0.334958040699
    H            2.106745073367    -1.573087058766     0.564831323679
    H            1.582100474974    -0.287256108928     1.613355845373
    C            3.761850419009     0.242403184001    -0.351973221031
    H            1.843178856821     0.288016495150    -1.340098515913
    H            1.978518124741     1.380810334497    -0.015907264792
    H            4.216603241915     1.001840692551    -0.977170742910
    H            4.064712952752    -0.727023630079    -0.733160138929
    H            4.173840485199     0.346859238151     0.646517110731

  Mulliken Charges: (a.u.)
   Center  Symbol    Alpha    Beta     Spin     Total
       1     O     4.19754  4.19754  0.00000 -0.39507
       2     C     2.80936  2.80936  0.00000  0.38128
       3     C     3.13820  3.13820  0.00000 -0.27639
       4     O     4.15379  4.15379  0.00000 -0.30758
       5     H     0.44596  0.44596  0.00000  0.10808
       6     H     0.43795  0.43795  0.00000  0.12409
       7     H     0.44575  0.44575  0.00000  0.10851
       8     C     2.99305  2.99305  0.00000  0.01390
       9     C     3.08582  3.08582  0.00000 -0.17164
      10     H     0.45131  0.45131  0.00000  0.09737
      11     H     0.44487  0.44487  0.00000  0.11025
      12     C     3.08347  3.08347  0.00000 -0.16694
      13     H     0.45387  0.45387  0.00000  0.09226
      14     H     0.44962  0.44962  0.00000  0.10076
      15     C     3.14893  3.14893  0.00000 -0.29786
      16     H     0.45431  0.45431  0.00000  0.09137
      17     H     0.44875  0.44875  0.00000  0.10251
      18     H     0.44777  0.44777  0.00000  0.10446
      19     H     0.45546  0.45546  0.00000  0.08909
      20     H     0.45423  0.45423  0.00000  0.09154

   Total alpha = 32.00000, Total beta = 32.00000, Total charge = -0.00000

*** Psi4 exiting successfully. Buy a developer a beer!
