  ==> Input File <==

--------------------------------------------------------------------------
set {
	reference rhf
	basis 6-31G*
}

set_num_threads( 1 )
memory 2 gb

molecule MOL {
0 1

H	 -0.000158	 1.970498	 0.756846
O	 -0.000074	 1.880206	 -0.189275
C	 -0.000015	 0.544847	 -0.545111
C	 -1.278788	 -0.123820	 -0.051541
C	 1.278802	 -0.123718	 -0.051505
H	 -0.000001	 0.490777	 -1.623619
F	 -1.977852	 -0.554448	 -1.079847
F	 -1.033472	 -1.151459	 0.733404
F	 -2.031232	 0.735667	 0.616822
F	 2.323327	 0.466644	 -0.591854
F	 1.326242	 -1.401483	 -0.363667
F	 1.388946	 -0.015632	 1.262939

	symmetry c1
}
set optking {
	frozen_dihedral = ("
		6 3 2 1
	")
}

ee = energy('scf')
oeprop('DIPOLE', 'QUADRUPOLE', 'MULLIKEN_CHARGES')
f=open( 'psi4out.xyz', 'w' )
f.write( "12  " )
f.write( str(ee) + "\n" )
f.write( MOL.save_string_xyz() )
f.close()
--------------------------------------------------------------------------

    Molecular point group: c1

    Geometry (in Angstrom), charge = 0, multiplicity = 1:

       Center              X                  Y                   Z               Mass
    ------------   -----------------  -----------------  -----------------  -----------------
           H          0.000307047367     1.972691231569     0.761022502939     1.007825032070
           O          0.000391047367     1.882399231569    -0.185098497061    15.994914619560
           C          0.000450047367     0.547040231569    -0.540934497061    12.000000000000
           C         -1.278322952633    -0.121626768431    -0.047364497061    12.000000000000
           C          1.279267047367    -0.121524768431    -0.047328497061    12.000000000000
           H          0.000464047367     0.492970231569    -1.619442497061     1.007825032070
           F         -1.977386952633    -0.552254768431    -1.075670497061    18.998403224000
           F         -1.033006952633    -1.149265768431     0.737580502939    18.998403224000
           F         -2.030766952633     0.737860231569     0.620998502939    18.998403224000
           F          2.323792047367     0.468837231569    -0.587677497061    18.998403224000
           F          1.326707047367    -1.399289768431    -0.359490497061    18.998403224000
           F          1.389411047367    -0.013438768431     1.267115502939    18.998403224000

  Charge       = 0
  Multiplicity = 1
  Basis Set: 6-31G*
  Basis Set:

    Orbital Energies (a.u.)
    -----------------------

    Doubly Occupied:

       1A    -26.362544     2A    -26.362465     3A    -26.361245
       4A    -26.360078     5A    -26.359296     6A    -26.357664
       7A    -20.613434     8A    -11.525866     9A    -11.525045
      10A    -11.347082    11A     -1.765148    12A     -1.758387
      13A     -1.661322    14A     -1.659236    15A     -1.656806
      16A     -1.654825    17A     -1.433027    18A     -1.101373
      19A     -0.997325    20A     -0.936838    21A     -0.866842
      22A     -0.861177    23A     -0.850669    24A     -0.845949
      25A     -0.835041    26A     -0.811977    27A     -0.732595
      28A     -0.731520    29A     -0.729198    30A     -0.723798
      31A     -0.687840    32A     -0.685281    33A     -0.682034
      34A     -0.677549    35A     -0.668507    36A     -0.662754
      37A     -0.656504    38A     -0.648681    39A     -0.616029
      40A     -0.549248    41A     -0.505353

  @DF-RHF Final Energy:  -786.27087550423482

   => Energetics <=

    Nuclear Repulsion Energy =            671.0682798700523790
    One-Electron Energy =               -2429.0231295439557471
    Two-Electron Energy =                 971.6839741696666124
    DFT Exchange-Correlation Energy =       0.0000000000000000
    Empirical Dispersion Energy =           0.0000000000000000
    PCM Polarization Energy =               0.0000000000000000
    EFP Energy =                            0.0000000000000000
    Total Energy =                       -786.2708755042368693

  Mulliken Charges: (a.u.)
   Center  Symbol    Alpha    Beta     Spin     Total
       1     H     0.26742  0.26742  0.00000  0.46516
       2     O     4.35954  4.35954  0.00000 -0.71908
       3     C     3.07601  3.07601  0.00000 -0.15202
       4     C     2.42646  2.42646  0.00000  1.14709
       5     C     2.43607  2.43607  0.00000  1.12786
       6     H     0.36988  0.36988  0.00000  0.26024
       7     F     4.67737  4.67737  0.00000 -0.35474
       8     F     4.67465  4.67465  0.00000 -0.34930
       9     F     4.67843  4.67843  0.00000 -0.35685
      10     F     4.67508  4.67508  0.00000 -0.35016
      11     F     4.67594  4.67594  0.00000 -0.35188
      12     F     4.68316  4.68316  0.00000 -0.36633

   Total alpha = 41.00000, Total beta = 41.00000, Total charge = -0.00000
