  ==> Input File <==

--------------------------------------------------------------------------
set {
	reference rhf
	basis 6-31G*
}

set_num_threads( 4 )
memory 2 gb

molecule MOL {
0 1

H	 2.274111	 0.002976	 -0.528922
O	 1.513313	 -0.569031	 -0.555863
C	 0.489431	 0.077273	 0.000046
C	 -0.764129	 -0.759190	 0.000191
O	 0.594576	 1.178864	 0.431331
C	 -2.038368	 0.075731	 -0.000248
H	 -0.717284	 -1.412404	 -0.866059
H	 -0.717458	 -1.411724	 0.866967
H	 -2.086483	 0.712501	 -0.875098
H	 -2.908485	 -0.571682	 -0.000042
H	 -2.086576	 0.713280	 0.874068

	symmetry c1
}
set optking {
	frozen_dihedral = ("
		2 3 4 7
	")
}

ee = optimize('scf')
oeprop('DIPOLE', 'QUADRUPOLE', 'MULLIKEN_CHARGES')
f=open( 'psi4out.xyz', 'w' )
f.write( "11  " )
f.write( str(ee) + "\n" )
f.write( MOL.save_string_xyz() )
f.close()
--------------------------------------------------------------------------

    Molecular point group: c1
  Charge       = 0
  Multiplicity = 1
  Basis Set: 6-31G*
  Basis Set:
  @DF-RHF Final Energy:  -266.84533708405957
    Total Energy =                       -266.8453370840596790
    Molecular point group: c1
  Basis Set: 6-31G*
  Basis Set:
  Basis Set: 6-31G*
  Basis Set:
  @DF-RHF Final Energy:  -266.84546372787764
    Total Energy =                       -266.8454637278777568
  Basis Set: 6-31G*
  Basis Set:
  Basis Set: 6-31G*
  Basis Set:
  @DF-RHF Final Energy:  -266.84509087756237
    Total Energy =                       -266.8450908775621429
  Basis Set: 6-31G*
  Basis Set:
  Basis Set: 6-31G*
  Basis Set:
  @DF-RHF Final Energy:  -266.84553883802516
    Total Energy =                       -266.8455388380252771
  Basis Set: 6-31G*
  Basis Set:
  Basis Set: 6-31G*
  Basis Set:
  @DF-RHF Final Energy:  -266.84554037235131
    Total Energy =                       -266.8455403723511949
  Basis Set: 6-31G*
  Basis Set:
  Charge       = 0
  Multiplicity = 1
  Basis Set: 6-31G*
  Basis Set:

    Orbital Energies (a.u.)
    -----------------------

    Doubly Occupied:

       1A    -20.614833     2A    -20.551661     3A    -11.382252
       4A    -11.243913     5A    -11.222011     6A     -1.476158
       7A     -1.366675     8A     -1.065283     9A     -0.916772
      10A     -0.803630    11A     -0.702485    12A     -0.690429
      13A     -0.658276    14A     -0.599226    15A     -0.593534
      16A     -0.533032    17A     -0.526354    18A     -0.506530
      19A     -0.478190    20A     -0.445080

  @DF-RHF Final Energy:  -266.84554045076959

   => Energetics <=

    Nuclear Repulsion Energy =            179.7238941349857839
    One-Electron Energy =                -720.3862195743045049
    Two-Electron Energy =                 273.8167849885487044
    DFT Exchange-Correlation Energy =       0.0000000000000000
    Empirical Dispersion Energy =           0.0000000000000000
    PCM Polarization Energy =               0.0000000000000000
    EFP Energy =                            0.0000000000000000
    Total Energy =                       -266.8455404507699882
    Molecular point group: c1
  Basis Set: 6-31G*
  Basis Set:

  -Total Gradient:
     Atom            X                  Y                   Z
    ------   -----------------  -----------------  -----------------
       1        0.000000132008     0.000003333815    -0.000006479038
       2       -0.000227188710     0.000367481698    -0.000949834823
       3        0.000434755799    -0.000681647193     0.001451955831
       4       -0.000802141093     0.001219638661    -0.001192631156
       5       -0.000000457911    -0.000028270914    -0.000012508179
       6        0.000009085756    -0.000003097123    -0.000002576091
       7        0.000583653953    -0.000875102307     0.000702546133
       8        0.000006567556    -0.000006010346     0.000007056799
       9       -0.000003203424     0.000000032190     0.000002834506
      10        0.000000586187     0.000001048329    -0.000000668085
      11       -0.000001790125     0.000002593188     0.000000304103

  **** Optimization is complete! (in 6 steps) ****
    Final optimized geometry and variables:
    Molecular point group: c1

    Geometry (in Angstrom), charge = 0, multiplicity = 1:

    H            2.292955355474    -0.001920578839    -0.445807766510
    O            1.530086176590    -0.568004584015    -0.514281467910
    C            0.493100991374     0.069130420208     0.025392257597
    C           -0.760533340171    -0.768672183986     0.011240964391
    O            0.586898883071     1.165954611671     0.472432533762
    C           -2.033284587905     0.070702481840     0.040926092815
    H           -0.725928814555    -1.431758467625    -0.844558280610
    H           -0.707926588628    -1.408560133755     0.889484823546
    H           -2.112145821700     0.692624921017    -0.843840200947
    H           -2.904844751610    -0.573384024714     0.079277601660
    H           -2.045956119008     0.720579022997     0.906131302639

  Mulliken Charges: (a.u.)
   Center  Symbol    Alpha    Beta     Spin     Total
       1     H     0.26789  0.26789  0.00000  0.46423
       2     O     4.34987  4.34987  0.00000 -0.69975
       3     C     2.62344  2.62344  0.00000  0.75313
       4     C     3.20952  3.20952  0.00000 -0.41904
       5     O     4.27921  4.27921  0.00000 -0.55841
       6     C     3.24214  3.24214  0.00000 -0.48428
       7     H     0.39827  0.39827  0.00000  0.20346
       8     H     0.39756  0.39756  0.00000  0.20488
       9     H     0.41311  0.41311  0.00000  0.17379
      10     H     0.41562  0.41562  0.00000  0.16875
      11     H     0.40338  0.40338  0.00000  0.19325

   Total alpha = 20.00000, Total beta = 20.00000, Total charge = -0.00000
