                              Psi4 1.0.54 Driver

  ==> Input File <==

--------------------------------------------------------------------------
set {
	reference rhf
	basis cc-pvtz
}

set_num_threads( 4 )
memory 2 gb

molecule MOL {
0 1

H	 0.965143	 1.890774	 -1.465788
O	 1.225192	 1.812845	 -0.565370
C	 0.706474	 0.636793	 -0.025501
C	 -0.793473	 0.591216	 0.050087
H	 1.116648	 0.551068	 0.973855
H	 1.056962	 -0.231940	 -0.579721
C	 -1.534243	 -0.493009	 -0.013340
H	 -1.266611	 1.552628	 0.164437
H	 -1.101195	 -1.466332	 -0.144046
H	 -2.604242	 -0.437780	 0.050785

	symmetry c1
}
set optking {
	frozen_dihedral = ("
		5 3 4 7
	")
}

ee,wfn = optimize('scf', return_wfn=True)
oeprop( wfn, 'DIPOLE', 'QUADRUPOLE', 'MULLIKEN_CHARGES')
f=open( 'psi4out.xyz', 'w' )
f.write( "10  " )
f.write( str(ee) + "\n" )
f.write( MOL.save_string_xyz() )
f.close()
--------------------------------------------------------------------------

    Molecular point group: c1
  Charge       = 0
  Multiplicity = 1
  Basis Set: CC-PVTZ
  Basis Set:
  @DF-RHF Final Energy:  -191.99706622132203
    Total Energy =                       -191.9970662213221431
    Molecular point group: c1
  Basis Set: CC-PVTZ
  Basis Set:
  Basis Set: CC-PVTZ
  Basis Set:
  @DF-RHF Final Energy:  -191.99668176066046
    Total Energy =                       -191.9966817606605218
  Basis Set: CC-PVTZ
  Basis Set:
  Basis Set: CC-PVTZ
  Basis Set:
  @DF-RHF Final Energy:  -191.99750809054251
    Total Energy =                       -191.9975080905424534
  Basis Set: CC-PVTZ
  Basis Set:
  Basis Set: CC-PVTZ
  Basis Set:
  @DF-RHF Final Energy:  -191.99753300984290
    Total Energy =                       -191.9975330098428117
  Basis Set: CC-PVTZ
  Basis Set:
  Charge       = 0
  Multiplicity = 1
  Basis Set: CC-PVTZ
  Basis Set:

    Orbital Energies (a.u.)
    -----------------------

    Doubly Occupied:

       1A    -20.553643     2A    -11.276481     3A    -11.230488
       4A    -11.221799     5A     -1.372724     6A     -1.066883
       7A     -0.924026     8A     -0.778417     9A     -0.707981
      10A     -0.626645    11A     -0.623090    12A     -0.606035
      13A     -0.528607    14A     -0.498791    15A     -0.451022
      16A     -0.372358

  @DF-RHF Final Energy:  -191.99753396572930

   => Energetics <=

    Nuclear Repulsion Energy =            117.3209211009532140
    One-Electron Energy =                -492.9589282467362636
    Two-Electron Energy =                 183.6404731800538457
    DFT Exchange-Correlation Energy =       0.0000000000000000
    Empirical Dispersion Energy =           0.0000000000000000
    PCM Polarization Energy =               0.0000000000000000
    EFP Energy =                            0.0000000000000000
    Total Energy =                       -191.9975339657291897
    Molecular point group: c1
  Basis Set: CC-PVTZ
  Basis Set:

  -Total Gradient:
     Atom            X                  Y                   Z
    ------   -----------------  -----------------  -----------------
       1       -0.000005652690    -0.000018118633     0.000031536957
       2        0.000052306540    -0.000042090784     0.000006706583
       3        0.000352510887     0.003951070646     0.001360121594
       4       -0.000144230194    -0.000784249377    -0.004274870025
       5       -0.000268348241    -0.003064846421     0.000009064020
       6        0.000006761120     0.000013706709     0.000003709046
       7       -0.000007281614    -0.000056214033     0.002770609729
       8        0.000020642128    -0.000019650715     0.000004600286
       9       -0.000003581383     0.000012702863     0.000055332866
      10       -0.000003126552     0.000007689744     0.000033188941

  **** Optimization is complete! (in 5 steps) ****
    Final optimized geometry and variables:
    Molecular point group: c1

    Geometry (in Angstrom), charge = 0, multiplicity = 1:

    H            1.113675635097     0.974385417107    -1.376564836162
    O            1.359325568559     0.951816720388    -0.469204162436
    C            0.728409848493    -0.122577431793     0.166926232377
    C           -0.769118607457     0.016651429233     0.206080762321
    H            1.116728337143    -0.154234590268     1.176873193815
    H            0.999592935888    -1.066111745329    -0.298664649454
    C           -1.615045468348    -0.989743408434     0.230274903046
    H           -1.132396884297     1.027703203274     0.280799621305
    H           -1.283199327131    -2.010916032779     0.164611128494
    H           -2.673101981083    -0.830900350262     0.316381888525

  Mulliken Charges: (a.u.)
   Center  Symbol    Alpha    Beta     Spin     Total
       1     H     0.39291  0.39291  0.00000  0.21418
       2     O     4.20129  4.20129  0.00000 -0.40259
       3     C     2.94851  2.94851  0.00000  0.10299
       4     C     3.08686  3.08686  0.00000 -0.17372
       5     H     0.45378  0.45378  0.00000  0.09243
       6     H     0.46822  0.46822  0.00000  0.06355
       7     C     3.17332  3.17332  0.00000 -0.34664
       8     H     0.41678  0.41678  0.00000  0.16644
       9     H     0.43150  0.43150  0.00000  0.13699
      10     H     0.42682  0.42682  0.00000  0.14636

   Total alpha = 16.00000, Total beta = 16.00000, Total charge =  0.00000

*** Psi4 exiting successfully. Buy a developer a beer!
