  ==> Input File <==

--------------------------------------------------------------------------
set {
	reference rhf
	basis cc-pvtz
}

set_num_threads( 4 )
memory 2 gb

molecule MOL {
0 1

H	 1.518253	 -1.898708	 0.896971
C	 0.611596	 -1.346940	 1.079610
O	 0.462329	 -0.453336	 -0.000137
H	 0.702685	 -0.813557	 2.017386
H	 -0.220577	 -2.037577	 1.132028
C	 -0.590565	 0.341382	 0.000062
O	 -1.693898	 -0.053880	 0.000252
H	 -0.340426	 1.403822	 0.000200

	symmetry c1
}
set optking {
	frozen_dihedral = ("
		2 3 6 7
	")
}

ee = optimize('scf')
oeprop('DIPOLE', 'QUADRUPOLE', 'MULLIKEN_CHARGES')
f=open( 'psi4out.xyz', 'w' )
f.write( "8  " )
f.write( str(ee) + "\n" )
f.write( MOL.save_string_xyz() )
f.close()
--------------------------------------------------------------------------

    Molecular point group: c1
  Charge       = 0
  Multiplicity = 1
  Basis Set: CC-PVTZ
  Basis Set:
  @DF-RHF Final Energy:  -227.86327657624463
    Total Energy =                       -227.8632765762444592
    Molecular point group: c1
  Basis Set: CC-PVTZ
  Basis Set:
  Basis Set: CC-PVTZ
  Basis Set:
  @DF-RHF Final Energy:  -227.85808184509574
    Total Energy =                       -227.8580818450955690
  Basis Set: CC-PVTZ
  Basis Set:
  Basis Set: CC-PVTZ
  Basis Set:
  @DF-RHF Final Energy:  -227.86389003241356
    Total Energy =                       -227.8638900324136216
  Basis Set: CC-PVTZ
  Basis Set:
  Basis Set: CC-PVTZ
  Basis Set:
  @DF-RHF Final Energy:  -227.86429840403551
    Total Energy =                       -227.8642984040355088
  Basis Set: CC-PVTZ
  Basis Set:
  Basis Set: CC-PVTZ
  Basis Set:
  @DF-RHF Final Energy:  -227.86430735548731
    Total Energy =                       -227.8643073554870853
  Basis Set: CC-PVTZ
  Basis Set:
  Basis Set: CC-PVTZ
  Basis Set:
  @DF-RHF Final Energy:  -227.86430838970864
    Total Energy =                       -227.8643083897087820
  Basis Set: CC-PVTZ
  Basis Set:
  Charge       = 0
  Multiplicity = 1
  Basis Set: CC-PVTZ
  Basis Set:

    Orbital Energies (a.u.)
    -----------------------

    Doubly Occupied:

       1A    -20.594291     2A    -20.558372     3A    -11.375218
       4A    -11.292525     5A     -1.473999     6A     -1.382306
       7A     -0.991306     8A     -0.826620     9A     -0.742634
      10A     -0.688429    11A     -0.671677    12A     -0.620644
      13A     -0.562495    14A     -0.521672    15A     -0.473361
      16A     -0.458329

  @DF-RHF Final Energy:  -227.86430842460811

   => Energetics <=

    Nuclear Repulsion Energy =            122.6399841359054648
    One-Electron Energy =                -554.5408283503563780
    Two-Electron Energy =                 204.0365357898426169
    DFT Exchange-Correlation Energy =       0.0000000000000000
    Empirical Dispersion Energy =           0.0000000000000000
    PCM Polarization Energy =               0.0000000000000000
    EFP Energy =                            0.0000000000000000
    Total Energy =                       -227.8643084246082822
    Molecular point group: c1
  Basis Set: CC-PVTZ
  Basis Set:

  -Total Gradient:
     Atom            X                  Y                   Z
    ------   -----------------  -----------------  -----------------
       1        0.000002578144    -0.000001902523     0.000002219773
       2        0.003211032400     0.004723764862     0.003838666337
       3       -0.004549763511    -0.006885116285    -0.010278085182
       4       -0.000003507524     0.000006396335    -0.000004356024
       5       -0.000001610222     0.000007666082    -0.000005079202
       6        0.000891498888     0.001728355629     0.015423942239
       7        0.000446947333     0.000415774094    -0.008976474903
       8        0.000002824490     0.000005061806    -0.000000833039

  **** Optimization is complete! (in 7 steps) ****
    Final optimized geometry and variables:
    Molecular point group: c1

    Geometry (in Angstrom), charge = 0, multiplicity = 1:

    H            1.797512850490    -1.546842470177     0.586131487158
    C            0.916785788703    -0.966058909802     0.804433435868
    O            0.781970779843    -0.027336750989    -0.247701880783
    H            1.048847330329    -0.451307667398     1.747733986602
    H            0.053488042389    -1.613156141930     0.855667264890
    C           -0.314119894387     0.727740891704    -0.266163381962
    O           -1.412415084224     0.321107328327    -0.338035105883
    H           -0.070079167656     1.786565846835    -0.302551018831

  Mulliken Charges: (a.u.)
   Center  Symbol    Alpha    Beta     Spin     Total
       1     H     0.44579  0.44579  0.00000  0.10841
       2     C     3.02460  3.02460  0.00000 -0.04920
       3     O     4.15396  4.15396  0.00000 -0.30792
       4     H     0.46271  0.46271  0.00000  0.07458
       5     H     0.44970  0.44970  0.00000  0.10061
       6     C     2.83051  2.83051  0.00000  0.33898
       7     O     4.17332  4.17332  0.00000 -0.34664
       8     H     0.45941  0.45941  0.00000  0.08118

   Total alpha = 16.00000, Total beta = 16.00000, Total charge = -0.00000
