  ==> Input File <==

--------------------------------------------------------------------------
set {
	reference rhf
	basis cc-pvtz
}

set_num_threads( 4 )
memory 2 gb

molecule MOL {
0 1

H	 1.712797	 -1.526643	 -0.251582
O	 1.675515	 -0.612943	 -0.465627
C	 1.135873	 0.113391	 0.608264
C	 0.027642	 1.012027	 0.090274
H	 1.902972	 0.727968	 1.072615
H	 0.756163	 -0.561896	 1.370018
C	 -1.138737	 0.285728	 -0.581921
H	 0.464661	 1.708096	 -0.618252
H	 -0.340737	 1.603071	 0.925246
C	 -1.933983	 -0.631436	 0.343653
H	 -0.763151	 -0.285569	 -1.422081
H	 -1.808359	 1.035291	 -0.992333
H	 -2.789188	 -1.049673	 -0.174718
H	 -1.335629	 -1.461368	 0.700418
H	 -2.305435	 -0.092167	 1.209725

	symmetry c1
}
set optking {
	frozen_dihedral = ("
		1 2 3 4
	")
}

ee = optimize('scf')
oeprop('DIPOLE', 'QUADRUPOLE', 'MULLIKEN_CHARGES')
f=open( 'psi4out.xyz', 'w' )
f.write( "15  " )
f.write( str(ee) + "\n" )
f.write( MOL.save_string_xyz() )
f.close()
--------------------------------------------------------------------------

    Molecular point group: c1
  Charge       = 0
  Multiplicity = 1
  Basis Set: CC-PVTZ
  Basis Set:
  @DF-RHF Final Energy:  -232.23578781535394
    Total Energy =                       -232.2357878153538877
    Molecular point group: c1
  Basis Set: CC-PVTZ
  Basis Set:
  Basis Set: CC-PVTZ
  Basis Set:
  @DF-RHF Final Energy:  -232.23600487138549
    Total Energy =                       -232.2360048713853757
  Basis Set: CC-PVTZ
  Basis Set:
  Basis Set: CC-PVTZ
  Basis Set:
  @DF-RHF Final Energy:  -232.23607997898077
    Total Energy =                       -232.2360799789809107
  Basis Set: CC-PVTZ
  Basis Set:
  Basis Set: CC-PVTZ
  Basis Set:
  @DF-RHF Final Energy:  -232.23607528819525
    Total Energy =                       -232.2360752881951953
  Basis Set: CC-PVTZ
  Basis Set:
  Charge       = 0
  Multiplicity = 1
  Basis Set: CC-PVTZ
  Basis Set:

    Orbital Energies (a.u.)
    -----------------------

    Doubly Occupied:

       1A    -20.545559     2A    -11.265768     3A    -11.211016
       4A    -11.210362     5A    -11.207671     6A     -1.362938
       7A     -1.067147     8A     -0.973842     9A     -0.872892
      10A     -0.778437    11A     -0.707608    12A     -0.647591
      13A     -0.609908    14A     -0.582439    15A     -0.564183
      16A     -0.538097    17A     -0.508109    18A     -0.483820
      19A     -0.470765    20A     -0.455891    21A     -0.429802

  @DF-RHF Final Energy:  -232.23608349201794

   => Energetics <=

    Nuclear Repulsion Energy =            191.4862949354280204
    One-Electron Energy =                -694.4570692369127300
    Two-Electron Energy =                 270.7346908094669402
    DFT Exchange-Correlation Energy =       0.0000000000000000
    Empirical Dispersion Energy =           0.0000000000000000
    PCM Polarization Energy =               0.0000000000000000
    EFP Energy =                            0.0000000000000000
    Total Energy =                       -232.2360834920177695
    Molecular point group: c1
  Basis Set: CC-PVTZ
  Basis Set:

  -Total Gradient:
     Atom            X                  Y                   Z
    ------   -----------------  -----------------  -----------------
       1       -0.000782287831    -0.000122224436    -0.000369545864
       2        0.000797536442    -0.000001484391     0.000515683236
       3        0.000341721381     0.000539292454    -0.000221808215
       4       -0.000332161571    -0.000415979209     0.000067242070
       5       -0.000005089224     0.000016532839     0.000019810248
       6       -0.000004676804    -0.000011334293    -0.000004639654
       7       -0.000011806255     0.000008236738    -0.000002614821
       8       -0.000004201782    -0.000006436006     0.000001229387
       9        0.000003583970    -0.000000310942     0.000004542575
      10       -0.000009842927     0.000008867773     0.000004369447
      11        0.000003298328    -0.000002221989    -0.000008518784
      12       -0.000000809491    -0.000011087490     0.000001009849
      13       -0.000003860056     0.000000975272    -0.000001458295
      14        0.000006518346     0.000004329522    -0.000004545573
      15        0.000002077476    -0.000007155841    -0.000000755607

  **** Optimization is complete! (in 5 steps) ****
    Final optimized geometry and variables:
    Molecular point group: c1

    Geometry (in Angstrom), charge = 0, multiplicity = 1:

    H            1.801982563516    -1.497350905148    -0.293397265632
    O            1.745278188172    -0.579090649196    -0.473026702885
    C            1.139992756739     0.102096761922     0.599409433421
    C            0.022328052947     1.000530968385     0.095902309415
    H            1.889527710783     0.708068386335     1.097973885744
    H            0.761807377419    -0.602683609553     1.332448506924
    C           -1.143767329849     0.275201572842    -0.576190599351
    H            0.454392039578     1.702535041827    -0.610045804946
    H           -0.343636295516     1.587167623895     0.935583713201
    C           -1.963559475227    -0.612589378528     0.357214492653
    H           -0.763682695438    -0.315602363117    -1.401549669396
    H           -1.800753142552     1.021298785778    -1.011846252591
    H           -2.809255391935    -1.042705399497    -0.166880159199
    H           -1.379720378093    -1.435093677774     0.754682630325
    H           -2.350639975356    -0.046625728675     1.198660641948

  Mulliken Charges: (a.u.)
   Center  Symbol    Alpha    Beta     Spin     Total
       1     H     0.39124  0.39124  0.00000  0.21752
       2     O     4.20690  4.20690  0.00000 -0.41380
       3     C     2.98012  2.98012  0.00000  0.03976
       4     C     3.08821  3.08821  0.00000 -0.17643
       5     H     0.45643  0.45643  0.00000  0.08715
       6     H     0.47019  0.47019  0.00000  0.05962
       7     C     3.09378  3.09378  0.00000 -0.18755
       8     H     0.44822  0.44822  0.00000  0.10355
       9     H     0.45518  0.45518  0.00000  0.08964
      10     C     3.15335  3.15335  0.00000 -0.30670
      11     H     0.44778  0.44778  0.00000  0.10444
      12     H     0.44919  0.44919  0.00000  0.10162
      13     H     0.44589  0.44589  0.00000  0.10823
      14     H     0.45832  0.45832  0.00000  0.08337
      15     H     0.45521  0.45521  0.00000  0.08959

   Total alpha = 21.00000, Total beta = 21.00000, Total charge =  0.00000
