  ==> Input File <==

--------------------------------------------------------------------------
set {
	reference rhf
	basis cc-pvtz
}

set_num_threads( 4 )
memory 2 gb

molecule MOL {
0 1

H	 -2.823000	 0.877000	 -0.467000
C	 -2.362000	 0.000000	 -0.026000
N	 -0.945000	 0.000000	 -0.305000
H	 -2.823000	 -0.877000	 -0.467000
H	 -2.586000	 -0.000000	 1.045000
C	 -0.283000	 -1.193000	 0.189000
C	 -0.283000	 1.193000	 0.189000
H	 -0.369000	 -1.280000	 1.277000
H	 -0.754000	 -2.067000	 -0.250000
C	 1.187000	 -1.162000	 -0.194000
H	 -0.754000	 2.067000	 -0.250000
H	 -0.369000	 1.280000	 1.277000
C	 1.187000	 1.162000	 -0.194000
H	 1.715000	 -2.001000	 0.240000
H	 1.282000	 -1.215000	 -1.277000
O	 1.804000	 -0.000000	 0.284000
H	 1.715000	 2.001000	 0.240000
H	 1.282000	 1.215000	 -1.277000

	symmetry c1
}
ee = optimize('scf')
oeprop('DIPOLE', 'QUADRUPOLE', 'MULLIKEN_CHARGES')
f=open( 'psi4out.xyz', 'w' )
f.write( "18  " )
f.write( str(ee) + "\n" )
f.write( MOL.save_string_xyz() )
f.close()
--------------------------------------------------------------------------

    Molecular point group: c1
  Charge       = 0
  Multiplicity = 1
  Basis Set: CC-PVTZ
  Basis Set:
  @DF-RHF Final Energy:  -325.14577761282942
    Total Energy =                       -325.1457776128290789
    Molecular point group: c1
  Basis Set: CC-PVTZ
  Basis Set:
  Basis Set: CC-PVTZ
  Basis Set:
  @DF-RHF Final Energy:  -325.14584143998962
    Total Energy =                       -325.1458414399894536
  Basis Set: CC-PVTZ
  Basis Set:
  Charge       = 0
  Multiplicity = 1
  Basis Set: CC-PVTZ
  Basis Set:

    Orbital Energies (a.u.)
    -----------------------

    Doubly Occupied:

       1A    -20.547620     2A    -15.544577     3A    -11.264428
       4A    -11.264408     5A    -11.242551     6A    -11.242538
       7A    -11.239235     8A     -1.386547     9A     -1.234337
      10A     -1.039285    11A     -0.982214    12A     -0.884165
      13A     -0.869565    14A     -0.774673    15A     -0.685229
      16A     -0.646792    17A     -0.645464    18A     -0.635426
      19A     -0.631222    20A     -0.574331    21A     -0.557200
      22A     -0.540532    23A     -0.527477    24A     -0.501866
      25A     -0.485396    26A     -0.454139    27A     -0.410830
      28A     -0.355855

  @DF-RHF Final Energy:  -325.14584394609204

   => Energetics <=

    Nuclear Repulsion Energy =            341.9769223863766570
    One-Electron Energy =               -1119.9097227846709757
    Two-Electron Energy =                 452.7869564522019346
    DFT Exchange-Correlation Energy =       0.0000000000000000
    Empirical Dispersion Energy =           0.0000000000000000
    PCM Polarization Energy =               0.0000000000000000
    EFP Energy =                            0.0000000000000000
    Total Energy =                       -325.1458439460924410
    Molecular point group: c1
  Basis Set: CC-PVTZ
  Basis Set:

  -Total Gradient:
     Atom            X                  Y                   Z
    ------   -----------------  -----------------  -----------------
       1        0.000000171419     0.000022148936    -0.000042984389
       2        0.000150306303     0.000002551350     0.000000000912
       3        0.000010781591    -0.000033427806     0.000000001567
       4        0.000000171930     0.000022148365     0.000042983155
       5       -0.000024846928    -0.000045595792    -0.000000000265
       6       -0.000121743599     0.000068847668    -0.000054702552
       7       -0.000121743143     0.000068848397     0.000054703936
       8        0.000028396924    -0.000034391657     0.000015112062
       9       -0.000024426783     0.000008669696     0.000080057061
      10        0.000095971307    -0.000086660186    -0.000118664289
      11       -0.000024427985     0.000008670566    -0.000080059657
      12        0.000028396938    -0.000034392676    -0.000015112654
      13        0.000095970997    -0.000086661704     0.000118667006
      14       -0.000008098105     0.000000954614     0.000064355961
      15       -0.000029159758     0.000035272277     0.000023453051
      16       -0.000018464411     0.000046790140     0.000000000519
      17       -0.000008096875     0.000000953889    -0.000064357875
      18       -0.000029159825     0.000035273924    -0.000023453549

  **** Optimization is complete! (in 3 steps) ****
    Final optimized geometry and variables:
    Molecular point group: c1

    Geometry (in Angstrom), charge = 0, multiplicity = 1:

    H            2.867672057953    -0.456275054555     0.875794922054
    C            2.403497226803    -0.020426136469     0.000000000064
    N            0.989899156545    -0.304564671770     0.000000000537
    H            2.867672058319    -0.456275060497    -0.875794919545
    H            2.620366746261     1.051269328041    -0.000000003768
    C            0.327046512177     0.185006870412    -1.191013549628
    C            0.327046511423     0.185006871970     1.191013549074
    H            0.417481315505     1.271993317632    -1.280595699800
    H            0.792482799625    -0.255924264830    -2.064900151557
    C           -1.142104426105    -0.190361598533    -1.160411555689
    H            0.792482799197    -0.255924262307     2.064900150587
    H            0.417481313935     1.271993318697     1.280595697850
    C           -1.142104425031    -0.190361600645     1.160411555183
    H           -1.663470041484     0.249225051465    -1.999201793863
    H           -1.242292219419    -1.272237039335    -1.220459725733
    O           -1.759632204078     0.282130833497     0.000000000790
    H           -1.663470040526     0.249225046081     1.999201793959
    H           -1.242292216612    -1.272237041372     1.220459721685

  Mulliken Charges: (a.u.)
   Center  Symbol    Alpha    Beta     Spin     Total
       1     H     0.45152  0.45152  0.00000  0.09696
       2     C     3.09493  3.09493  0.00000 -0.18986
       3     N     3.61708  3.61708  0.00000 -0.23415
       4     H     0.45152  0.45152  0.00000  0.09696
       5     H     0.46950  0.46950  0.00000  0.06100
       6     C     3.04096  3.04096  0.00000 -0.08192
       7     C     3.04096  3.04096  0.00000 -0.08192
       8     H     0.46882  0.46882  0.00000  0.06236
       9     H     0.45395  0.45395  0.00000  0.09210
      10     C     2.98353  2.98353  0.00000  0.03293
      11     H     0.45395  0.45395  0.00000  0.09210
      12     H     0.46882  0.46882  0.00000  0.06236
      13     C     2.98353  2.98353  0.00000  0.03293
      14     H     0.44971  0.44971  0.00000  0.10058
      15     H     0.46750  0.46750  0.00000  0.06500
      16     O     4.18651  4.18651  0.00000 -0.37301
      17     H     0.44971  0.44971  0.00000  0.10058
      18     H     0.46750  0.46750  0.00000  0.06500

   Total alpha = 28.00000, Total beta = 28.00000, Total charge =  0.00000
