  ==> Input File <==

--------------------------------------------------------------------------
set {
	reference rhf
	basis cc-pvtz
}

set_num_threads( 4 )
memory 2 gb

molecule MOL {
0 1

H	 -1.753294	 -0.944400	 0.238727
O	 -2.041679	 -0.058866	 0.103463
C	 -0.959304	 0.780994	 -0.094939
C	 0.354905	 0.037902	 -0.006215
H	 -0.985899	 1.279578	 -1.057596
H	 -0.969809	 1.529522	 0.682889
F	 0.412060	 -0.931028	 -0.902708
F	 1.359641	 0.856111	 -0.239961
F	 0.545380	 -0.506387	 1.171682

	symmetry c1
}
set optking {
	frozen_dihedral = ("
		1 2 3 5
	")
}

ee = optimize('scf')
oeprop('DIPOLE', 'QUADRUPOLE', 'MULLIKEN_CHARGES')
f=open( 'psi4out.xyz', 'w' )
f.write( "9  " )
f.write( str(ee) + "\n" )
f.write( MOL.save_string_xyz() )
f.close()
--------------------------------------------------------------------------

    Molecular point group: c1
  Charge       = 0
  Multiplicity = 1
  Basis Set: CC-PVTZ
  Basis Set:
  @DF-RHF Final Energy:  -450.84260477037947
    Total Energy =                       -450.8426047703796939
    Molecular point group: c1
  Basis Set: CC-PVTZ
  Basis Set:
  Basis Set: CC-PVTZ
  Basis Set:
  @DF-RHF Final Energy:  -450.84321277082574
    Total Energy =                       -450.8432127708255734
  Basis Set: CC-PVTZ
  Basis Set:
  Basis Set: CC-PVTZ
  Basis Set:
  @DF-RHF Final Energy:  -450.84336037248761
    Total Energy =                       -450.8433603724878367
  Basis Set: CC-PVTZ
  Basis Set:
  Basis Set: CC-PVTZ
  Basis Set:
  @DF-RHF Final Energy:  -450.84336857132229
    Total Energy =                       -450.8433685713222303
  Basis Set: CC-PVTZ
  Basis Set:
  Charge       = 0
  Multiplicity = 1
  Basis Set: CC-PVTZ
  Basis Set:

    Orbital Energies (a.u.)
    -----------------------

    Doubly Occupied:

       1A    -26.346420     2A    -26.344867     3A    -26.344761
       4A    -20.580541     5A    -11.502148     6A    -11.310036
       7A     -1.755259     8A     -1.652612     9A     -1.649443
      10A     -1.403262    11A     -1.054383    12A     -0.935276
      13A     -0.844378    14A     -0.843954    15A     -0.821931
      16A     -0.726883    17A     -0.726711    18A     -0.683206
      19A     -0.681144    20A     -0.677647    21A     -0.656599
      22A     -0.647901    23A     -0.625650    24A     -0.528151
      25A     -0.481397

  @DF-RHF Final Energy:  -450.84337003202268

   => Energetics <=

    Nuclear Repulsion Energy =            277.9610868018378369
    One-Electron Energy =               -1177.9597977849837207
    Two-Electron Energy =                 449.1553409511230939
    DFT Exchange-Correlation Energy =       0.0000000000000000
    Empirical Dispersion Energy =           0.0000000000000000
    PCM Polarization Energy =               0.0000000000000000
    EFP Energy =                            0.0000000000000000
    Total Energy =                       -450.8433700320227899
    Molecular point group: c1
  Basis Set: CC-PVTZ
  Basis Set:

  -Total Gradient:
     Atom            X                  Y                   Z
    ------   -----------------  -----------------  -----------------
       1       -0.000000592434    -0.000014885429     0.000007494099
       2       -0.000030093044    -0.000025047988     0.000027598337
       3       -0.000000888766     0.000037449108    -0.000035765043
       4       -0.000049861256    -0.000010770600     0.000177338020
       5        0.000045874625    -0.000006031648     0.000021144287
       6        0.000006856580     0.000002539216     0.000012585111
       7        0.000030933525    -0.000079280418    -0.000075888805
       8        0.000026297957     0.000022498582    -0.000003967234
       9       -0.000028527179     0.000073529175    -0.000130538765

  **** Optimization is complete! (in 5 steps) ****
    Final optimized geometry and variables:
    Molecular point group: c1

    Geometry (in Angstrom), charge = 0, multiplicity = 1:

    H           -1.809608785057    -0.949395619270     0.250289290987
    O           -2.060495198840    -0.055883755080     0.099972341983
    C           -0.963714736318     0.773659538030    -0.097823098876
    C            0.355089553348     0.043264575203    -0.023234816727
    H           -1.017956921290     1.237751666443    -1.074101133806
    H           -0.942812568115     1.550285604844     0.655811525084
    F            0.438449473030    -0.908249821638    -0.932219055793
    F            1.352433645085     0.874670782855    -0.216249518945
    F            0.528302766139    -0.532903439912     1.149677141492

  Mulliken Charges: (a.u.)
   Center  Symbol    Alpha    Beta     Spin     Total
       1     H     0.38655  0.38655  0.00000  0.22691
       2     O     4.19580  4.19580  0.00000 -0.39160
       3     C     2.96811  2.96811  0.00000  0.06377
       4     C     2.69017  2.69017  0.00000  0.61966
       5     H     0.46239  0.46239  0.00000  0.07522
       6     H     0.46240  0.46240  0.00000  0.07521
       7     F     4.61369  4.61369  0.00000 -0.22738
       8     F     4.60733  4.60733  0.00000 -0.21467
       9     F     4.61356  4.61356  0.00000 -0.22711

   Total alpha = 25.00000, Total beta = 25.00000, Total charge = -0.00000
