                              Psi4 1.0.54 Driver

  ==> Input File <==

--------------------------------------------------------------------------
set {
	reference rhf
	basis cc-pvtz
}

set_num_threads( 4 )
memory 2 gb

molecule MOL {
0 1

H	 1.651322	 -0.822465	 0.000000
O	 0.729993	 -1.034364	 0.000000
C	 0.037305	 0.100061	 0.000000
C	 -1.018193	 0.114195	 -1.064801
O	 0.255038	 0.974579	 0.764596
H	 -0.555055	 -0.016084	 -2.034336
H	 -1.554005	 1.048218	 -1.029700
H	 -1.697888	 -0.713906	 -0.910750

	symmetry c1
}
set optking {
	frozen_dihedral = ("
		4 3 2 1
	")
}

ee,wfn = optimize('scf', return_wfn=True)
oeprop( wfn, 'DIPOLE', 'QUADRUPOLE', 'MULLIKEN_CHARGES')
f=open( 'psi4out.xyz', 'w' )
f.write( "8  " )
f.write( str(ee) + "\n" )
f.write( MOL.save_string_xyz() )
f.close()
--------------------------------------------------------------------------

    Molecular point group: c1
  Charge       = 0
  Multiplicity = 1
  Basis Set: CC-PVTZ
  Basis Set:
  @DF-RHF Final Energy:  -227.89265610279747
    Total Energy =                       -227.8926561027974458
    Molecular point group: c1
  Basis Set: CC-PVTZ
  Basis Set:
  Basis Set: CC-PVTZ
  Basis Set:
  @DF-RHF Final Energy:  -227.89063530041727
    Total Energy =                       -227.8906353004172161
  Basis Set: CC-PVTZ
  Basis Set:
  Basis Set: CC-PVTZ
  Basis Set:
  @DF-RHF Final Energy:  -227.89334086127843
    Total Energy =                       -227.8933408612784319
  Basis Set: CC-PVTZ
  Basis Set:
  Basis Set: CC-PVTZ
  Basis Set:
  @DF-RHF Final Energy:  -227.89354804341818
    Total Energy =                       -227.8935480434181216
  Basis Set: CC-PVTZ
  Basis Set:
  @DF-RHF Final Energy:  -227.89361145950585
    Total Energy =                       -227.8936114595058484
  Basis Set: CC-PVTZ
  Basis Set:
  @DF-RHF Final Energy:  -227.89364012052098
    Total Energy =                       -227.8936401205208995
  Basis Set: CC-PVTZ
  Basis Set:
  Basis Set: CC-PVTZ
  Basis Set:
  @DF-RHF Final Energy:  -227.89364362453307
    Total Energy =                       -227.8936436245330981
  Basis Set: CC-PVTZ
  Basis Set:
  Basis Set: CC-PVTZ
  Basis Set:
  @DF-RHF Final Energy:  -227.89364175565657
    Total Energy =                       -227.8936417556565459
  Basis Set: CC-PVTZ
  Basis Set:
  Charge       = 0
  Multiplicity = 1
  Basis Set: CC-PVTZ
  Basis Set:

    Orbital Energies (a.u.)
    -----------------------

    Doubly Occupied:

       1A    -20.596667     2A    -20.547588     3A    -11.379175
       4A    -11.239949     5A     -1.472115     6A     -1.372654
       7A     -1.026191     8A     -0.831615     9A     -0.708247
      10A     -0.681432    11A     -0.660903    12A     -0.584427
      13A     -0.581657    14A     -0.538952    15A     -0.492027
      16A     -0.452932

  @DF-RHF Final Energy:  -227.89364249718847

   => Energetics <=

    Nuclear Repulsion Energy =            122.4224116347559033
    One-Electron Energy =                -554.2990445074300396
    Two-Electron Energy =                 203.9829903754855991
    DFT Exchange-Correlation Energy =       0.0000000000000000
    Empirical Dispersion Energy =           0.0000000000000000
    PCM Polarization Energy =               0.0000000000000000
    EFP Energy =                            0.0000000000000000
    Total Energy =                       -227.8936424971885231
    Molecular point group: c1
  Basis Set: CC-PVTZ
  Basis Set:

  -Total Gradient:
     Atom            X                  Y                   Z
    ------   -----------------  -----------------  -----------------
       1       -0.000340065785    -0.000938449459    -0.011707026449
       2        0.002257912037     0.002214463665     0.012486522895
       3       -0.006303246433    -0.003498773296     0.004113270655
       4        0.004686232724     0.002352550904    -0.005012794045
       5       -0.000345609732    -0.000185034542     0.000082655892
       6       -0.000048369816     0.000016619167     0.000064042298
       7        0.000066010594    -0.000001312847     0.000003488347
       8        0.000027136411     0.000039936407    -0.000030159592

  **** Optimization is complete! (in 9 steps) ****
    Final optimized geometry and variables:
    Molecular point group: c1

    Geometry (in Angstrom), charge = 0, multiplicity = 1:

    H            1.591953569986    -0.928687538705     0.125877298676
    O            0.661859861656    -1.084060707504     0.161376129704
    C           -0.003269209655     0.083171940349     0.083916438670
    C           -1.086782393398     0.057237833190    -0.952839898431
    O            0.307450960870     1.028808998971     0.712938933957
    H           -0.608400362711     0.032810847404    -1.924735993059
    H           -1.701329513417     0.938820653314    -0.869819869000
    H           -1.686832164945    -0.837894371475    -0.861213197105

  Mulliken Charges: (a.u.)
   Center  Symbol    Alpha    Beta     Spin     Total
       1     H     0.37885  0.37885  0.00000  0.24230
       2     O     4.17371  4.17371  0.00000 -0.34742
       3     C     2.80442  2.80442  0.00000  0.39116
       4     C     3.13584  3.13584  0.00000 -0.27167
       5     O     4.17626  4.17626  0.00000 -0.35253
       6     H     0.44833  0.44833  0.00000  0.10335
       7     H     0.43878  0.43878  0.00000  0.12244
       8     H     0.44381  0.44381  0.00000  0.11239

   Total alpha = 16.00000, Total beta = 16.00000, Total charge =  0.00000

*** Psi4 exiting successfully. Buy a developer a beer!
