                              Psi4 1.0.54 Driver

  ==> Input File <==

--------------------------------------------------------------------------
set {
	reference rhf
	basis cc-pvtz
}

set_num_threads( 4 )
memory 2 gb

molecule MOL {
0 1

H	 1.581559	 -2.968770	 -0.532953
C	 1.386868	 -1.917518	 -0.716664
C	 0.329517	 -1.401595	 0.249946
H	 1.047799	 -1.803931	 -1.738942
H	 2.326777	 -1.388929	 -0.617183
N	 0.000297	 0.000045	 0.046090
H	 -0.568109	 -1.987375	 0.107660
H	 0.648278	 -1.582446	 1.280292
C	 -1.359159	 0.315706	 0.454404
C	 0.980357	 0.892896	 0.643436
C	 -2.416729	 -0.286720	 -0.460525
H	 -1.478729	 1.390261	 0.442008
H	 -1.539692	 0.003361	 1.486761
C	 1.078677	 2.237352	 -0.064526
H	 1.950193	 0.417370	 0.594936
H	 0.772117	 1.047123	 1.705869
H	 -2.285276	 0.073129	 -1.473515
H	 -2.371743	 -1.368476	 -0.483209
H	 -3.408658	 -0.007405	 -0.121593
H	 1.352881	 2.095395	 -1.102586
H	 0.144121	 2.783914	 -0.038985
H	 1.832902	 2.856338	 0.409617

	symmetry c1
}
set optking {
	frozen_dihedral = ("
		3 6 9 11
	")
}

ee,wfn = optimize('scf', return_wfn=True)
oeprop( wfn, 'DIPOLE', 'QUADRUPOLE', 'MULLIKEN_CHARGES')
f=open( 'psi4out.xyz', 'w' )
f.write( "22  " )
f.write( str(ee) + "\n" )
f.write( MOL.save_string_xyz() )
f.close()
--------------------------------------------------------------------------

    Molecular point group: c1
  Charge       = 0
  Multiplicity = 1
  Basis Set: CC-PVTZ
  Basis Set:
  @DF-RHF Final Energy:  -290.47598782395391
    Total Energy =                       -290.4759878239539148
    Molecular point group: c1
  Basis Set: CC-PVTZ
  Basis Set:
  Basis Set: CC-PVTZ
  Basis Set:
  @DF-RHF Final Energy:  -290.47607037194842
    Total Energy =                       -290.4760703719484241
  Basis Set: CC-PVTZ
  Basis Set:
  Basis Set: CC-PVTZ
  Basis Set:
  @DF-RHF Final Energy:  -290.47625574059231
    Total Energy =                       -290.4762557405923644
  Basis Set: CC-PVTZ
  Basis Set:
  Basis Set: CC-PVTZ
  Basis Set:
  @DF-RHF Final Energy:  -290.47626145905389
    Total Energy =                       -290.4762614590538874
  Basis Set: CC-PVTZ
  Basis Set:
  Basis Set: CC-PVTZ
  Basis Set:
  @DF-RHF Final Energy:  -290.47626505317442
    Total Energy =                       -290.4762650531745294
  Basis Set: CC-PVTZ
  Basis Set:
  Charge       = 0
  Multiplicity = 1
  Basis Set: CC-PVTZ
  Basis Set:

    Orbital Energies (a.u.)
    -----------------------

    Doubly Occupied:

       1A    -15.532938     2A    -11.239069     3A    -11.238517
       4A    -11.238046     5A    -11.204885     6A    -11.203576
       7A    -11.203517     8A     -1.226062     9A     -1.024940
      10A     -1.024403    11A     -0.957369    12A     -0.849719
      13A     -0.845690    14A     -0.770918    15A     -0.648665
      16A     -0.644302    17A     -0.624659    18A     -0.593842
      19A     -0.591579    20A     -0.549825    21A     -0.532322
      22A     -0.520983    23A     -0.518253    24A     -0.495643
      25A     -0.493629    26A     -0.490408    27A     -0.462741
      28A     -0.461626    29A     -0.342803

  @DF-RHF Final Energy:  -290.47626520232183

   => Energetics <=

    Nuclear Repulsion Energy =            337.7813117613669078
    One-Electron Energy =               -1061.4532924974873822
    Two-Electron Energy =                 433.1957155337986478
    DFT Exchange-Correlation Energy =       0.0000000000000000
    Empirical Dispersion Energy =           0.0000000000000000
    PCM Polarization Energy =               0.0000000000000000
    EFP Energy =                            0.0000000000000000
    Total Energy =                       -290.4762652023218834
    Molecular point group: c1
  Basis Set: CC-PVTZ
  Basis Set:

  -Total Gradient:
     Atom            X                  Y                   Z
    ------   -----------------  -----------------  -----------------
       1       -0.000002013130     0.000002870074    -0.000000606394
       2       -0.000003062247     0.000002695233    -0.000003377750
       3       -0.000611294298    -0.000419489134    -0.001701462017
       4        0.000001925666     0.000000099830    -0.000000986130
       5        0.000000393631     0.000006093302     0.000001654841
       6        0.000832665966    -0.000042775995     0.002844626357
       7       -0.000007910214    -0.000002151584     0.000006753116
       8       -0.000002899123     0.000006242826    -0.000006702349
       9       -0.000110241723     0.001911107273    -0.002165877839
      10       -0.000010172562    -0.000010519686    -0.000006539602
      11       -0.000081584819    -0.001449656735     0.001030751423
      12        0.000006692678     0.000000763404    -0.000001807812
      13       -0.000000557559     0.000002567953     0.000004583116
      14       -0.000008790341    -0.000002036974    -0.000001798756
      15        0.000001349818    -0.000002302000    -0.000007539913
      16       -0.000000647923     0.000001826887     0.000005606191
      17       -0.000000485804     0.000002141273    -0.000007823845
      18        0.000004205316    -0.000014153422     0.000002198786
      19       -0.000010301384     0.000005656003     0.000003688336
      20        0.000001002015    -0.000000640716    -0.000001024286
      21        0.000000948318     0.000004912320     0.000000486642
      22        0.000000777719    -0.000003250128     0.000005197884

  **** Optimization is complete! (in 6 steps) ****
    Final optimized geometry and variables:
    Molecular point group: c1

    Geometry (in Angstrom), charge = 0, multiplicity = 1:

    H            1.534160601312    -2.980398911398    -0.518688824637
    C            1.348227675008    -1.929625884976    -0.714158574079
    C            0.305611165977    -1.390098001195     0.256103922381
    H            1.000027445776    -1.825720556735    -1.734403240442
    H            2.294257838463    -1.409138364592    -0.630932460748
    N           -0.002052752190     0.013626433517     0.037859209983
    H           -0.597728393098    -1.967535223728     0.129324069542
    H            0.633104426003    -1.564144490438     1.285052428046
    C           -1.350364658594     0.380501610130     0.434221709681
    C            0.996596828742     0.900015112517     0.612598352812
    C           -2.441933806727    -0.190723370844    -0.461502063525
    H           -1.424773070045     1.458493458458     0.402974557563
    H           -1.546020177502     0.092227048091     1.472647693216
    C            1.143349417783     2.216494200684    -0.139092067776
    H            1.952899915211     0.396030916523     0.592775325687
    H            0.781078199613     1.097358647532     1.666462637588
    H           -2.269134189079     0.089558558623    -1.493628036368
    H           -2.504143432736    -1.269693566668    -0.411854956573
    H           -3.406121198989     0.201951566257    -0.157449369702
    H            1.416704660628     2.031243823694    -1.170550912737
    H            0.229282482947     2.796838747974    -0.135505791693
    H            1.917225593704     2.823582029539     0.318590305468

  Mulliken Charges: (a.u.)
   Center  Symbol    Alpha    Beta     Spin     Total
       1     H     0.45323  0.45323  0.00000  0.09353
       2     C     3.14092  3.14092  0.00000 -0.28183
       3     C     3.04331  3.04331  0.00000 -0.08663
       4     H     0.45185  0.45185  0.00000  0.09630
       5     H     0.45610  0.45610  0.00000  0.08781
       6     N     3.62313  3.62313  0.00000 -0.24626
       7     H     0.44933  0.44933  0.00000  0.10135
       8     H     0.46371  0.46371  0.00000  0.07258
       9     C     3.03886  3.03886  0.00000 -0.07772
      10     C     3.04528  3.04528  0.00000 -0.09055
      11     C     3.14763  3.14763  0.00000 -0.29526
      12     H     0.45019  0.45019  0.00000  0.09962
      13     H     0.46673  0.46673  0.00000  0.06655
      14     C     3.14022  3.14022  0.00000 -0.28045
      15     H     0.44883  0.44883  0.00000  0.10233
      16     H     0.46231  0.46231  0.00000  0.07537
      17     H     0.45071  0.45071  0.00000  0.09858
      18     H     0.45514  0.45514  0.00000  0.08973
      19     H     0.45102  0.45102  0.00000  0.09796
      20     H     0.45175  0.45175  0.00000  0.09649
      21     H     0.45635  0.45635  0.00000  0.08729
      22     H     0.45340  0.45340  0.00000  0.09321

   Total alpha = 29.00000, Total beta = 29.00000, Total charge = -0.00000

*** Psi4 exiting successfully. Buy a developer a beer!
