  ==> Input File <==

--------------------------------------------------------------------------
set {
	reference rhf
	basis 6-31G*
}

set_num_threads( 4 )
memory 2 gb

molecule MOL {
0 1

O	 1.673162	 1.597878	 0.471392
C	 1.187638	 1.014821	 1.386504
C	 -0.125575	 0.271532	 1.357200
O	 1.756886	 0.937874	 2.582820
C	 -0.823008	 0.326187	 0.001381
H	 0.074992	 -0.753815	 1.655779
H	 -0.752824	 0.689660	 2.139790
C	 -2.149452	 -0.435131	 -0.000098
H	 -0.162518	 -0.081882	 -0.757183
H	 -0.992222	 1.362924	 -0.272210
C	 -3.368779	 0.488503	 -0.000883
H	 -2.193746	 -1.087250	 -0.871175
H	 -2.195311	 -1.087803	 0.870418
C	 -4.693822	 -0.272754	 -0.001129
H	 -3.325798	 1.139422	 -0.871284
H	 -3.326423	 1.139959	 0.869145
H	 -4.781274	 -0.907928	 -0.878124
H	 -5.538651	 0.408946	 -0.001420
H	 -4.781694	 -0.907783	 0.875984
C	 3.000999	 1.594026	 2.745924
H	 3.737462	 1.186082	 2.068627
H	 3.295537	 1.418164	 3.768761
H	 2.898600	 2.653949	 2.562660

	symmetry c1
}
set optking {
	frozen_dihedral = ("
		9 5 8 12
	")
}

ee = optimize('scf')
oeprop('DIPOLE', 'QUADRUPOLE', 'MULLIKEN_CHARGES')
f=open( 'psi4out.xyz', 'w' )
f.write( "23  " )
f.write( str(ee) + "\n" )
f.write( MOL.save_string_xyz() )
f.close()
--------------------------------------------------------------------------

    Molecular point group: c1
  Charge       = 0
  Multiplicity = 1
  Basis Set: 6-31G*
  Basis Set:
  @DF-RHF Final Energy:  -422.97113948223347
    Total Energy =                       -422.9711394822338661
    Molecular point group: c1
  Basis Set: 6-31G*
  Basis Set:
  Basis Set: 6-31G*
  Basis Set:
  @DF-RHF Final Energy:  -422.97140482182721
    Total Energy =                       -422.9714048218271500
  Basis Set: 6-31G*
  Basis Set:
  Basis Set: 6-31G*
  Basis Set:
  @DF-RHF Final Energy:  -422.97104683233511
    Total Energy =                       -422.9710468323353325
  Basis Set: 6-31G*
  Basis Set:
  Basis Set: 6-31G*
  Basis Set:
  @DF-RHF Final Energy:  -422.97149436574784
    Total Energy =                       -422.9714943657468211
  Basis Set: 6-31G*
  Basis Set:
  Basis Set: 6-31G*
  Basis Set:
  @DF-RHF Final Energy:  -422.97149386421603
    Total Energy =                       -422.9714938642152902
  Basis Set: 6-31G*
  Basis Set:
  Basis Set: 6-31G*
  Basis Set:
  @DF-RHF Final Energy:  -422.97150462109511
    Total Energy =                       -422.9715046210947094
  Basis Set: 6-31G*
  Basis Set:
  Basis Set: 6-31G*
  Basis Set:
  @DF-RHF Final Energy:  -422.97150565674843
    Total Energy =                       -422.9715056567483771
  Basis Set: 6-31G*
  Basis Set:
  Charge       = 0
  Multiplicity = 1
  Basis Set: 6-31G*
  Basis Set:

    Orbital Energies (a.u.)
    -----------------------

    Doubly Occupied:

       1A    -20.603662     2A    -20.545559     3A    -11.372157
       4A    -11.280875     5A    -11.235974     6A    -11.218858
       7A    -11.218149     8A    -11.217334     9A    -11.210202
      10A     -1.469345    11A     -1.362811    12A     -1.091867
      13A     -1.043138    14A     -0.986436    15A     -0.931868
      16A     -0.846540    17A     -0.794917    18A     -0.767272
      19A     -0.700637    20A     -0.682320    21A     -0.672484
      22A     -0.634423    23A     -0.621936    24A     -0.598574
      25A     -0.573825    26A     -0.558780    27A     -0.554993
      28A     -0.528348    29A     -0.521024    30A     -0.497805
      31A     -0.496730    32A     -0.470147    33A     -0.464125
      34A     -0.458549    35A     -0.451996    36A     -0.435842

  @DF-RHF Final Energy:  -422.97150568799037

   => Energetics <=

    Nuclear Repulsion Energy =            454.7881479441103352
    One-Electron Energy =               -1477.2803046714766424
    Two-Electron Energy =                 599.5206510393759345
    DFT Exchange-Correlation Energy =       0.0000000000000000
    Empirical Dispersion Energy =           0.0000000000000000
    PCM Polarization Energy =               0.0000000000000000
    EFP Energy =                            0.0000000000000000
    Total Energy =                       -422.9715056879904296
    Molecular point group: c1
  Basis Set: 6-31G*
  Basis Set:

  -Total Gradient:
     Atom            X                  Y                   Z
    ------   -----------------  -----------------  -----------------
       1       -0.000001485124    -0.000002711546    -0.000003512807
       2        0.000010178826    -0.000005695668     0.000001859366
       3       -0.000000820995     0.000025256532     0.000000913615
       4       -0.000001024613     0.000004220523     0.000008053664
       5        0.001440693793    -0.002701670007     0.002574148822
       6        0.000002347342    -0.000002560318    -0.000006075574
       7        0.000001750171    -0.000004057329     0.000000231748
       8       -0.001564203224     0.002928066282    -0.002189197359
       9       -0.000939674231     0.001786953421    -0.001795948206
      10        0.000007491338    -0.000001652826     0.000006959555
      11       -0.000005524070    -0.000009244931    -0.000002322250
      12        0.001064287761    -0.002016761975     0.001408943766
      13       -0.000009250452     0.000002055554    -0.000003132416
      14       -0.000003956931     0.000003969466     0.000003688004
      15        0.000004706145    -0.000002853962    -0.000000498634
      16       -0.000002585801    -0.000000271991    -0.000000474116
      17       -0.000000143532     0.000002770662    -0.000002000571
      18       -0.000001710287    -0.000001042563     0.000002408957
      19        0.000001287796    -0.000002044532    -0.000001290906
      20       -0.000000891357    -0.000002478452    -0.000002790371
      21        0.000000351313     0.000000247085     0.000000032951
      22       -0.000001401032    -0.000000593782     0.000000033621
      23       -0.000000422837     0.000000100359    -0.000000030864

  **** Optimization is complete! (in 8 steps) ****
    Final optimized geometry and variables:
    Molecular point group: c1

    Geometry (in Angstrom), charge = 0, multiplicity = 1:

    O            2.027491544369     0.987436603730    -0.487851905731
    C            1.548024896838     0.385039118970     0.417920494461
    C            0.249778265368    -0.383363858789     0.372416437120
    O            2.109588829110     0.309232466779     1.617959044872
    C           -0.435219384802    -0.338859967488    -0.990292003514
    H            0.466220230026    -1.405404409781     0.670312133249
    H           -0.394208659348     0.020699589593     1.149148969068
    C           -1.792535117262    -1.072435513288    -1.003077610431
    H            0.227411404194    -0.747400831402    -1.744718996688
    H           -0.577297372600     0.698871404789    -1.274503537172
    C           -2.999156267353    -0.132254731028    -0.969944541297
    H           -1.855338455872    -1.716584022925    -1.876078612322
    H           -1.851976720173    -1.747179628962    -0.150437416796
    C           -4.334087217602    -0.874079901408    -0.930689652788
    H           -2.970291017102     0.516295730404    -1.842402204558
    H           -2.923295842818     0.521465598652    -0.102901034855
    H           -4.451880744554    -1.513954642323    -1.800729588642
    H           -5.169218541405    -0.180717642909    -0.914925426272
    H           -4.408736903185    -1.502142306962    -0.047326794361
    C            3.338596304972     0.989457510153     1.796490344680
    H            4.088612750257     0.602545405571     1.121740192164
    H            3.628731416297     0.810898224997     2.820160504327
    H            3.215737293782     2.048587892109     1.621368439259

  Mulliken Charges: (a.u.)
   Center  Symbol    Alpha    Beta     Spin     Total
       1     O     4.28590  4.28590  0.00000 -0.57180
       2     C     2.60580  2.60580  0.00000  0.78841
       3     C     3.20891  3.20891  0.00000 -0.41782
       4     O     4.30730  4.30730  0.00000 -0.61460
       5     C     3.15683  3.15683  0.00000 -0.31365
       6     H     0.40014  0.40014  0.00000  0.19973
       7     H     0.40061  0.40061  0.00000  0.19878
       8     C     3.15762  3.15762  0.00000 -0.31525
       9     H     0.40932  0.40932  0.00000  0.18137
      10     H     0.40903  0.40903  0.00000  0.18194
      11     C     3.15255  3.15255  0.00000 -0.30511
      12     H     0.41807  0.41807  0.00000  0.16386
      13     H     0.42328  0.42328  0.00000  0.15343
      14     C     3.24022  3.24022  0.00000 -0.48044
      15     H     0.42001  0.42001  0.00000  0.15998
      16     H     0.42396  0.42396  0.00000  0.15207
      17     H     0.42103  0.42103  0.00000  0.15794
      18     H     0.41853  0.41853  0.00000  0.16293
      19     H     0.42185  0.42185  0.00000  0.15629
      20     C     3.09246  3.09246  0.00000 -0.18492
      21     H     0.40905  0.40905  0.00000  0.18190
      22     H     0.40845  0.40845  0.00000  0.18310
      23     H     0.40908  0.40908  0.00000  0.18184

   Total alpha = 36.00000, Total beta = 36.00000, Total charge = -0.00000
