  ==> Input File <==

--------------------------------------------------------------------------
set {
	reference rhf
	basis 6-31G*
}

set_num_threads( 4 )
memory 2 gb

molecule MOL {
0 1

O	 3.225979	 0.970355	 -0.599647
C	 2.701189	 0.057885	 -0.047330
C	 1.245376	 -0.013843	 0.345420
O	 3.347903	 -1.046386	 0.304773
C	 0.455112	 1.231400	 -0.050772
H	 0.838542	 -0.913825	 -0.103701
H	 1.208210	 -0.175333	 1.419774
C	 -0.998893	 1.219485	 0.433193
H	 0.482531	 1.345121	 -1.130325
H	 0.957290	 2.103070	 0.354729
C	 -1.883438	 0.145884	 -0.207175
H	 -1.431207	 2.195402	 0.224832
H	 -1.019646	 1.105716	 1.516076
C	 -2.415243	 0.555501	 -1.582093
H	 -1.313419	 -0.777044	 -0.302579
H	 -2.726204	 -0.081266	 0.441763
C	 -3.304707	 -0.507580	 -2.229274
H	 -1.576983	 0.771872	 -2.242198
H	 -2.976316	 1.484079	 -1.489154
C	 -3.828527	 -0.092325	 -3.603638
H	 -2.745910	 -1.436447	 -2.321980
H	 -4.145519	 -0.722047	 -1.572906
H	 -4.455369	 -0.865920	 -4.036337
H	 -3.011264	 0.095725	 -4.294226
H	 -4.421117	 0.815959	 -3.539363
C	 4.728119	 -1.109107	 -0.004993
H	 4.882018	 -1.033965	 -1.071845
H	 5.068212	 -2.067527	 0.355250
H	 5.265056	 -0.311663	 0.488280

	symmetry c1
}
set optking {
	frozen_dihedral = ("
		15 11 8 5
	")
}

ee = optimize('scf')
oeprop('DIPOLE', 'QUADRUPOLE', 'MULLIKEN_CHARGES')
f=open( 'psi4out.xyz', 'w' )
f.write( "29  " )
f.write( str(ee) + "\n" )
f.write( MOL.save_string_xyz() )
f.close()
--------------------------------------------------------------------------

    Molecular point group: c1
  Charge       = 0
  Multiplicity = 1
  Basis Set: 6-31G*
  Basis Set:
  @DF-RHF Final Energy:  -501.04108696718686
    Total Energy =                       -501.0410869671862883
    Molecular point group: c1
  Basis Set: 6-31G*
  Basis Set:
  Basis Set: 6-31G*
  Basis Set:
  @DF-RHF Final Energy:  -501.04126256059362
    Total Energy =                       -501.0412625605943049
  Basis Set: 6-31G*
  Basis Set:
  Basis Set: 6-31G*
  Basis Set:
  @DF-RHF Final Energy:  -501.04151375416927
    Total Energy =                       -501.0415137541688182
  Basis Set: 6-31G*
  Basis Set:
  Basis Set: 6-31G*
  Basis Set:
  @DF-RHF Final Energy:  -501.04151035911320
    Total Energy =                       -501.0415103591129764
  Basis Set: 6-31G*
  Basis Set:
  Basis Set: 6-31G*
  Basis Set:
  @DF-RHF Final Energy:  -501.04146012110289
    Total Energy =                       -501.0414601211030003
  Basis Set: 6-31G*
  Basis Set:
  Basis Set: 6-31G*
  Basis Set:
  @DF-RHF Final Energy:  -501.04153936061414
    Total Energy =                       -501.0415393606147063
  Basis Set: 6-31G*
  Basis Set:
  Basis Set: 6-31G*
  Basis Set:
  @DF-RHF Final Energy:  -501.04154065206467
    Total Energy =                       -501.0415406520650095
  Basis Set: 6-31G*
  Basis Set:
  Charge       = 0
  Multiplicity = 1
  Basis Set: 6-31G*
  Basis Set:

    Orbital Energies (a.u.)
    -----------------------

    Doubly Occupied:

       1A    -20.603572     2A    -20.545404     3A    -11.372240
       4A    -11.280826     5A    -11.234956     6A    -11.219158
       7A    -11.217780     8A    -11.215849     9A    -11.215226
      10A    -11.213354    11A    -11.208274    12A     -1.469272
      13A     -1.362713    14A     -1.097693    15A     -1.065640
      16A     -1.018669    17A     -0.976328    18A     -0.927701
      19A     -0.864554    20A     -0.804323    21A     -0.784475
      22A     -0.761778    23A     -0.701080    24A     -0.682954
      25A     -0.671676    26A     -0.649347    27A     -0.628506
      28A     -0.605911    29A     -0.593980    30A     -0.575381
      31A     -0.564005    32A     -0.560769    33A     -0.532680
      34A     -0.526135    35A     -0.522197    36A     -0.510284
      37A     -0.492249    38A     -0.478901    39A     -0.472676
      40A     -0.458873    41A     -0.456586    42A     -0.452981
      43A     -0.441102    44A     -0.436433

  @DF-RHF Final Energy:  -501.04154088048233

   => Energetics <=

    Nuclear Repulsion Energy =            618.3993096937357450
    One-Electron Energy =               -1907.9327170424705855
    Two-Electron Energy =                 788.4918664682529652
    DFT Exchange-Correlation Energy =       0.0000000000000000
    Empirical Dispersion Energy =           0.0000000000000000
    PCM Polarization Energy =               0.0000000000000000
    EFP Energy =                            0.0000000000000000
    Total Energy =                       -501.0415408804817616
    Molecular point group: c1
  Basis Set: 6-31G*
  Basis Set:

  -Total Gradient:
     Atom            X                  Y                   Z
    ------   -----------------  -----------------  -----------------
       1        0.000002821616     0.000007762439     0.000016077721
       2       -0.000002979952     0.000000949915    -0.000017368930
       3       -0.000004419812    -0.000011387895    -0.000037213353
       4       -0.000002956340    -0.000002332308     0.000000819908
       5        0.000419503596    -0.001115869511     0.001164330569
       6       -0.000001059062    -0.000001171205     0.000012911018
       7       -0.000005965537     0.000012176439     0.000008504292
       8       -0.000443755410     0.001748283043    -0.002159569863
       9       -0.000000442052    -0.000006477422     0.000013589207
      10        0.000005538503     0.000009454071    -0.000000502609
      11       -0.000664687960    -0.001325411793     0.003035893659
      12        0.000002412604     0.000007468117     0.000008406408
      13       -0.000001719168    -0.000002860376    -0.000001855231
      14        0.000014170503    -0.000003656496    -0.000010040705
      15        0.000679514858     0.000684343377    -0.002037508407
      16        0.000007934179    -0.000001044985     0.000009557580
      17       -0.000001968060     0.000002564836    -0.000002514696
      18        0.000004656289    -0.000001413854     0.000000967390
      19        0.000000438012    -0.000004742248    -0.000009004244
      20       -0.000009708798     0.000002789772     0.000004670765
      21        0.000003489355     0.000005896738    -0.000004992735
      22        0.000001308047    -0.000007423598     0.000001512130
      23       -0.000003444544     0.000001428704     0.000001137534
      24        0.000000046893    -0.000003156468     0.000002278299
      25        0.000000626821     0.000002666635    -0.000002112269
      26       -0.000000403141     0.000001229866     0.000001901194
      27       -0.000000057561     0.000000044564     0.000000294290
      28        0.000000494404    -0.000000071339     0.000000040068
      29        0.000000611702    -0.000000039019    -0.000000208990

  **** Optimization is complete! (in 8 steps) ****
    Final optimized geometry and variables:
    Molecular point group: c1

    Geometry (in Angstrom), charge = 0, multiplicity = 1:

    O            2.864143847593     0.782460015601    -0.048835543717
    C            2.375526680061    -0.067675027852     0.623205323315
    C            0.938103647945    -0.109163489804     1.082275526499
    O            3.051870695793    -1.119196473658     1.068614257354
    C            0.118415155949     1.084700649978     0.597476244380
    H            0.523534018915    -1.053999228841     0.746278540262
    H            0.947004730523    -0.160158380540     2.167836044058
    C           -1.333881783051     1.065853942709     1.093318262957
    H            0.150422919984     1.126356306693    -0.486252069985
    H            0.599916996905     1.993579553540     0.942387583084
    C           -2.240602954678     0.015173824858     0.431448268144
    H           -1.769080070741     2.050127415124     0.940311092306
    H           -1.327708964428     0.907982474913     2.170036709893
    C           -2.794853540868     0.456777978848    -0.927007793522
    H           -1.697543677376    -0.917075526460     0.295348837407
    H           -3.073643255072    -0.208339210318     1.093107158693
    C           -3.667457336894    -0.606896218132    -1.595934035580
    H           -1.975301743732     0.715407074476    -1.594462047170
    H           -3.377521222570     1.366914917570    -0.795105094138
    C           -4.235754485766    -0.154772910694    -2.940698931001
    H           -3.084148968750    -1.514315076361    -1.738212875965
    H           -4.485623349973    -0.872459331329    -0.929602884475
    H           -4.849027021568    -0.929998466534    -3.389674544758
    H           -3.441058477423     0.085521124227    -3.641333529910
    H           -4.853770497661     0.731407120486    -2.827041274824
    C            4.419159697235    -1.202717386771     0.710130227316
    H            4.528549437958    -1.245987408893    -0.363964760687
    H            4.787317069204    -2.111403136041     1.160383532705
    H            4.964092008444    -0.349843008279     1.088517468032

  Mulliken Charges: (a.u.)
   Center  Symbol    Alpha    Beta     Spin     Total
       1     O     4.28592  4.28592  0.00000 -0.57183
       2     C     2.60532  2.60532  0.00000  0.78937
       3     C     3.20847  3.20847  0.00000 -0.41694
       4     O     4.30734  4.30734  0.00000 -0.61467
       5     C     3.15544  3.15544  0.00000 -0.31087
       6     H     0.39964  0.39964  0.00000  0.20073
       7     H     0.40090  0.40090  0.00000  0.19821
       8     C     3.16006  3.16006  0.00000 -0.32012
       9     H     0.41082  0.41082  0.00000  0.17836
      10     H     0.40973  0.40973  0.00000  0.18054
      11     C     3.15584  3.15584  0.00000 -0.31168
      12     H     0.41731  0.41731  0.00000  0.16538
      13     H     0.42227  0.42227  0.00000  0.15547
      14     C     3.15215  3.15215  0.00000 -0.30429
      15     H     0.42430  0.42430  0.00000  0.15140
      16     H     0.42008  0.42008  0.00000  0.15983
      17     C     3.15135  3.15135  0.00000 -0.30270
      18     H     0.42194  0.42194  0.00000  0.15612
      19     H     0.42349  0.42349  0.00000  0.15302
      20     C     3.23928  3.23928  0.00000 -0.47856
      21     H     0.42366  0.42366  0.00000  0.15267
      22     H     0.42327  0.42327  0.00000  0.15347
      23     H     0.41945  0.41945  0.00000  0.16109
      24     H     0.42130  0.42130  0.00000  0.15739
      25     H     0.42162  0.42162  0.00000  0.15676
      26     C     3.09241  3.09241  0.00000 -0.18481
      27     H     0.40913  0.40913  0.00000  0.18175
      28     H     0.40846  0.40846  0.00000  0.18307
      29     H     0.40907  0.40907  0.00000  0.18185

   Total alpha = 44.00000, Total beta = 44.00000, Total charge =  0.00000
