                              Psi4 1.0.54 Driver

  ==> Input File <==

--------------------------------------------------------------------------
set {
	reference rhf
	basis cc-pvtz
}

set_num_threads( 4 )
memory 2 gb

molecule MOL {
0 1

H	 -3.237401	 0.509461	 -0.845692
C	 -2.200708	 0.295704	 -0.673383
C	 -1.780479	 -1.004069	 -0.428781
C	 -1.265864	 1.304479	 -0.691087
H	 -2.495750	 -1.804450	 -0.411124
C	 -0.453231	 -1.282407	 -0.207506
H	 -1.571897	 2.316340	 -0.878625
C	 0.078706	 1.040901	 -0.469573
H	 -0.118182	 -2.283085	 -0.017619
C	 0.487099	 -0.257689	 -0.226758
H	 0.781279	 1.848019	 -0.489935
O	 1.760432	 -0.625184	 0.000000
C	 2.773565	 0.334879	 0.000000
H	 2.728295	 0.960928	 -0.884150
H	 3.706387	 -0.206610	 0.000000
H	 2.728295	 0.960928	 0.884150

	symmetry c1
}
set optking {
	frozen_dihedral = ("
		10 12 13 14
	")
}

ee,wfn = optimize('scf', return_wfn=True)
oeprop( wfn, 'DIPOLE', 'QUADRUPOLE', 'MULLIKEN_CHARGES')
f=open( 'psi4out.xyz', 'w' )
f.write( "16  " )
f.write( str(ee) + "\n" )
f.write( MOL.save_string_xyz() )
f.close()
--------------------------------------------------------------------------

    Molecular point group: c1
  Charge       = 0
  Multiplicity = 1
  Basis Set: CC-PVTZ
  Basis Set:
  @DF-RHF Final Energy:  -344.70319759912974
    Total Energy =                       -344.7031975991295667
    Molecular point group: c1
  Basis Set: CC-PVTZ
  Basis Set:
  Basis Set: CC-PVTZ
  Basis Set:
  @DF-RHF Final Energy:  -344.70334699216517
    Total Energy =                       -344.7033469921655069
  Basis Set: CC-PVTZ
  Basis Set:
  Basis Set: CC-PVTZ
  Basis Set:
  @DF-RHF Final Energy:  -344.70346079683526
    Total Energy =                       -344.7034607968350883
  Basis Set: CC-PVTZ
  Basis Set:
  Charge       = 0
  Multiplicity = 1
  Basis Set: CC-PVTZ
  Basis Set:

    Orbital Energies (a.u.)
    -----------------------

    Doubly Occupied:

       1A    -20.580234     2A    -11.293719     3A    -11.278523
       4A    -11.231251     5A    -11.230000     6A    -11.221869
       7A    -11.218004     8A    -11.216938     9A     -1.419681
      10A     -1.150944    11A     -1.025695    12A     -1.016661
      13A     -0.944319    14A     -0.834591    15A     -0.808367
      16A     -0.726307    17A     -0.667905    18A     -0.666405
      19A     -0.660325    20A     -0.619476    21A     -0.590286
      22A     -0.579897    23A     -0.527963    24A     -0.523659
      25A     -0.512532    26A     -0.479536    27A     -0.466667
      28A     -0.339760    29A     -0.310101

  @DF-RHF Final Energy:  -344.70346517357945

   => Energetics <=

    Nuclear Repulsion Energy =            348.8805914836086117
    One-Electron Energy =               -1158.8848762072893805
    Two-Electron Energy =                 465.3008195501013233
    DFT Exchange-Correlation Energy =       0.0000000000000000
    Empirical Dispersion Energy =           0.0000000000000000
    PCM Polarization Energy =               0.0000000000000000
    EFP Energy =                            0.0000000000000000
    Total Energy =                       -344.7034651735793886
    Molecular point group: c1
  Basis Set: CC-PVTZ
  Basis Set:

  -Total Gradient:
     Atom            X                  Y                   Z
    ------   -----------------  -----------------  -----------------
       1        0.000008283326     0.000004291769    -0.000012106561
       2       -0.000003458357     0.000101245668     0.000012793672
       3        0.000068667644    -0.000058257121    -0.000005102502
       4       -0.000108356734    -0.000043429397     0.000004142841
       5        0.000001114228    -0.000000415047     0.000009730632
       6       -0.000120445031    -0.000049455095    -0.000003971807
       7        0.000001192114     0.000004729377    -0.000006945105
       8        0.000092025198    -0.000037723590    -0.000006031002
       9        0.000008673096     0.000009469430     0.000009683413
      10        0.000332426751    -0.000265050916    -0.001283892853
      11       -0.000057510570     0.000005455650     0.000013357863
      12       -0.000566715070     0.000676154308     0.002053517378
      13        0.001323356097    -0.001519669750    -0.001420888773
      14       -0.000872712818     0.001127213288     0.000652048415
      15       -0.000169095118    -0.000011542020     0.000016145851
      16        0.000062555246     0.000056983446    -0.000032481460

  **** Optimization is complete! (in 4 steps) ****
    Final optimized geometry and variables:
    Molecular point group: c1

    Geometry (in Angstrom), charge = 0, multiplicity = 1:

    H           -3.244546802015     0.538967475887    -0.602040492822
    C           -2.213825229754     0.324541154218    -0.397664444875
    C           -1.798537407158    -0.978521223402    -0.162490147636
    C           -1.282202014284     1.335842509223    -0.363087995405
    H           -2.511645566710    -1.780726949422    -0.184545450386
    C           -0.478616043505    -1.258051443656     0.097982354067
    H           -1.585063596139     2.350692669457    -0.539336630494
    C            0.054534723290     1.071174396856    -0.099658301686
    H           -0.147135787868    -2.261327270174     0.280255348017
    C            0.458977204620    -0.231173459866     0.128936029900
    H            0.753656500965     1.881182594082    -0.071502959658
    O            1.723580485338    -0.597860759527     0.401853412670
    C            2.760733957019     0.330332025720     0.287996583925
    H            2.731847586614     0.845556248182    -0.664869312694
    H            3.680928144324    -0.226050082437     0.368198088556
    H            2.721875118650     1.065819090621     1.084637476120

  Mulliken Charges: (a.u.)
   Center  Symbol    Alpha    Beta     Spin     Total
       1     H     0.42441  0.42441  0.00000  0.15119
       2     C     3.10080  3.10080  0.00000 -0.20160
       3     C     3.05811  3.05811  0.00000 -0.11622
       4     C     3.06171  3.06171  0.00000 -0.12342
       5     H     0.42299  0.42299  0.00000  0.15402
       6     C     3.11130  3.11130  0.00000 -0.22260
       7     H     0.42358  0.42358  0.00000  0.15284
       8     C     3.14315  3.14315  0.00000 -0.28630
       9     H     0.42087  0.42087  0.00000  0.15826
      10     C     2.85081  2.85081  0.00000  0.29838
      11     H     0.42267  0.42267  0.00000  0.15465
      12     O     4.15150  4.15150  0.00000 -0.30301
      13     C     3.04452  3.04452  0.00000 -0.08904
      14     H     0.46318  0.46318  0.00000  0.07364
      15     H     0.43902  0.43902  0.00000  0.12196
      16     H     0.46138  0.46138  0.00000  0.07724

   Total alpha = 29.00000, Total beta = 29.00000, Total charge =  0.00000

*** Psi4 exiting successfully. Buy a developer a beer!
