  ==> Input File <==

--------------------------------------------------------------------------
set {
	reference rhf
	basis 6-31G*
}

set_num_threads( 4 )
memory 2 gb

molecule MOL {
0 1

O	 3.225979	 0.970355	 -0.599647
C	 2.701189	 0.057885	 -0.047330
C	 1.245376	 -0.013843	 0.345420
O	 3.347903	 -1.046386	 0.304773
C	 0.455112	 1.231400	 -0.050772
H	 0.838542	 -0.913825	 -0.103701
H	 1.208210	 -0.175333	 1.419774
C	 -0.998893	 1.219485	 0.433193
H	 0.482531	 1.345121	 -1.130325
H	 0.957290	 2.103070	 0.354729
C	 -1.883438	 0.145884	 -0.207175
H	 -1.431207	 2.195402	 0.224832
H	 -1.019646	 1.105716	 1.516076
C	 -3.347647	 0.245583	 0.225435
H	 -1.822183	 0.231698	 -1.291012
H	 -1.510341	 -0.844814	 0.042401
C	 -4.239992	 -0.825570	 -0.404234
H	 -3.732888	 1.230466	 -0.033079
H	 -3.408585	 0.170602	 1.310038
C	 -3.449779	 -2.007355	 -0.965171
H	 -4.948640	 -1.185729	 0.338562
H	 -4.832949	 -0.378597	 -1.199468
H	 -4.109525	 -2.749214	 -1.404473
H	 -2.872552	 -2.497937	 -0.186497
H	 -2.755576	 -1.684396	 -1.735920
C	 4.728119	 -1.109107	 -0.004993
H	 4.882018	 -1.033965	 -1.071845
H	 5.068212	 -2.067527	 0.355250
H	 5.265056	 -0.311663	 0.488280

	symmetry c1
}
set optking {
	frozen_dihedral = ("
		21 17 14 11
	")
}

ee = optimize('scf')
oeprop('DIPOLE', 'QUADRUPOLE', 'MULLIKEN_CHARGES')
f=open( 'psi4out.xyz', 'w' )
f.write( "29  " )
f.write( str(ee) + "\n" )
f.write( MOL.save_string_xyz() )
f.close()
--------------------------------------------------------------------------

    Molecular point group: c1
  Charge       = 0
  Multiplicity = 1
  Basis Set: 6-31G*
  Basis Set:
  @DF-RHF Final Energy:  -501.03239671377594
    Total Energy =                       -501.0323967137758245
    Molecular point group: c1
  Basis Set: 6-31G*
  Basis Set:
  Basis Set: 6-31G*
  Basis Set:
  @DF-RHF Final Energy:  -501.03275156156815
    Total Energy =                       -501.0327515615676930
  Basis Set: 6-31G*
  Basis Set:
  Basis Set: 6-31G*
  Basis Set:
  @DF-RHF Final Energy:  -501.03552366260681
    Total Energy =                       -501.0355236626071473
  Basis Set: 6-31G*
  Basis Set:
  Basis Set: 6-31G*
  Basis Set:
  @DF-RHF Final Energy:  -501.03583122858845
    Total Energy =                       -501.0358312285884494
  Basis Set: 6-31G*
  Basis Set:
  @DF-RHF Final Energy:  -501.03583147509050
    Total Energy =                       -501.0358314750908448
  Basis Set: 6-31G*
  Basis Set:
  @DF-RHF Final Energy:  -501.03585264825892
    Total Energy =                       -501.0358526482594925
  Basis Set: 6-31G*
  Basis Set:
  Basis Set: 6-31G*
  Basis Set:
  @DF-RHF Final Energy:  -501.03586160852797
    Total Energy =                       -501.0358616085280801
  Basis Set: 6-31G*
  Basis Set:
  Basis Set: 6-31G*
  Basis Set:
  @DF-RHF Final Energy:  -501.03586418951909
    Total Energy =                       -501.0358641895195433
  Basis Set: 6-31G*
  Basis Set:
  Charge       = 0
  Multiplicity = 1
  Basis Set: 6-31G*
  Basis Set:

    Orbital Energies (a.u.)
    -----------------------

    Doubly Occupied:

       1A    -20.603338     2A    -20.545162     3A    -11.371974
       4A    -11.280631     5A    -11.234719     6A    -11.218960
       7A    -11.217408     8A    -11.216606     9A    -11.215539
      10A    -11.214872    11A    -11.209050    12A     -1.469036
      13A     -1.362475    14A     -1.097185    15A     -1.063921
      16A     -1.017338    17A     -0.975516    18A     -0.927805
      19A     -0.873378    20A     -0.804470    21A     -0.773557
      22A     -0.763258    23A     -0.700633    24A     -0.682214
      25A     -0.672114    26A     -0.647879    27A     -0.629768
      28A     -0.602796    29A     -0.596056    30A     -0.591760
      31A     -0.557000    32A     -0.550398    33A     -0.539691
      34A     -0.523872    35A     -0.521258    36A     -0.508410
      37A     -0.500406    38A     -0.477085    39A     -0.473322
      40A     -0.456735    41A     -0.453496    42A     -0.449139
      43A     -0.442607    44A     -0.435705

  @DF-RHF Final Energy:  -501.03586465752846

   => Energetics <=

    Nuclear Repulsion Energy =            618.2961640219805304
    One-Electron Energy =               -1907.7269749013757973
    Two-Electron Energy =                 788.3949462218668032
    DFT Exchange-Correlation Energy =       0.0000000000000000
    Empirical Dispersion Energy =           0.0000000000000000
    PCM Polarization Energy =               0.0000000000000000
    EFP Energy =                            0.0000000000000000
    Total Energy =                       -501.0358646575284638
    Molecular point group: c1
  Basis Set: 6-31G*
  Basis Set:

  -Total Gradient:
     Atom            X                  Y                   Z
    ------   -----------------  -----------------  -----------------
       1        0.000006987014     0.000000291069     0.000005502192
       2       -0.000012731879    -0.000014431534    -0.000025090818
       3        0.000016491379    -0.000005182057     0.000005174284
       4        0.000000217933     0.000005938221    -0.000001329590
       5       -0.000002335254     0.000005467630     0.000011462250
       6        0.000028082435     0.000010085315     0.000004012070
       7       -0.000012893795     0.000001528719     0.000007558001
       8       -0.000006782631     0.000003835707    -0.000006872165
       9       -0.000005452898    -0.000006542632     0.000001352237
      10       -0.000001273884     0.000004955023    -0.000001993370
      11        0.000748780054    -0.002510816824     0.003023624240
      12        0.000004021464     0.000001318607     0.000004859283
      13        0.000012649698    -0.000006370833    -0.000002428788
      14       -0.000325707376     0.002843606366    -0.004082564590
      15       -0.000007333093     0.000000143911     0.000014489522
      16       -0.000005982982     0.000020171322     0.000010448732
      17       -0.003694920602     0.003614253651    -0.000232585794
      18        0.000019648207     0.000021251542     0.000023741816
      19        0.000022908586     0.000006045509    -0.000017203376
      20       -0.000047794712    -0.000010614789     0.000021326438
      21        0.003319469317    -0.003962376469     0.001237209019
      22       -0.000020757493    -0.000030174438    -0.000001302519
      23       -0.000005875176     0.000005737783    -0.000006517586
      24       -0.000027263380    -0.000006450533    -0.000008357355
      25       -0.000003898451     0.000006360454     0.000011319609
      26        0.000001263504     0.000002239351     0.000005669983
      27       -0.000002933758     0.000000707685    -0.000000644124
      28        0.000000761984     0.000000134336    -0.000000126195
      29        0.000002655782    -0.000001112094    -0.000000733405

  **** Optimization is complete! (in 9 steps) ****
    Final optimized geometry and variables:
    Molecular point group: c1

    Geometry (in Angstrom), charge = 0, multiplicity = 1:

    O            3.042064239158     1.126878688149    -0.477566704210
    C            2.522517638823     0.205404552105     0.064666775979
    C            1.063567830850     0.114079510779     0.441421218279
    O            3.178834936546    -0.892641349468     0.418467376394
    C            0.262419534290     1.351597868064     0.042703959506
    H            0.672913260296    -0.788714819652    -0.016291461193
    H            1.016879334765    -0.053004989289     1.514559901343
    C           -1.196232003039     1.321118790262     0.511961153826
    H            0.299581175930     1.470724843395    -1.035953230604
    H            0.750256401698     2.227166029422     0.457248245920
    C           -2.062747861739     0.242619741734    -0.145922180016
    H           -1.635821338013     2.294496441736     0.307402515718
    H           -1.226137335029     1.198581139274     1.593792556758
    C           -3.525824398598     0.333783453402     0.300922557316
    H           -1.994291759056     0.347594262601    -1.227434582659
    H           -1.672461120301    -0.741183692575     0.093061135294
    C           -4.512775990139    -0.691395814940    -0.314205480855
    H           -3.893430272819     1.337477692312     0.105318524232
    H           -3.540741180774     0.222944768523     1.383182814600
    C           -3.891210064286    -1.960581549203    -0.907912236192
    H           -5.194396617524    -1.018392963704     0.465545813436
    H           -5.112517162476    -0.210402749643    -1.080902256365
    H           -4.673072815727    -2.616356183265    -1.278900005097
    H           -3.326957980486    -2.516339741916    -0.164886806361
    H           -3.226403383473    -1.744618753625    -1.737229632342
    C            4.562952813275    -0.937107861449     0.123289190748
    H            4.727329693496    -0.854778134411    -0.941471229960
    H            4.910769617491    -1.893132773945     0.482502249198
    H            5.084854184922    -0.135709481551     0.626199217069

  Mulliken Charges: (a.u.)
   Center  Symbol    Alpha    Beta     Spin     Total
       1     O     4.28597  4.28597  0.00000 -0.57193
       2     C     2.60479  2.60479  0.00000  0.79042
       3     C     3.20978  3.20978  0.00000 -0.41955
       4     O     4.30747  4.30747  0.00000 -0.61494
       5     C     3.15351  3.15351  0.00000 -0.30703
       6     H     0.39890  0.39890  0.00000  0.20219
       7     H     0.40128  0.40128  0.00000  0.19743
       8     C     3.15668  3.15668  0.00000 -0.31336
       9     H     0.41316  0.41316  0.00000  0.17367
      10     H     0.40877  0.40877  0.00000  0.18246
      11     C     3.15755  3.15755  0.00000 -0.31510
      12     H     0.41831  0.41831  0.00000  0.16337
      13     H     0.42408  0.42408  0.00000  0.15184
      14     C     3.15510  3.15510  0.00000 -0.31019
      15     H     0.42260  0.42260  0.00000  0.15480
      16     H     0.42077  0.42077  0.00000  0.15846
      17     C     3.15363  3.15363  0.00000 -0.30726
      18     H     0.42030  0.42030  0.00000  0.15940
      19     H     0.42306  0.42306  0.00000  0.15388
      20     C     3.24283  3.24283  0.00000 -0.48565
      21     H     0.42035  0.42035  0.00000  0.15931
      22     H     0.42049  0.42049  0.00000  0.15903
      23     H     0.41910  0.41910  0.00000  0.16179
      24     H     0.42228  0.42228  0.00000  0.15544
      25     H     0.42010  0.42010  0.00000  0.15981
      26     C     3.09241  3.09241  0.00000 -0.18481
      27     H     0.40908  0.40908  0.00000  0.18184
      28     H     0.40852  0.40852  0.00000  0.18297
      29     H     0.40913  0.40913  0.00000  0.18174

   Total alpha = 44.00000, Total beta = 44.00000, Total charge =  0.00000
