  ==> Input File <==

--------------------------------------------------------------------------
set {
	reference rhf
	basis cc-pvtz
}

set_num_threads( 4 )
memory 2 gb

molecule MOL {
0 1

O	 1.521685	 1.362867	 1.549800
C	 0.687311	 1.242414	 0.698901
C	 -0.355347	 2.323655	 0.502396
N	 0.622280	 0.144970	 -0.099307
H	 -1.356906	 1.935193	 0.637757
H	 -0.167859	 3.089308	 1.236641
H	 -0.293120	 2.756376	 -0.488490
C	 1.664396	 -0.854993	 0.000772
C	 -0.214945	 0.048549	 -1.271276
H	 2.462727	 -0.615153	 -0.690869
H	 1.261798	 -1.821849	 -0.240651
H	 2.081615	 -0.891605	 1.003877
H	 -0.532249	 -0.978495	 -1.398305
H	 -1.100590	 0.653566	 -1.179179
H	 0.313681	 0.347587	 -2.173592

	symmetry c1
}
set optking {
	frozen_dihedral = ("
		2 4 8 10
	")
}

ee = optimize('scf')
oeprop('DIPOLE', 'QUADRUPOLE', 'MULLIKEN_CHARGES')
f=open( 'psi4out.xyz', 'w' )
f.write( "15  " )
f.write( str(ee) + "\n" )
f.write( MOL.save_string_xyz() )
f.close()
--------------------------------------------------------------------------

    Molecular point group: c1
  Charge       = 0
  Multiplicity = 1
  Basis Set: CC-PVTZ
  Basis Set:
  @DF-RHF Final Energy:  -286.13516686367473
    Total Energy =                       -286.1351668636748400
    Molecular point group: c1
  Basis Set: CC-PVTZ
  Basis Set:
  Basis Set: CC-PVTZ
  Basis Set:
  @DF-RHF Final Energy:  -286.13553258794144
    Total Energy =                       -286.1355325879418388
  Basis Set: CC-PVTZ
  Basis Set:
  Basis Set: CC-PVTZ
  Basis Set:
  @DF-RHF Final Energy:  -286.13541700655287
    Total Energy =                       -286.1354170065526432
  Basis Set: CC-PVTZ
  Basis Set:
  Basis Set: CC-PVTZ
  Basis Set:
  @DF-RHF Final Energy:  -286.13560329237930
    Total Energy =                       -286.1356032923789598
  Basis Set: CC-PVTZ
  Basis Set:
  Basis Set: CC-PVTZ
  Basis Set:
  @DF-RHF Final Energy:  -286.13560591054602
    Total Energy =                       -286.1356059105462464
  Basis Set: CC-PVTZ
  Basis Set:
  Basis Set: CC-PVTZ
  Basis Set:
  @DF-RHF Final Energy:  -286.13560745609584
    Total Energy =                       -286.1356074560958405
  Basis Set: CC-PVTZ
  Basis Set:
  Charge       = 0
  Multiplicity = 1
  Basis Set: CC-PVTZ
  Basis Set:

    Orbital Energies (a.u.)
    -----------------------

    Doubly Occupied:

       1A    -20.504421     2A    -15.578181     3A    -11.334815
       4A    -11.263916     5A    -11.246514     6A    -11.226562
       7A     -1.387958     8A     -1.245927     9A     -1.015021
      10A     -0.973163    11A     -0.920277    12A     -0.738868
      13A     -0.683074    14A     -0.661588    15A     -0.653843
      16A     -0.590141    17A     -0.578310    18A     -0.568195
      19A     -0.562129    20A     -0.547990    21A     -0.530367
      22A     -0.506285    23A     -0.414388    24A     -0.371005

  @DF-RHF Final Energy:  -286.13560773341885

   => Energetics <=

    Nuclear Repulsion Energy =            252.9722334643489319
    One-Electron Energy =                -890.0098109537179880
    Two-Electron Energy =                 350.9019697559498354
    DFT Exchange-Correlation Energy =       0.0000000000000000
    Empirical Dispersion Energy =           0.0000000000000000
    PCM Polarization Energy =               0.0000000000000000
    EFP Energy =                            0.0000000000000000
    Total Energy =                       -286.1356077334191923
    Molecular point group: c1
  Basis Set: CC-PVTZ
  Basis Set:

  -Total Gradient:
     Atom            X                  Y                   Z
    ------   -----------------  -----------------  -----------------
       1        0.000004494061     0.000030883969     0.000010631968
       2        0.000064411765     0.000085257348    -0.000116266213
       3        0.000024010091     0.000014784574     0.000004454857
       4       -0.000114250835    -0.000119521950     0.000191398164
       5        0.000000288274    -0.000004391225     0.000004151230
       6       -0.000002177782     0.000003846477     0.000001856529
       7       -0.000002146938    -0.000001623467     0.000007361427
       8       -0.000084199910    -0.000112472061    -0.000213218765
       9        0.000007496492     0.000014143258     0.000011482791
      10        0.000100768779     0.000102973911     0.000127783927
      11        0.000011613455     0.000000526475    -0.000009641975
      12       -0.000012388912     0.000001260119    -0.000006761882
      13        0.000000760658    -0.000000667616    -0.000002916962
      14        0.000004347780    -0.000010881860    -0.000003200034
      15       -0.000003026979    -0.000004117952    -0.000007115060

  **** Optimization is complete! (in 7 steps) ****
    Final optimized geometry and variables:
    Molecular point group: c1

    Geometry (in Angstrom), charge = 0, multiplicity = 1:

    O            0.881649730752     0.661711702444     1.308848378752
    C            0.030796694013     0.536240080423     0.475417662279
    C           -1.016782534496     1.614787296779     0.292710463884
    N           -0.045933567031    -0.568402719375    -0.312543230119
    H           -2.017218935543     1.221111482654     0.419905569673
    H           -0.833157890303     2.371887056525     1.036810804485
    H           -0.952885404249     2.061122359732    -0.692122460250
    C            1.009698212865    -1.555121693598    -0.215433956365
    C           -0.872207978565    -0.657488995511    -1.493126351075
    H            1.817262280994    -1.347089015260    -0.912680225945
    H            0.604862611261    -2.532997684775    -0.442199605245
    H            1.413135074004    -1.558674679637     0.781336126416
    H           -1.206774502007    -1.679054906776    -1.618943882926
    H           -1.747285808640    -0.035815539224    -1.413055275255
    H           -0.329249558931    -0.371485562241    -2.391274645226

  Mulliken Charges: (a.u.)
   Center  Symbol    Alpha    Beta     Spin     Total
       1     O     4.21978  4.21978  0.00000 -0.43955
       2     C     2.84511  2.84511  0.00000  0.30978
       3     C     3.16083  3.16083  0.00000 -0.32166
       4     N     3.56329  3.56329  0.00000 -0.12658
       5     H     0.44885  0.44885  0.00000  0.10230
       6     H     0.42865  0.42865  0.00000  0.14270
       7     H     0.44903  0.44903  0.00000  0.10194
       8     C     3.09653  3.09653  0.00000 -0.19306
       9     C     3.09558  3.09558  0.00000 -0.19117
      10     H     0.45706  0.45706  0.00000  0.08587
      11     H     0.45724  0.45724  0.00000  0.08551
      12     H     0.42841  0.42841  0.00000  0.14317
      13     H     0.44907  0.44907  0.00000  0.10186
      14     H     0.44523  0.44523  0.00000  0.10954
      15     H     0.45533  0.45533  0.00000  0.08933

   Total alpha = 24.00000, Total beta = 24.00000, Total charge = -0.00000
