  ==> Input File <==

--------------------------------------------------------------------------
set {
	reference rhf
	basis 6-31G*
}

set_num_threads( 4 )
memory 2 gb

molecule MOL {
0 1

H	 -2.646374	 -0.642757	 1.268656
C	 -2.083525	 -0.384536	 0.393091
O	 -0.807605	 -0.127164	 0.768327
F	 -2.118945	 -1.383102	 -0.486752
F	 -2.621877	 0.670592	 -0.209486
C	 -0.597284	 0.366782	 2.042874
C	 0.364404	 1.540718	 1.911762
Cl	 0.082620	 -0.881631	 3.099477
H	 -1.504592	 0.722075	 2.499309
F	 0.602706	 2.073511	 3.091373
F	 -0.192220	 2.462348	 1.151363
F	 1.504460	 1.188168	 1.369587

	symmetry c1
}
set optking {
	frozen_dihedral = ("
		6 3 2 4
	")
}

ee = optimize('scf')
oeprop('DIPOLE', 'QUADRUPOLE', 'MULLIKEN_CHARGES')
f=open( 'psi4out.xyz', 'w' )
f.write( "12  " )
f.write( str(ee) + "\n" )
f.write( MOL.save_string_xyz() )
f.close()
--------------------------------------------------------------------------

    Molecular point group: c1
  Charge       = 0
  Multiplicity = 1
  Basis Set: 6-31G*
  Basis Set:
  @DF-RHF Final Energy: -1146.30685017441419
    Total Energy =                      -1146.3068501744146488
    Molecular point group: c1
  Basis Set: 6-31G*
  Basis Set:
  Basis Set: 6-31G*
  Basis Set:
  @DF-RHF Final Energy: -1146.30865597573825
    Total Energy =                      -1146.3086559757384748
  Basis Set: 6-31G*
  Basis Set:
  Basis Set: 6-31G*
  Basis Set:
  @DF-RHF Final Energy: -1146.30956848883648
    Total Energy =                      -1146.3095684888353389
  Basis Set: 6-31G*
  Basis Set:
  Basis Set: 6-31G*
  Basis Set:
  @DF-RHF Final Energy: -1146.30999496496156
    Total Energy =                      -1146.3099949649604241
  Basis Set: 6-31G*
  Basis Set:
  Basis Set: 6-31G*
  Basis Set:
  @DF-RHF Final Energy: -1146.31007644956640
    Total Energy =                      -1146.3100764495661679
  Basis Set: 6-31G*
  Basis Set:
  Basis Set: 6-31G*
  Basis Set:
  @DF-RHF Final Energy: -1146.31010358480762
    Total Energy =                      -1146.3101035848076208
  Basis Set: 6-31G*
  Basis Set:
  Basis Set: 6-31G*
  Basis Set:
  @DF-RHF Final Energy: -1146.31011204841479
    Total Energy =                      -1146.3101120484166131
  Basis Set: 6-31G*
  Basis Set:
  Charge       = 0
  Multiplicity = 1
  Basis Set: 6-31G*
  Basis Set:

    Orbital Energies (a.u.)
    -----------------------

    Doubly Occupied:

       1A   -104.853790     2A    -26.364573     3A    -26.362413
       4A    -26.361730     5A    -26.343186     6A    -26.341504
       7A    -20.650812     8A    -11.533672     9A    -11.489171
      10A    -11.410286    11A    -10.588590    12A     -8.057885
      13A     -8.054468    14A     -8.054308    15A     -1.765819
      16A     -1.714657    17A     -1.662132    18A     -1.660582
      19A     -1.637436    20A     -1.490516    21A     -1.183413
      22A     -1.060385    23A     -0.983205    24A     -0.929566
      25A     -0.862382    26A     -0.857771    27A     -0.849928
      28A     -0.818716    29A     -0.814135    30A     -0.792160
      31A     -0.731892    32A     -0.728083    33A     -0.698486
      34A     -0.689956    35A     -0.685076    36A     -0.676691
      37A     -0.667253    38A     -0.661818    39A     -0.656213
      40A     -0.642109    41A     -0.602772    42A     -0.568707
      43A     -0.523256    44A     -0.488272    45A     -0.479197

  @DF-RHF Final Energy: -1146.31011277802963

   => Energetics <=

    Nuclear Repulsion Energy =            725.9548648140636260
    One-Electron Energy =               -3034.4320169078928302
    Two-Electron Energy =                1162.1670393157992294
    DFT Exchange-Correlation Energy =       0.0000000000000000
    Empirical Dispersion Energy =           0.0000000000000000
    PCM Polarization Energy =               0.0000000000000000
    EFP Energy =                            0.0000000000000000
    Total Energy =                      -1146.3101127780300885
    Molecular point group: c1
  Basis Set: 6-31G*
  Basis Set:

  -Total Gradient:
     Atom            X                  Y                   Z
    ------   -----------------  -----------------  -----------------
       1        0.000003331431     0.000005028936     0.000009007751
       2       -0.000191981983     0.001136081801    -0.001794699047
       3       -0.001249310094     0.002639998715    -0.000223876258
       4        0.000482340313    -0.001660315394     0.001548638538
       5        0.000003027880     0.000004517086     0.000009073407
       6        0.000941161297    -0.002136426497     0.000489391782
       7        0.000006774678    -0.000071458886    -0.000017699952
       8       -0.000019163696     0.000018034447    -0.000030117782
       9       -0.000022739274    -0.000027541453     0.000010244980
      10        0.000011201204     0.000016757018    -0.000064581390
      11        0.000006421917     0.000047180155     0.000029686633
      12        0.000028936316     0.000028144144     0.000034931241

  **** Optimization is complete! (in 8 steps) ****
    Final optimized geometry and variables:
    Molecular point group: c1

    Geometry (in Angstrom), charge = 0, multiplicity = 1:

    H           -1.955931203173    -1.437234566965    -0.207942655121
    C           -1.543631297422    -0.916763608122    -1.055772372852
    O           -0.346249437423    -0.327208475781    -0.781145395874
    F           -1.350272367254    -1.763681765009    -2.044705622584
    F           -2.410898268355     0.006772324167    -1.455270219797
    C           -0.114705406223     0.075500224106     0.508874469989
    C            1.007813662158     1.105236072095     0.451493132717
    CL           0.340679156760    -1.289948286853     1.558440029374
    H           -0.976951567143     0.544627499033     0.956964206375
    F            1.274858795021     1.551320846364     1.660580794184
    F            0.614196373200     2.124544983317    -0.282082916296
    F            2.103039090931     0.611445885836    -0.068839338755

  Mulliken Charges: (a.u.)
   Center  Symbol    Alpha    Beta     Spin     Total
       1     H     0.41747  0.41747  0.00000  0.16506
       2     C     2.56811  2.56811  0.00000  0.86379
       3     O     4.29608  4.29608  0.00000 -0.59216
       4     F     4.67053  4.67053  0.00000 -0.34107
       5     F     4.68007  4.68007  0.00000 -0.36015
       6     C     3.04127  3.04127  0.00000 -0.08255
       7     C     2.42985  2.42985  0.00000  1.14030
       8    CL     8.50806  8.50806  0.00000 -0.01613
       9     H     0.37390  0.37390  0.00000  0.25219
      10     F     4.67461  4.67461  0.00000 -0.34922
      11     F     4.67364  4.67364  0.00000 -0.34727
      12     F     4.66639  4.66639  0.00000 -0.33279

   Total alpha = 45.00000, Total beta = 45.00000, Total charge =  0.00000
