  ==> Input File <==

--------------------------------------------------------------------------
set {
	reference rhf
	basis 6-31G*
}

set_num_threads( 4 )
memory 2 gb

molecule MOL {
0 1

H	 -2.245800	 1.656730	 -2.563260
C	 -2.653010	 0.746454	 -2.105877
C	 -1.775418	 -0.473578	 -2.224055
O	 -3.712686	 0.770482	 -1.568978
C	 -0.343761	 -0.218667	 -1.732493
H	 -2.244396	 -1.286187	 -1.681437
H	 -1.748704	 -0.747468	 -3.278059
C	 -0.252658	 0.041456	 -0.226725
H	 0.265867	 -1.080495	 -1.987229
H	 0.080536	 0.623566	 -2.276894
C	 1.180775	 0.282413	 0.250794
H	 -0.675597	 -0.806989	 0.307233
H	 -0.867527	 0.899776	 0.037400
C	 2.148627	 -0.814315	 -0.201312
H	 1.516199	 1.249228	 -0.115937
H	 1.192670	 0.346017	 1.338083
C	 3.580890	 -0.659131	 0.322722
H	 2.166869	 -0.852443	 -1.289387
H	 1.762857	 -1.776509	 0.128956
C	 4.324889	 0.564933	 -0.213704
H	 4.142010	 -1.551473	 0.056605
H	 3.564836	 -0.624694	 1.410140
H	 4.342616	 0.565491	 -1.300421
H	 3.866655	 1.493402	 0.110242
H	 5.353900	 0.572371	 0.132816

	symmetry c1
}
set optking {
	frozen_dihedral = ("
		12 8 11 14
	")
}

ee = optimize('scf')
oeprop('DIPOLE', 'QUADRUPOLE', 'MULLIKEN_CHARGES')
f=open( 'psi4out.xyz', 'w' )
f.write( "25  " )
f.write( str(ee) + "\n" )
f.write( MOL.save_string_xyz() )
f.close()
--------------------------------------------------------------------------

    Molecular point group: c1
  Charge       = 0
  Multiplicity = 1
  Basis Set: 6-31G*
  Basis Set:
  @DF-RHF Final Energy:  -387.11820106697218
    Total Energy =                       -387.1182010669723468
    Molecular point group: c1
  Basis Set: 6-31G*
  Basis Set:
  Basis Set: 6-31G*
  Basis Set:
  @DF-RHF Final Energy:  -387.11882163975707
    Total Energy =                       -387.1188216397569022
  Basis Set: 6-31G*
  Basis Set:
  Basis Set: 6-31G*
  Basis Set:
  @DF-RHF Final Energy:  -387.11964442935215
    Total Energy =                       -387.1196444293520926
  Basis Set: 6-31G*
  Basis Set:
  Basis Set: 6-31G*
  Basis Set:
  @DF-RHF Final Energy:  -387.11961756332192
    Total Energy =                       -387.1196175633222083
  Basis Set: 6-31G*
  Basis Set:
  @DF-RHF Final Energy:  -387.11978448643475
    Total Energy =                       -387.1197844864348099
  @DF-RHF Final Energy:  -387.11979826458600
    Total Energy =                       -387.1197982645861657
  Basis Set: 6-31G*
  Basis Set:
  @DF-RHF Final Energy:  -387.11980645372967
    Total Energy =                       -387.1198064537301207
  Basis Set: 6-31G*
  Basis Set:
  Basis Set: 6-31G*
  Basis Set:
  @DF-RHF Final Energy:  -387.11980975505082
    Total Energy =                       -387.1198097550505963
  Basis Set: 6-31G*
  Basis Set:
  Basis Set: 6-31G*
  Basis Set:
  @DF-RHF Final Energy:  -387.11980796305647
    Total Energy =                       -387.1198079630568145
  Basis Set: 6-31G*
  Basis Set:
  Charge       = 0
  Multiplicity = 1
  Basis Set: 6-31G*
  Basis Set:

    Orbital Energies (a.u.)
    -----------------------

    Doubly Occupied:

       1A    -20.562049     2A    -11.326144     3A    -11.235144
       4A    -11.234563     5A    -11.224364     6A    -11.220307
       7A    -11.219318     8A    -11.218518     9A    -11.211613
      10A     -1.401994    11A     -1.104466    12A     -1.069069
      13A     -1.012762    14A     -0.940309    15A     -0.883648
      16A     -0.823831    17A     -0.791365    18A     -0.771378
      19A     -0.665306    20A     -0.656328    21A     -0.633313
      22A     -0.625126    23A     -0.599594    24A     -0.597655
      25A     -0.585529    26A     -0.546158    27A     -0.539000
      28A     -0.524191    29A     -0.514925    30A     -0.501328
      31A     -0.486441    32A     -0.477816    33A     -0.460324
      34A     -0.452271    35A     -0.448193    36A     -0.409256

  @DF-RHF Final Energy:  -387.11980842644630

   => Energetics <=

    Nuclear Repulsion Energy =            443.4989247183559655
    One-Electron Energy =               -1403.2902769701483976
    Two-Electron Energy =                 572.6715438253454522
    DFT Exchange-Correlation Energy =       0.0000000000000000
    Empirical Dispersion Energy =           0.0000000000000000
    PCM Polarization Energy =               0.0000000000000000
    EFP Energy =                            0.0000000000000000
    Total Energy =                       -387.1198084264469799
    Molecular point group: c1
  Basis Set: 6-31G*
  Basis Set:

  -Total Gradient:
     Atom            X                  Y                   Z
    ------   -----------------  -----------------  -----------------
       1       -0.000011690694    -0.000030713844    -0.000049095435
       2        0.000061278242     0.000044612179     0.000177345768
       3       -0.000047617759     0.000037309512    -0.000051430332
       4       -0.000017081588    -0.000025136733    -0.000037191648
       5        0.000000391889    -0.000045465897     0.000072421363
       6        0.000009034560     0.000000638236    -0.000020247516
       7       -0.000000228257     0.000014283147    -0.000015931299
       8        0.001230144675    -0.001720035931    -0.003109362805
       9        0.000006582203    -0.000018373018     0.000040732998
      10        0.000033857972    -0.000019159259     0.000021099821
      11       -0.000703289622    -0.000957502880     0.002914113112
      12       -0.000879667406     0.001752106954     0.001845597091
      13       -0.000076168803    -0.000004434970    -0.000045682813
      14        0.000296743702     0.000976523019    -0.001770077125
      15        0.000026026334    -0.000039942090     0.000002690480
      16       -0.000002457363     0.000001022267     0.000013532806
      17        0.000018899235    -0.000006791398     0.000040395283
      18       -0.000047879037    -0.000021554303    -0.000030495111
      19       -0.000035999331     0.000050873418    -0.000002189572
      20        0.000052037376    -0.000000428441     0.000008189723
      21        0.000022173863     0.000038069980    -0.000007245676
      22        0.000046288330    -0.000031725889     0.000020011223
      23        0.000027433961     0.000002925825    -0.000007321101
      24       -0.000005676002    -0.000035406198    -0.000016284745
      25       -0.000003136464     0.000038306315     0.000006425511

  **** Optimization is complete! (in 10 steps) ****
    Final optimized geometry and variables:
    Molecular point group: c1

    Geometry (in Angstrom), charge = 0, multiplicity = 1:

    H           -2.488151169253     1.630599891169    -1.730035351747
    C           -2.942443772196     0.775515627219    -1.214008161191
    C           -2.179583602405    -0.519278070651    -1.333831194124
    O           -3.965918723922     0.908607764237    -0.625246938612
    C           -0.703925445942    -0.375547061139    -0.934348136376
    H           -2.682707459072    -1.269405715992    -0.734580369882
    H           -2.239742547750    -0.829846566438    -2.376178178603
    C           -0.513260231099    -0.086979039329     0.557067848132
    H           -0.188861248324    -1.289811009389    -1.207072101665
    H           -0.246247846791     0.418758266127    -1.522723618534
    C            0.932353317211     0.200225942676     0.983462287333
    H           -0.909225157666    -0.913600466053     1.143758782172
    H           -1.119147286379     0.773790458586     0.833994820226
    C            1.947019237567    -0.876397097410     0.582991572888
    H            1.235319718355     1.156517564183     0.563736917764
    H            0.949886329849     0.323859566016     2.063979032446
    C            3.334721366667    -0.696613329767     1.210415286984
    H            2.051880728665    -0.902829315659    -0.498949381165
    H            1.560610106990    -1.851219701573     0.876212662197
    C            4.074656010515     0.565340802120     0.762685964154
    H            3.940678740685    -1.563663287884     0.959363582332
    H            3.241681597518    -0.695368756761     2.294427913834
    H            4.174261842645     0.596672513272    -0.319166759073
    H            3.561544587952     1.469011923552     1.074271550235
    H            5.073768193638     0.596606007457     1.186105293480

  Mulliken Charges: (a.u.)
   Center  Symbol    Alpha    Beta     Spin     Total
       1     H     0.43263  0.43263  0.00000  0.13474
       2     C     2.83089  2.83089  0.00000  0.33821
       3     C     3.20790  3.20790  0.00000 -0.41581
       4     O     4.23787  4.23787  0.00000 -0.47574
       5     C     3.16893  3.16893  0.00000 -0.33786
       6     H     0.39966  0.39966  0.00000  0.20068
       7     H     0.40658  0.40658  0.00000  0.18684
       8     C     3.15664  3.15664  0.00000 -0.31328
       9     H     0.40981  0.40981  0.00000  0.18039
      10     H     0.42019  0.42019  0.00000  0.15961
      11     C     3.15467  3.15467  0.00000 -0.30935
      12     H     0.41837  0.41837  0.00000  0.16326
      13     H     0.41667  0.41667  0.00000  0.16667
      14     C     3.15609  3.15609  0.00000 -0.31217
      15     H     0.42144  0.42144  0.00000  0.15713
      16     H     0.41910  0.41910  0.00000  0.16180
      17     C     3.15227  3.15227  0.00000 -0.30454
      18     H     0.42283  0.42283  0.00000  0.15435
      19     H     0.42229  0.42229  0.00000  0.15541
      20     C     3.24165  3.24165  0.00000 -0.48330
      21     H     0.42054  0.42054  0.00000  0.15891
      22     H     0.42243  0.42243  0.00000  0.15513
      23     H     0.42270  0.42270  0.00000  0.15460
      24     H     0.41946  0.41946  0.00000  0.16107
      25     H     0.41838  0.41838  0.00000  0.16325

   Total alpha = 36.00000, Total beta = 36.00000, Total charge =  0.00000
