  ==> Input File <==

--------------------------------------------------------------------------
set {
	reference rhf
	basis 6-31G*
}

set_num_threads( 4 )
memory 2 gb

molecule MOL {
0 1

H	 -2.273092	 1.173159	 0.000295
O	 -1.438904	 1.618192	 0.000114
C	 -0.409536	 0.736003	 0.000030
C	 -0.455809	 -0.273291	 -0.948856
C	 0.648987	 0.825391	 0.901406
H	 -1.290189	 -0.305438	 -1.624700
C	 0.558751	 -1.209515	 -1.009390
C	 1.655172	 -0.129364	 0.817594
C	 0.697561	 1.927272	 1.936059
H	 0.516935	 -1.990090	 -1.747934
C	 1.622611	 -1.142467	 -0.124131
H	 2.479917	 -0.074155	 1.506863
H	 -0.157016	 1.891635	 2.608645
H	 1.587344	 1.839832	 2.546483
H	 0.718742	 2.914266	 1.478465
H	 2.415188	 -1.867253	 -0.165446

	symmetry c1
}
set optking {
	frozen_dihedral = ("
		4 3 2 1
	")
}

ee = optimize('scf')
oeprop('DIPOLE', 'QUADRUPOLE', 'MULLIKEN_CHARGES')
f=open( 'psi4out.xyz', 'w' )
f.write( "16  " )
f.write( str(ee) + "\n" )
f.write( MOL.save_string_xyz() )
f.close()
--------------------------------------------------------------------------

    Molecular point group: c1
  Charge       = 0
  Multiplicity = 1
  Basis Set: 6-31G*
  Basis Set:
  @DF-RHF Final Energy:  -344.59038437137309
    Total Energy =                       -344.5903843713731476
    Molecular point group: c1
  Basis Set: 6-31G*
  Basis Set:
  Basis Set: 6-31G*
  Basis Set:
  @DF-RHF Final Energy:  -344.59228871459067
    Total Energy =                       -344.5922887145904951
  Basis Set: 6-31G*
  Basis Set:
  Basis Set: 6-31G*
  Basis Set:
  @DF-RHF Final Energy:  -344.59241804972339
    Total Energy =                       -344.5924180497232783
  Basis Set: 6-31G*
  Basis Set:
  Basis Set: 6-31G*
  Basis Set:
  @DF-RHF Final Energy:  -344.59242913831434
    Total Energy =                       -344.5924291383141735
  Basis Set: 6-31G*
  Basis Set:
  Basis Set: 6-31G*
  Basis Set:
  @DF-RHF Final Energy:  -344.59243157010894
    Total Energy =                       -344.5924315701087153
  Basis Set: 6-31G*
  Basis Set:
  Charge       = 0
  Multiplicity = 1
  Basis Set: 6-31G*
  Basis Set:

    Orbital Energies (a.u.)
    -----------------------

    Doubly Occupied:

       1A    -20.581242     2A    -11.287116     3A    -11.231666
       4A    -11.230431     5A    -11.227838     6A    -11.225802
       7A    -11.222673     8A    -11.213912     9A     -1.397088
      10A     -1.148082    11A     -1.043283    12A     -1.002612
      13A     -0.929259    14A     -0.836764    15A     -0.799958
      16A     -0.727765    17A     -0.667651    18A     -0.651929
      19A     -0.616547    20A     -0.591621    21A     -0.571794
      22A     -0.559879    23A     -0.540791    24A     -0.526851
      25A     -0.499166    26A     -0.481563    27A     -0.466999
      28A     -0.328743    29A     -0.310935

  @DF-RHF Final Energy:  -344.59243175987592

   => Energetics <=

    Nuclear Repulsion Energy =            349.8440281259086078
    One-Electron Energy =               -1161.0329991766295734
    Two-Electron Energy =                 466.5965392908449871
    DFT Exchange-Correlation Energy =       0.0000000000000000
    Empirical Dispersion Energy =           0.0000000000000000
    PCM Polarization Energy =               0.0000000000000000
    EFP Energy =                            0.0000000000000000
    Total Energy =                       -344.5924317598759785
    Molecular point group: c1
  Basis Set: 6-31G*
  Basis Set:

  -Total Gradient:
     Atom            X                  Y                   Z
    ------   -----------------  -----------------  -----------------
       1        0.000032144229    -0.000113877328     0.002434950275
       2        0.000405667308     0.000735287727    -0.003627307952
       3       -0.001398397579    -0.001686416947     0.002319509552
       4        0.000930683395     0.001088771531    -0.001159197901
       5       -0.000014122456    -0.000032206805     0.000031426742
       6        0.000004537760     0.000000358792     0.000002638951
       7        0.000000118118    -0.000019904171     0.000006307711
       8        0.000009361340     0.000023705831    -0.000007313391
       9        0.000018116013     0.000008900536    -0.000016339420
      10        0.000005457755    -0.000000399735     0.000001247460
      11        0.000000198965     0.000005795383     0.000010948278
      12        0.000003811651     0.000000870805     0.000003162625
      13        0.000000617864    -0.000010525022    -0.000003516716
      14        0.000004488584     0.000003261052     0.000003721798
      15       -0.000001825355    -0.000003784530     0.000002601880
      16       -0.000000857590     0.000000162878    -0.000002839890

  **** Optimization is complete! (in 6 steps) ****
    Final optimized geometry and variables:
    Molecular point group: c1

    Geometry (in Angstrom), charge = 0, multiplicity = 1:

    H           -2.560560403543     0.904765189421    -0.168683152544
    O           -1.704120931715     1.309043546254    -0.158926245826
    C           -0.726350830717     0.355867055512    -0.214719400574
    C           -0.762704330833    -0.641548568966    -1.172721252887
    C            0.337776270398     0.460883803903     0.677726512257
    H           -1.585366375749    -0.677402391019    -1.865838410928
    C            0.256386843552    -1.578616560266    -1.237216665863
    C            1.352565652745    -0.480761481858     0.585007643463
    C            0.368834433798     1.570175931129     1.700424625346
    H            0.220190471261    -2.356475513736    -1.978768422625
    C            1.319169516529    -1.498623341194    -0.356863412030
    H            2.182898891177    -0.419212842013     1.266752640002
    H           -0.508846930651     1.541215831701     2.337150584252
    H            1.247760509502     1.487109917481     2.329041586825
    H            0.383336665869     2.543853939768     1.222758366602
    H            2.118007945084    -2.216731705195    -0.401505744003

  Mulliken Charges: (a.u.)
   Center  Symbol    Alpha    Beta     Spin     Total
       1     H     0.27227  0.27227  0.00000  0.45546
       2     O     4.38481  4.38481  0.00000 -0.76962
       3     C     2.82203  2.82203  0.00000  0.35594
       4     C     3.12557  3.12557  0.00000 -0.25114
       5     C     3.00422  3.00422  0.00000 -0.00844
       6     H     0.40055  0.40055  0.00000  0.19890
       7     C     3.09912  3.09912  0.00000 -0.19824
       8     C     3.11053  3.11053  0.00000 -0.22106
       9     C     3.24048  3.24048  0.00000 -0.48096
      10     H     0.39922  0.39922  0.00000  0.20157
      11     C     3.10370  3.10370  0.00000 -0.20740
      12     H     0.40092  0.40092  0.00000  0.19816
      13     H     0.41155  0.41155  0.00000  0.17689
      14     H     0.41798  0.41798  0.00000  0.16405
      15     H     0.40645  0.40645  0.00000  0.18711
      16     H     0.40061  0.40061  0.00000  0.19878

   Total alpha = 29.00000, Total beta = 29.00000, Total charge = -0.00000
