                              Psi4 1.0.54 Driver

  ==> Input File <==

--------------------------------------------------------------------------
set {
	reference rhf
	basis cc-pvtz
}

set_num_threads( 4 )
memory 2 gb

molecule MOL {
0 1

H	 -3.512753	 -0.003713	 -0.727103
O	 -3.101481	 -0.255066	 0.080383
C	 -1.771634	 -0.090851	 0.022605
C	 -1.136527	 0.393628	 -1.114213
C	 -1.036116	 -0.423683	 1.147957
H	 -1.713961	 0.649681	 -1.983370
C	 0.230017	 0.542691	 -1.119816
H	 -1.545456	 -0.795566	 2.014153
C	 0.331539	 -0.268545	 1.126084
H	 0.731905	 0.915452	 -1.990602
C	 0.981121	 0.213562	 0.000000
H	 0.903155	 -0.526448	 1.998586
C	 2.447402	 0.371303	 0.000000
O	 3.227427	 -0.521847	 0.000000
H	 2.796538	 1.409525	 0.000000

	symmetry c1
}
set optking {
	frozen_dihedral = ("
		7 11 13 14
	")
}

ee,wfn = optimize('scf', return_wfn=True)
oeprop( wfn, 'DIPOLE', 'QUADRUPOLE', 'MULLIKEN_CHARGES')
f=open( 'psi4out.xyz', 'w' )
f.write( "15  " )
f.write( str(ee) + "\n" )
f.write( MOL.save_string_xyz() )
f.close()
--------------------------------------------------------------------------

    Molecular point group: c1
  Charge       = 0
  Multiplicity = 1
  Basis Set: CC-PVTZ
  Basis Set:
  @DF-RHF Final Energy:  -418.42833324441710
    Total Energy =                       -418.4283332444173311
    Molecular point group: c1
  Basis Set: CC-PVTZ
  Basis Set:
  Basis Set: CC-PVTZ
  Basis Set:
  @DF-RHF Final Energy:  -418.42828164503675
    Total Energy =                       -418.4282816450366909
  Basis Set: CC-PVTZ
  Basis Set:
  Basis Set: CC-PVTZ
  Basis Set:
  @DF-RHF Final Energy:  -418.42852656368473
    Total Energy =                       -418.4285265636850681
  Basis Set: CC-PVTZ
  Basis Set:
  Basis Set: CC-PVTZ
  Basis Set:
  @DF-RHF Final Energy:  -418.42928830539802
    Total Energy =                       -418.4292883053983587
  Basis Set: CC-PVTZ
  Basis Set:
  Basis Set: CC-PVTZ
  Basis Set:
  @DF-RHF Final Energy:  -418.42930080798027
    Total Energy =                       -418.4293008079803258
  Basis Set: CC-PVTZ
  Basis Set:
  Basis Set: CC-PVTZ
  Basis Set:
  @DF-RHF Final Energy:  -418.42930197467280
    Total Energy =                       -418.4293019746729669
  Basis Set: CC-PVTZ
  Basis Set:
  Charge       = 0
  Multiplicity = 1
  Basis Set: CC-PVTZ
  Basis Set:

    Orbital Energies (a.u.)
    -----------------------

    Doubly Occupied:

       1A    -20.597469     2A    -20.559360     3A    -11.329623
       4A    -11.312836     5A    -11.254566     6A    -11.250402
       7A    -11.241271     8A    -11.240817     9A    -11.234287
      10A     -1.429388    11A     -1.413655    12A     -1.172667
      13A     -1.042179    14A     -1.038185    15A     -0.891897
      16A     -0.861242    17A     -0.805399    18A     -0.757365
      19A     -0.706170    20A     -0.685237    21A     -0.654777
      22A     -0.631078    23A     -0.608388    24A     -0.608048
      25A     -0.594208    26A     -0.564133    27A     -0.536906
      28A     -0.505924    29A     -0.496833    30A     -0.425113
      31A     -0.358474    32A     -0.328575

  @DF-RHF Final Energy:  -418.42930223397593

   => Energetics <=

    Nuclear Repulsion Energy =            401.6036748944322881
    One-Electron Energy =               -1365.7930082780874272
    Two-Electron Energy =                 545.7600311496793211
    DFT Exchange-Correlation Energy =       0.0000000000000000
    Empirical Dispersion Energy =           0.0000000000000000
    PCM Polarization Energy =               0.0000000000000000
    EFP Energy =                            0.0000000000000000
    Total Energy =                       -418.4293022339758181
    Molecular point group: c1
  Basis Set: CC-PVTZ
  Basis Set:

  -Total Gradient:
     Atom            X                  Y                   Z
    ------   -----------------  -----------------  -----------------
       1        0.000008556090    -0.000000097775     0.000000744205
       2       -0.000014834722    -0.000031322962    -0.000007766671
       3        0.000016291929     0.000074056463     0.000043333399
       4        0.000014627744    -0.000013025380    -0.000028335971
       5       -0.000019809516    -0.000034246087    -0.000024244831
       6        0.000000596166     0.000000884987    -0.000000193149
       7        0.000297926785    -0.005121174205    -0.001689828466
       8        0.000009467086     0.000001553497     0.000004107548
       9       -0.000004030262     0.000057837073    -0.000006250239
      10       -0.000005533149     0.000029457346    -0.000000854576
      11       -0.000549478285     0.007238687417    -0.000432602992
      12       -0.000002734033     0.000013805737     0.000018295563
      13        0.000295359233    -0.001949401029     0.008743433577
      14       -0.000092679069    -0.000292905913    -0.006609523155
      15        0.000046274004     0.000025890830    -0.000010314243

  **** Optimization is complete! (in 7 steps) ****
    Final optimized geometry and variables:
    Molecular point group: c1

    Geometry (in Angstrom), charge = 0, multiplicity = 1:

    H           -3.511873831019    -0.021736993452    -0.762546718071
    O           -3.104606116129    -0.263647619045     0.049632069453
    C           -1.772800757873    -0.078044184745     0.000277929541
    C           -1.133329713901     0.417780766261    -1.120851358488
    C           -1.037961212799    -0.408683067971     1.127618243819
    H           -1.698216926925     0.661787008233    -2.001732579870
    C            0.236721777806     0.595688860991    -1.105947773465
    H           -1.547100833248    -0.800312932465     1.985673398223
    C            0.328370264847    -0.246050957674     1.122271267006
    H            0.722467271543     0.984194612933    -1.982087578679
    C            0.978278054564     0.277873126942     0.014593537587
    H            0.897296412386    -0.529798045898     1.986895673148
    C            2.469069597106     0.382971891203    -0.022595751498
    O            3.195746622324    -0.549096160788    -0.004275659521
    H            2.877153891960     1.393986899115    -0.129002789501

  Mulliken Charges: (a.u.)
   Center  Symbol    Alpha    Beta     Spin     Total
       1     H     0.38657  0.38657  0.00000  0.22686
       2     O     4.16979  4.16979  0.00000 -0.33958
       3     C     2.85472  2.85472  0.00000  0.29056
       4     C     3.12634  3.12634  0.00000 -0.25267
       5     C     3.09813  3.09813  0.00000 -0.19625
       6     H     0.43229  0.43229  0.00000  0.13541
       7     C     3.08317  3.08317  0.00000 -0.16635
       8     H     0.41714  0.41714  0.00000  0.16572
       9     C     3.07439  3.07439  0.00000 -0.14878
      10     H     0.42303  0.42303  0.00000  0.15393
      11     C     2.96579  2.96579  0.00000  0.06842
      12     H     0.41821  0.41821  0.00000  0.16359
      13     C     2.93528  2.93528  0.00000  0.12944
      14     O     4.15800  4.15800  0.00000 -0.31599
      15     H     0.45715  0.45715  0.00000  0.08570

   Total alpha = 32.00000, Total beta = 32.00000, Total charge = -0.00000

*** Psi4 exiting successfully. Buy a developer a beer!
