                              Psi4 1.0.54 Driver

  ==> Input File <==

--------------------------------------------------------------------------
set {
	reference rhf
	basis cc-pvtz
}

set_num_threads( 4 )
memory 2 gb

molecule MOL {
0 1

H	 -3.436473	 1.252944	 -1.023892
O	 -3.458596	 0.315260	 -0.960865
C	 -3.176635	 -0.080824	 0.355601
C	 -1.763371	 0.265266	 0.799691
H	 -3.321825	 -1.153438	 0.379502
H	 -3.895468	 0.357385	 1.043382
C	 -0.673390	 -0.426948	 -0.013392
H	 -1.631049	 1.344913	 0.747560
H	 -1.664587	 -0.001624	 1.849167
C	 0.737842	 -0.043159	 0.423759
H	 -0.806103	 -0.190518	 -1.063345
H	 -0.797221	 -1.503753	 0.074146
C	 0.932196	 -0.115290	 1.937057
H	 1.449901	 -0.695122	 -0.073036
H	 0.959400	 0.966249	 0.083371
C	 2.306902	 0.337671	 2.431889
H	 0.748531	 -1.132976	 2.273853
H	 0.175011	 0.501361	 2.413537
C	 3.466971	 -0.556572	 2.000946
H	 2.284513	 0.378323	 3.516611
H	 2.491850	 1.354495	 2.095315
H	 3.306726	 -1.581913	 2.318867
H	 4.397867	 -0.217246	 2.440868
H	 3.598618	 -0.560708	 0.925651

	symmetry c1
}
set optking {
	frozen_dihedral = ("
		13 10 7 11
	")
}

ee,wfn = optimize('scf', return_wfn=True)
oeprop( wfn, 'DIPOLE', 'QUADRUPOLE', 'MULLIKEN_CHARGES')
f=open( 'psi4out.xyz', 'w' )
f.write( "24  " )
f.write( str(ee) + "\n" )
f.write( MOL.save_string_xyz() )
f.close()
--------------------------------------------------------------------------

    Molecular point group: c1
  Charge       = 0
  Multiplicity = 1
  Basis Set: CC-PVTZ
  Basis Set:
  @DF-RHF Final Energy:  -349.37539792845786
    Total Energy =                       -349.3753979284585967
    Molecular point group: c1
  Basis Set: CC-PVTZ
  Basis Set:
  Basis Set: CC-PVTZ
  Basis Set:
  @DF-RHF Final Energy:  -348.59131719320544
    Total Energy =                       -348.5913171932056684
  Basis Set: CC-PVTZ
  Basis Set:
  Basis Set: CC-PVTZ
  Basis Set:
  @DF-RHF Final Energy:  -348.80296256213035
    Total Energy =                       -348.8029625621303467
  Basis Set: CC-PVTZ
  Basis Set:
  Basis Set: CC-PVTZ
  Basis Set:
  @DF-RHF Final Energy:  -349.13461979478478
    Total Energy =                       -349.1346197947847827
  Basis Set: CC-PVTZ
  Basis Set:
  @DF-RHF Final Energy:  -349.33110534529231
    Total Energy =                       -349.3311053452922579
  @DF-RHF Final Energy:  -349.37295902480474
    Total Energy =                       -349.3729590248047998
  @DF-RHF Final Energy:  -349.37666140334676
    Total Energy =                       -349.3766614033467022
  @DF-RHF Final Energy:  -349.37736350293414
    Total Energy =                       -349.3773635029340312
  Basis Set: CC-PVTZ
  Basis Set:
  @DF-RHF Final Energy:  -349.37745048593519
    Total Energy =                       -349.3774504859354124
  Basis Set: CC-PVTZ
  Basis Set:
  Basis Set: CC-PVTZ
  Basis Set:
  @DF-RHF Final Energy:  -349.37744379947117
    Total Energy =                       -349.3774437994712798
  Basis Set: CC-PVTZ
  Basis Set:
  Basis Set: CC-PVTZ
  Basis Set:
  @DF-RHF Final Energy:  -349.37745797643680
    Total Energy =                       -349.3774579764368582
  Basis Set: CC-PVTZ
  Basis Set:
  Charge       = 0
  Multiplicity = 1
  Basis Set: CC-PVTZ
  Basis Set:

    Orbital Energies (a.u.)
    -----------------------

    Doubly Occupied:

       1A    -20.546384     2A    -11.265438     3A    -11.214408
       4A    -11.212978     5A    -11.210652     6A    -11.210062
       7A    -11.209143     8A    -11.205471     9A     -1.364219
      10A     -1.089825    11A     -1.047781    12A     -0.985069
      13A     -0.917777    14A     -0.854657    15A     -0.808002
      16A     -0.767506    17A     -0.682073    18A     -0.642809
      19A     -0.634025    20A     -0.620604    21A     -0.602831
      22A     -0.583791    23A     -0.555327    24A     -0.550906
      25A     -0.517236    26A     -0.508895    27A     -0.502044
      28A     -0.477255    29A     -0.473552    30A     -0.455923
      31A     -0.453744    32A     -0.438034    33A     -0.427009

  @DF-RHF Final Energy:  -349.37745843701873

   => Energetics <=

    Nuclear Repulsion Energy =            388.5448176366634243
    One-Electron Energy =               -1243.7736838283281031
    Two-Electron Energy =                 505.8514077546462318
    DFT Exchange-Correlation Energy =       0.0000000000000000
    Empirical Dispersion Energy =           0.0000000000000000
    PCM Polarization Energy =               0.0000000000000000
    EFP Energy =                            0.0000000000000000
    Total Energy =                       -349.3774584370184471
    Molecular point group: c1
  Basis Set: CC-PVTZ
  Basis Set:

  -Total Gradient:
     Atom            X                  Y                   Z
    ------   -----------------  -----------------  -----------------
       1        0.000003472217     0.000006309395     0.000003967641
       2        0.000031537946    -0.000013873127    -0.000027414012
       3       -0.000050951093     0.000030684646     0.000030324217
       4        0.000048590222    -0.000004927960     0.000007637766
       5       -0.000001463586    -0.000010926993    -0.000014850759
       6       -0.000019686936     0.000005297986    -0.000007191061
       7        0.001160613971    -0.002880455103    -0.001307111743
       8       -0.000015434486     0.000021188509    -0.000000629739
       9       -0.000002283233    -0.000015831593     0.000013904430
      10        0.000463493025    -0.003055977651    -0.000762399813
      11       -0.001142305548     0.003303098705     0.001289546427
      12        0.000017571591    -0.000014125467     0.000009193265
      13       -0.000509987713     0.002647342828     0.000733582829
      14        0.000020168601    -0.000004948953     0.000003145374
      15       -0.000002262886    -0.000010823984     0.000014994364
      16        0.000017031176    -0.000005774937     0.000043041518
      17        0.000004483710     0.000002153058    -0.000004163617
      18       -0.000023938315     0.000007242191    -0.000019295582
      19       -0.000026839069     0.000012762630    -0.000017761237
      20       -0.000004864369    -0.000005674069     0.000018130388
      21       -0.000004916883     0.000015540077     0.000003833732
      22        0.000002317204    -0.000017968728     0.000003132347
      23        0.000020038665    -0.000003554102     0.000011393370
      24        0.000015615788    -0.000006757355    -0.000025010103

  **** Optimization is complete! (in 12 steps) ****
    Final optimized geometry and variables:
    Molecular point group: c1

    Geometry (in Angstrom), charge = 0, multiplicity = 1:

    H           -1.247396896940     2.688337428179    -2.532245688256
    O           -1.390379773339     1.830496245903    -2.889074197998
    C           -2.070148992076     1.033464553342    -1.955168786323
    C           -1.257754919784     0.744324165715    -0.700829862529
    H           -2.302558037735     0.109013893190    -2.468832893831
    H           -3.014902005667     1.496590162256    -1.681914729371
    C            0.015536763883    -0.054847176641    -0.979185224647
    H           -1.003468932768     1.689085557315    -0.221351830286
    H           -1.900093547883     0.213090698903    -0.005912359249
    C            0.966964928479    -0.199839910107     0.213374490007
    H            0.545097251791     0.451259596938    -1.777442288461
    H           -0.260664946822    -1.038373107832    -1.350495954026
    C            0.322006685253    -0.676790214761     1.514804968211
    H            1.765161521112    -0.874448236617    -0.074714871959
    H            1.439748104671     0.762128368055     0.401884182919
    C            1.307597134116    -0.883532348808     2.667725338865
    H           -0.216460871186    -1.606157862653     1.337079448426
    H           -0.419894981370     0.047657976258     1.831358563318
    C            2.270638609999    -2.054369975904     2.485988252146
    H            0.739964695874    -1.042130389160     3.579614562054
    H            1.875546511257     0.030544329506     2.821218592807
    H            1.729237310250    -2.982534690064     2.333090998295
    H            2.894131255980    -2.178211582367     3.364208046438
    H            2.929673536612    -1.912941314818     1.638150351708

  Mulliken Charges: (a.u.)
   Center  Symbol    Alpha    Beta     Spin     Total
       1     H     0.39522  0.39522  0.00000  0.20956
       2     O     4.20380  4.20380  0.00000 -0.40759
       3     C     2.97537  2.97537  0.00000  0.04926
       4     C     3.10756  3.10756  0.00000 -0.21511
       5     H     0.45908  0.45908  0.00000  0.08183
       6     H     0.45965  0.45965  0.00000  0.08071
       7     C     3.09628  3.09628  0.00000 -0.19255
       8     H     0.45795  0.45795  0.00000  0.08409
       9     H     0.45046  0.45046  0.00000  0.09907
      10     C     3.10052  3.10052  0.00000 -0.20105
      11     H     0.44077  0.44077  0.00000  0.11846
      12     H     0.45281  0.45281  0.00000  0.09439
      13     C     3.09941  3.09941  0.00000 -0.19882
      14     H     0.44544  0.44544  0.00000  0.10912
      15     H     0.45457  0.45457  0.00000  0.09085
      16     C     3.08945  3.08945  0.00000 -0.17891
      17     H     0.45441  0.45441  0.00000  0.09119
      18     H     0.44603  0.44603  0.00000  0.10793
      19     C     3.15122  3.15122  0.00000 -0.30244
      20     H     0.44879  0.44879  0.00000  0.10242
      21     H     0.45523  0.45523  0.00000  0.08955
      22     H     0.45509  0.45509  0.00000  0.08983
      23     H     0.44700  0.44700  0.00000  0.10600
      24     H     0.45389  0.45389  0.00000  0.09223

   Total alpha = 33.00000, Total beta = 33.00000, Total charge = -0.00000

*** Psi4 exiting successfully. Buy a developer a beer!
