                              Psi4 1.0.54 Driver

  ==> Input File <==

--------------------------------------------------------------------------
set {
	reference rhf
	basis cc-pvtz
}

set_num_threads( 4 )
memory 2 gb

molecule MOL {
0 1

O	 -1.278239	 1.034789	 -0.784693
C	 -1.204115	 0.062668	 -0.112312
C	 -2.386398	 -0.667698	 0.460323
O	 -0.068058	 -0.518372	 0.226882
H	 -2.382952	 -1.693172	 0.114333
H	 -3.296656	 -0.175702	 0.158400
H	 -2.312537	 -0.685191	 1.540100
C	 1.169086	 0.037484	 -0.230612
C	 1.199719	 -0.173664	 -1.731142
C	 2.329855	 -0.628091	 0.486488
H	 1.161822	 1.092967	 -0.004800
H	 0.354428	 0.310681	 -2.202992
H	 2.109208	 0.243915	 -2.146074
H	 1.166651	 -1.229706	 -1.971181
H	 3.267991	 -0.216960	 0.132407
H	 2.269069	 -0.461096	 1.552821
H	 2.331636	 -1.695519	 0.297078

	symmetry c1
}
set optking {
	frozen_dihedral = ("
		11 8 4 2
	")
}

ee,wfn = optimize('scf', return_wfn=True)
oeprop( wfn, 'DIPOLE', 'QUADRUPOLE', 'MULLIKEN_CHARGES')
f=open( 'psi4out.xyz', 'w' )
f.write( "17  " )
f.write( str(ee) + "\n" )
f.write( MOL.save_string_xyz() )
f.close()
--------------------------------------------------------------------------

    Molecular point group: c1
  Charge       = 0
  Multiplicity = 1
  Basis Set: CC-PVTZ
  Basis Set:
  @DF-RHF Final Energy:  -345.03936296201130
    Total Energy =                       -345.0393629620108982
    Molecular point group: c1
  Basis Set: CC-PVTZ
  Basis Set:
  Basis Set: CC-PVTZ
  Basis Set:
  @DF-RHF Final Energy:  -345.04222280648571
    Total Energy =                       -345.0422228064859382
  Basis Set: CC-PVTZ
  Basis Set:
  Basis Set: CC-PVTZ
  Basis Set:
  @DF-RHF Final Energy:  -345.04255586522777
    Total Energy =                       -345.0425558652278824
  Basis Set: CC-PVTZ
  Basis Set:
  Basis Set: CC-PVTZ
  Basis Set:
  @DF-RHF Final Energy:  -345.04124477304964
    Total Energy =                       -345.0412447730494705
  Basis Set: CC-PVTZ
  Basis Set:
  Basis Set: CC-PVTZ
  Basis Set:
  @DF-RHF Final Energy:  -345.04269174770798
    Total Energy =                       -345.0426917477080337
  Basis Set: CC-PVTZ
  Basis Set:
  Basis Set: CC-PVTZ
  Basis Set:
  @DF-RHF Final Energy:  -345.04270113381449
    Total Energy =                       -345.0427011338144894
  Basis Set: CC-PVTZ
  Basis Set:
  Charge       = 0
  Multiplicity = 1
  Basis Set: CC-PVTZ
  Basis Set:

    Orbital Energies (a.u.)
    -----------------------

    Doubly Occupied:

       1A    -20.591433     2A    -20.531420     3A    -11.366570
       4A    -11.289601     5A    -11.230455     6A    -11.217391
       7A    -11.212770     8A     -1.468405     9A     -1.364537
      10A     -1.079737    11A     -1.005564    12A     -0.948143
      13A     -0.851359    14A     -0.763807    15A     -0.694574
      16A     -0.675850    17A     -0.661643    18A     -0.615526
      19A     -0.586663    20A     -0.578977    21A     -0.560333
      22A     -0.550129    23A     -0.539489    24A     -0.521052
      25A     -0.503742    26A     -0.483487    27A     -0.451573
      28A     -0.437890

  @DF-RHF Final Energy:  -345.04270192234389

   => Energetics <=

    Nuclear Repulsion Energy =            324.1679934669818977
    One-Electron Energy =               -1112.8571443200248723
    Two-Electron Energy =                 443.6464489306991368
    DFT Exchange-Correlation Energy =       0.0000000000000000
    Empirical Dispersion Energy =           0.0000000000000000
    PCM Polarization Energy =               0.0000000000000000
    EFP Energy =                            0.0000000000000000
    Total Energy =                       -345.0427019223438379
    Molecular point group: c1
  Basis Set: CC-PVTZ
  Basis Set:

  -Total Gradient:
     Atom            X                  Y                   Z
    ------   -----------------  -----------------  -----------------
       1       -0.000002560873     0.000032843775     0.000012757381
       2       -0.000129338760    -0.001625330811    -0.002091811765
       3       -0.000014008365    -0.000042667664    -0.000077547851
       4        0.000513977677     0.002175764569     0.003669174796
       5        0.000014950037     0.000009891998     0.000037135799
       6       -0.000019792965     0.000012794100     0.000008664470
       7       -0.000004251749     0.000029039211     0.000019734984
       8       -0.001627067516    -0.000095271686    -0.004182434512
       9        0.000010249337     0.000009853372    -0.000017816001
      10       -0.000002702872     0.000008597032     0.000015606731
      11        0.001283497192    -0.000519349360     0.002606618678
      12       -0.000010568051    -0.000002563129    -0.000003363593
      13       -0.000003028413    -0.000001652928    -0.000000332613
      14       -0.000005287272     0.000002490082     0.000005502125
      15       -0.000002022341     0.000000434783    -0.000000153895
      16        0.000002452873    -0.000000206515     0.000002881886
      17       -0.000004497940     0.000005333173    -0.000004616619

  **** Optimization is complete! (in 7 steps) ****
    Final optimized geometry and variables:
    Molecular point group: c1

    Geometry (in Angstrom), charge = 0, multiplicity = 1:

    O           -1.269466683475     1.197135882988    -0.483355816298
    C           -1.177254393754     0.200580206496     0.149777545986
    C           -2.344720885274    -0.557930184086     0.716507694034
    O           -0.031197819650    -0.376258523769     0.460230982645
    H           -2.347253657667    -1.566703058329     0.324231040021
    H           -3.262586682308    -0.055742562440     0.457364685201
    H           -2.246478006663    -0.624319293164     1.792352275356
    C            1.194986130987     0.160369081899    -0.047739737636
    C            1.331711381013    -0.096094119394    -1.537753239193
    C            2.293491776570    -0.505554567110     0.759252351762
    H            1.200154206142     1.221671105627     0.157515206037
    H            0.548594646457     0.394450907071    -2.095151363705
    H            2.285627789832     0.283579718627    -1.884525026404
    H            1.297439322947    -1.160915234493    -1.740189411579
    H            3.260039042911    -0.118404677567     0.460300819507
    H            2.159872908088    -0.314858374305     1.816291274189
    H            2.289468157438    -1.577532300957     0.602014022773

  Mulliken Charges: (a.u.)
   Center  Symbol    Alpha    Beta     Spin     Total
       1     O     4.19931  4.19931  0.00000 -0.39863
       2     C     2.80659  2.80659  0.00000  0.38682
       3     C     3.13839  3.13839  0.00000 -0.27679
       4     O     4.16239  4.16239  0.00000 -0.32478
       5     H     0.44655  0.44655  0.00000  0.10689
       6     H     0.43842  0.43842  0.00000  0.12316
       7     H     0.44555  0.44555  0.00000  0.10891
       8     C     2.92878  2.92878  0.00000  0.14245
       9     C     3.15896  3.15896  0.00000 -0.31793
      10     C     3.13885  3.13885  0.00000 -0.27770
      11     H     0.44531  0.44531  0.00000  0.10937
      12     H     0.43386  0.43386  0.00000  0.13228
      13     H     0.44938  0.44938  0.00000  0.10123
      14     H     0.45393  0.45393  0.00000  0.09214
      15     H     0.45449  0.45449  0.00000  0.09102
      16     H     0.44664  0.44664  0.00000  0.10672
      17     H     0.45259  0.45259  0.00000  0.09482

   Total alpha = 28.00000, Total beta = 28.00000, Total charge =  0.00000

*** Psi4 exiting successfully. Buy a developer a beer!
