                              Psi4 1.0.54 Driver

  ==> Input File <==

--------------------------------------------------------------------------
set {
	reference rhf
	basis cc-pvtz
}

set_num_threads( 4 )
memory 2 gb

molecule MOL {
0 1

H	 2.614283	 2.028610	 0.296620
O	 3.358864	 1.662087	 -0.142800
C	 3.565468	 0.338079	 0.273842
C	 2.533667	 -0.637565	 -0.272227
H	 4.548038	 0.064914	 -0.086598
H	 3.593945	 0.282242	 1.360360
C	 3.118943	 -1.959720	 -0.763355
H	 1.795981	 -0.828962	 0.501301
H	 2.012345	 -0.148553	 -1.091671
C	 2.058301	 -2.899804	 -1.334422
H	 3.633325	 -2.450575	 0.056081
H	 3.867598	 -1.760162	 -1.528193
C	 2.598478	 -4.210466	 -1.909425
H	 1.325284	 -3.121730	 -0.562631
H	 1.520308	 -2.376371	 -2.119948
C	 3.202523	 -5.166705	 -0.882547
H	 1.785280	 -4.719850	 -2.419095
H	 3.340070	 -3.988051	 -2.673446
C	 3.635961	 -6.498759	 -1.489319
H	 2.475047	 -5.352526	 -0.095325
H	 4.060015	 -4.705698	 -0.401732
C	 4.242938	 -7.454436	 -0.467482
H	 2.780124	 -6.973194	 -1.961582
H	 4.356459	 -6.314316	 -2.281737
H	 3.535110	 -7.684327	 0.322054
H	 4.536852	 -8.389697	 -0.930092
H	 5.124444	 -7.023999	 -0.003776

	symmetry c1
}
set optking {
	frozen_dihedral = ("
		8 4 3 2
	")
}

ee,wfn = optimize('scf', return_wfn=True)
oeprop( wfn, 'DIPOLE', 'QUADRUPOLE', 'MULLIKEN_CHARGES')
f=open( 'psi4out.xyz', 'w' )
f.write( "27  " )
f.write( str(ee) + "\n" )
f.write( MOL.save_string_xyz() )
f.close()
--------------------------------------------------------------------------

    Molecular point group: c1
  Charge       = 0
  Multiplicity = 1
  Basis Set: CC-PVTZ
  Basis Set:
  @DF-RHF Final Energy:  -388.42335895709044
    Total Energy =                       -388.4233589570900449
    Molecular point group: c1
  Basis Set: CC-PVTZ
  Basis Set:
  Basis Set: CC-PVTZ
  Basis Set:
  @DF-RHF Final Energy:  -388.13144534838358
    Total Energy =                       -388.1314453483835223
  Basis Set: CC-PVTZ
  Basis Set:
  Basis Set: CC-PVTZ
  Basis Set:
  @DF-RHF Final Energy:  -388.28787808940848
    Total Energy =                       -388.2878780894084230
  Basis Set: CC-PVTZ
  Basis Set:
  Basis Set: CC-PVTZ
  Basis Set:
  @DF-RHF Final Energy:  -388.40249319891996
    Total Energy =                       -388.4024931989193874
  Basis Set: CC-PVTZ
  Basis Set:
  @DF-RHF Final Energy:  -388.42289346102501
    Total Energy =                       -388.4228934610250690
  @DF-RHF Final Energy:  -388.42383479481146
    Total Energy =                       -388.4238347948113415
  @DF-RHF Final Energy:  -388.42392421450194
    Total Energy =                       -388.4239242145022217
  Basis Set: CC-PVTZ
  Basis Set:
  @DF-RHF Final Energy:  -388.42392591734551
    Total Energy =                       -388.4239259173461960
  Basis Set: CC-PVTZ
  Basis Set:
  Basis Set: CC-PVTZ
  Basis Set:
  @DF-RHF Final Energy:  -388.42392787161708
    Total Energy =                       -388.4239278716165700
  Basis Set: CC-PVTZ
  Basis Set:
  Basis Set: CC-PVTZ
  Basis Set:
  @DF-RHF Final Energy:  -388.42392938001672
    Total Energy =                       -388.4239293800164887
  Basis Set: CC-PVTZ
  Basis Set:
  Charge       = 0
  Multiplicity = 1
  Basis Set: CC-PVTZ
  Basis Set:

    Orbital Energies (a.u.)
    -----------------------

    Doubly Occupied:

       1A    -20.545138     2A    -11.264554     3A    -11.214810
       4A    -11.213060     5A    -11.212944     6A    -11.212719
       7A    -11.211686     8A    -11.210496     9A    -11.206380
      10A     -1.362329    11A     -1.095076    12A     -1.061839
      13A     -1.010855    14A     -0.944849    15A     -0.883501
      16A     -0.824219    17A     -0.804143    18A     -0.777331
      19A     -0.693120    20A     -0.648226    21A     -0.635317
      22A     -0.612164    23A     -0.611008    24A     -0.582033
      25A     -0.577316    26A     -0.556397    27A     -0.540421
      28A     -0.523587    29A     -0.509874    30A     -0.485484
      31A     -0.484306    32A     -0.476255    33A     -0.464737
      34A     -0.460792    35A     -0.457224    36A     -0.443129
      37A     -0.421141

  @DF-RHF Final Energy:  -388.42392937566905

   => Energetics <=

    Nuclear Repulsion Energy =            454.0468871866984841
    One-Electron Energy =               -1426.4647085020214945
    Two-Electron Energy =                 583.9938919396537358
    DFT Exchange-Correlation Energy =       0.0000000000000000
    Empirical Dispersion Energy =           0.0000000000000000
    PCM Polarization Energy =               0.0000000000000000
    EFP Energy =                            0.0000000000000000
    Total Energy =                       -388.4239293756692177
    Molecular point group: c1
  Basis Set: CC-PVTZ
  Basis Set:

  -Total Gradient:
     Atom            X                  Y                   Z
    ------   -----------------  -----------------  -----------------
       1       -0.000012228574     0.000002870058     0.000000032530
       2        0.003178931605    -0.000349817640    -0.001302665372
       3       -0.003951443596    -0.000288773821     0.002416445237
       4       -0.000773463520     0.003707497184    -0.003721681295
       5       -0.000000268495    -0.000000871998    -0.000001460239
       6       -0.000001594758     0.000001267949     0.000001291167
       7        0.000008365985     0.000007246494    -0.000006738659
       8        0.001553710503    -0.003086092577     0.002614080585
       9        0.000005068330     0.000000862602    -0.000000947999
      10       -0.000006556056    -0.000000158604     0.000004276655
      11        0.000001482302     0.000002477870     0.000001136210
      12        0.000000963117    -0.000000989158    -0.000006524699
      13        0.000002448897     0.000000735772     0.000004415578
      14       -0.000001774563    -0.000001611149    -0.000000267285
      15        0.000003434882    -0.000001851350     0.000000698707
      16       -0.000003560305    -0.000002859083    -0.000000383631
      17       -0.000001951293     0.000001109028     0.000001507447
      18        0.000000806621     0.000001860179     0.000000917075
      19       -0.000004120100    -0.000001113455    -0.000001995809
      20       -0.000002184350     0.000000002532    -0.000001502796
      21        0.000001423336     0.000000064095     0.000000001318
      22        0.000001967482     0.000004354596    -0.000001036613
      23       -0.000002843954     0.000001311160     0.000000882066
      24        0.000001828067    -0.000000939360    -0.000000216214
      25        0.000002046533    -0.000000230063    -0.000003606193
      26       -0.000000949168     0.000002032068    -0.000000639780
      27        0.000000461069     0.000001616680     0.000003982005

  **** Optimization is complete! (in 11 steps) ****
    Final optimized geometry and variables:
    Molecular point group: c1

    Geometry (in Angstrom), charge = 0, multiplicity = 1:

    H           -1.460072047736     4.825756328063     0.152816712703
    O           -0.561992287196     4.577238459497     0.276960665124
    C           -0.487994812776     3.276550315015     0.799255009673
    C           -0.998777533978     2.201176003755    -0.166122306855
    H            0.562860806032     3.116317362050     1.000715195832
    H           -1.007465499073     3.215528689541     1.751650502097
    C           -0.138027264888     0.937807448319    -0.151496790965
    H           -2.013082609969     1.914986512167     0.099615269897
    H           -1.019485803814     2.618181082744    -1.166378089060
    C           -0.684602133996    -0.164192449815    -1.056578341946
    H           -0.059575286099     0.575216040385     0.869272067767
    H            0.871527460468     1.192631232826    -0.464370330696
    C            0.198550519981    -1.408713395561    -1.163680094673
    H           -1.673840469763    -0.455689861940    -0.711127539672
    H           -0.822271826851     0.245688599050    -2.053431286597
    C            0.332252050845    -2.218440952689     0.124677526293
    H           -0.211710774015    -2.053252277287    -1.936215395906
    H            1.187696060842    -1.116870227813    -1.508814524294
    C            1.141722230720    -3.499915156830    -0.056270879647
    H           -0.659771924528    -2.471806575526     0.492732743700
    H            0.799181219954    -1.615468933537     0.897423591035
    C            1.281262885170    -4.308237625313     1.229373884147
    H            0.673386742037    -4.115576170251    -0.819310146470
    H            2.129903378921    -3.249348439148    -0.432508460535
    H            0.310310110075    -4.602916188929     1.613723405369
    H            1.859177224364    -5.210616225604     1.065705227912
    H            1.779865658099    -3.732264080183     2.001964414806

  Mulliken Charges: (a.u.)
   Center  Symbol    Alpha    Beta     Spin     Total
       1     H     0.39498  0.39498  0.00000  0.21003
       2     O     4.20111  4.20111  0.00000 -0.40222
       3     C     2.96654  2.96654  0.00000  0.06692
       4     C     3.10092  3.10092  0.00000 -0.20185
       5     H     0.45912  0.45912  0.00000  0.08176
       6     H     0.46801  0.46801  0.00000  0.06398
       7     C     3.09971  3.09971  0.00000 -0.19942
       8     H     0.45730  0.45730  0.00000  0.08540
       9     H     0.44879  0.44879  0.00000  0.10242
      10     C     3.10074  3.10074  0.00000 -0.20147
      11     H     0.45198  0.45198  0.00000  0.09604
      12     H     0.45157  0.45157  0.00000  0.09686
      13     C     3.09815  3.09815  0.00000 -0.19630
      14     H     0.45364  0.45364  0.00000  0.09271
      15     H     0.44743  0.44743  0.00000  0.10513
      16     C     3.08802  3.08802  0.00000 -0.17605
      17     H     0.44838  0.44838  0.00000  0.10324
      18     H     0.45307  0.45307  0.00000  0.09386
      19     C     3.08403  3.08403  0.00000 -0.16806
      20     H     0.45555  0.45555  0.00000  0.08890
      21     H     0.45354  0.45354  0.00000  0.09292
      22     C     3.14974  3.14974  0.00000 -0.29948
      23     H     0.45406  0.45406  0.00000  0.09189
      24     H     0.45438  0.45438  0.00000  0.09124
      25     H     0.45542  0.45542  0.00000  0.08916
      26     H     0.44838  0.44838  0.00000  0.10324
      27     H     0.45544  0.45544  0.00000  0.08912

   Total alpha = 37.00000, Total beta = 37.00000, Total charge = -0.00000

*** Psi4 exiting successfully. Buy a developer a beer!
