                              Psi4 1.0.54 Driver

  ==> Input File <==

--------------------------------------------------------------------------
set {
	reference rhf
	basis cc-pvtz
}

set_num_threads( 4 )
memory 2 gb

molecule MOL {
0 1

O	 0.749630	 1.305591	 -0.000460
C	 0.576499	 0.134701	 -0.003900
C	 -0.765656	 -0.550508	 -0.002152
O	 1.564816	 -0.744612	 -0.000631
C	 -1.945526	 0.411052	 0.000603
H	 -0.794329	 -1.203792	 -0.868145
H	 -0.791555	 -1.205429	 0.862701
C	 -3.282915	 -0.321280	 0.002596
H	 -1.880300	 1.059126	 -0.864925
H	 -1.877207	 1.057892	 0.866807
H	 -3.388495	 -0.952755	 -0.873419
H	 -4.107811	 0.380864	 0.004116
H	 -3.385717	 -0.953283	 0.878571
C	 2.043077	 -1.178688	 1.256689
H	 2.425111	 -0.345391	 1.827408
H	 2.833861	 -1.880523	 1.047455
H	 1.256241	 -1.659737	 1.818404

	symmetry c1
}
set optking {
	frozen_dihedral = ("
		14 4 2 1
	")
}

ee,wfn = optimize('scf', return_wfn=True)
oeprop( wfn, 'DIPOLE', 'QUADRUPOLE', 'MULLIKEN_CHARGES')
f=open( 'psi4out.xyz', 'w' )
f.write( "17  " )
f.write( str(ee) + "\n" )
f.write( MOL.save_string_xyz() )
f.close()
--------------------------------------------------------------------------

    Molecular point group: c1
  Charge       = 0
  Multiplicity = 1
  Basis Set: CC-PVTZ
  Basis Set:
  @DF-RHF Final Energy:  -345.01438642286246
    Total Energy =                       -345.0143864228624011
    Molecular point group: c1
  Basis Set: CC-PVTZ
  Basis Set:
  Basis Set: CC-PVTZ
  Basis Set:
  @DF-RHF Final Energy:  -344.91187988030924
    Total Energy =                       -344.9118798803091295
  Basis Set: CC-PVTZ
  Basis Set:
  Basis Set: CC-PVTZ
  Basis Set:
  @DF-RHF Final Energy:  -344.99595595498477
    Total Energy =                       -344.9959559549851065
  Basis Set: CC-PVTZ
  Basis Set:
  Basis Set: CC-PVTZ
  Basis Set:
  @DF-RHF Final Energy:  -345.01381957946609
    Total Energy =                       -345.0138195794663147
  Basis Set: CC-PVTZ
  Basis Set:
  @DF-RHF Final Energy:  -344.98817661832470
    Total Energy =                       -344.9881766183245873
  @DF-RHF Final Energy:  -345.00809101546849
    Total Energy =                       -345.0080910154687786
  @DF-RHF Final Energy:  -345.01568299477339
    Total Energy =                       -345.0156829947736696
  Basis Set: CC-PVTZ
  Basis Set:
  @DF-RHF Final Energy:  -345.01603314175395
    Total Energy =                       -345.0160331417540078
  Basis Set: CC-PVTZ
  Basis Set:
  Basis Set: CC-PVTZ
  Basis Set:
  @DF-RHF Final Energy:  -345.01605087041384
    Total Energy =                       -345.0160508704138351
  Basis Set: CC-PVTZ
  Basis Set:
  Basis Set: CC-PVTZ
  Basis Set:
  @DF-RHF Final Energy:  -345.01605505948669
    Total Energy =                       -345.0160550594870301
  Basis Set: CC-PVTZ
  Basis Set:
  Charge       = 0
  Multiplicity = 1
  Basis Set: CC-PVTZ
  Basis Set:

    Orbital Energies (a.u.)
    -----------------------

    Doubly Occupied:

       1A    -20.578126     2A    -20.546360     3A    -11.368221
       4A    -11.289186     5A    -11.238993     6A    -11.223404
       7A    -11.215636     8A     -1.462050     9A     -1.370335
      10A     -1.082850    11A     -0.992029    12A     -0.952875
      13A     -0.835380    14A     -0.766846    15A     -0.701587
      16A     -0.682129    17A     -0.675596    18A     -0.635442
      19A     -0.619508    20A     -0.579759    21A     -0.566650
      22A     -0.540714    23A     -0.520183    24A     -0.498611
      25A     -0.493071    26A     -0.482753    27A     -0.457038
      28A     -0.438496

  @DF-RHF Final Energy:  -345.01605549728862

   => Energetics <=

    Nuclear Repulsion Energy =            312.9731555345464926
    One-Electron Energy =               -1090.3507686051716519
    Two-Electron Energy =                 432.3615575733366541
    DFT Exchange-Correlation Energy =       0.0000000000000000
    Empirical Dispersion Energy =           0.0000000000000000
    PCM Polarization Energy =               0.0000000000000000
    EFP Energy =                            0.0000000000000000
    Total Energy =                       -345.0160554972884484
    Molecular point group: c1
  Basis Set: CC-PVTZ
  Basis Set:

  -Total Gradient:
     Atom            X                  Y                   Z
    ------   -----------------  -----------------  -----------------
       1        0.000433407048    -0.000129101155    -0.003109816259
       2       -0.001307608162    -0.000768356347     0.004460560883
       3       -0.000006849801     0.000014778529    -0.000052716472
       4        0.002191344576     0.003024196950    -0.001173140380
       5        0.000026494219    -0.000025725439     0.000035601150
       6        0.000004413077    -0.000009190991     0.000006227910
       7        0.000002899191     0.000001065028     0.000016649658
       8       -0.000019886911     0.000008740337    -0.000007091962
       9       -0.000003221435     0.000006302025    -0.000003741778
      10        0.000002981719     0.000010881436     0.000004645591
      11       -0.000002646462    -0.000010540090    -0.000003251921
      12       -0.000001736559    -0.000002805082    -0.000008848029
      13        0.000004107920     0.000000476574    -0.000001157739
      14       -0.001336096562    -0.002116950746    -0.000187219380
      15        0.000013173994     0.000014209850     0.000008326292
      16        0.000014468199     0.000001037789     0.000003166614
      17       -0.000015244048    -0.000019018665     0.000011805822

  **** Optimization is complete! (in 11 steps) ****
    Final optimized geometry and variables:
    Molecular point group: c1

    Geometry (in Angstrom), charge = 0, multiplicity = 1:

    O            0.680452094984     1.532988003926    -0.089377316070
    C            0.662884705760     0.357709408465    -0.057029274951
    C           -0.554395358092    -0.496093552964    -0.301797380964
    O            1.792637294245    -0.360361835775     0.127580347986
    C           -1.841454058174     0.291585374996    -0.499502906250
    H           -0.329753476331    -1.107813410872    -1.170559484339
    H           -0.646157470667    -1.192358520319     0.526734722719
    C           -3.039029424098    -0.615731187488    -0.759511817214
    H           -1.712658968235     0.980316441541    -1.325267140323
    H           -2.024766019618     0.902903637381     0.376468959763
    H           -2.892658837542    -1.215858840569    -1.651513667038
    H           -3.941828444738    -0.033476864826    -0.898525784531
    H           -3.208716129240    -1.294414091590     0.070089089982
    C            2.147298826993    -0.663032459035     1.457096382448
    H            2.307297609089     0.243723253247     2.026440472138
    H            3.065503196621    -1.225867652128     1.413835231135
    H            1.385812631460    -1.265703333818     1.939950900941

  Mulliken Charges: (a.u.)
   Center  Symbol    Alpha    Beta     Spin     Total
       1     O     4.16867  4.16867  0.00000 -0.33734
       2     C     2.78852  2.78852  0.00000  0.42297
       3     C     3.11215  3.11215  0.00000 -0.22430
       4     O     4.16913  4.16913  0.00000 -0.33826
       5     C     3.08018  3.08018  0.00000 -0.16037
       6     H     0.43837  0.43837  0.00000  0.12327
       7     H     0.44508  0.44508  0.00000  0.10984
       8     C     3.15016  3.15016  0.00000 -0.30032
       9     H     0.44391  0.44391  0.00000  0.11218
      10     H     0.44798  0.44798  0.00000  0.10403
      11     H     0.45500  0.45500  0.00000  0.08999
      12     H     0.44501  0.44501  0.00000  0.10997
      13     H     0.45652  0.45652  0.00000  0.08696
      14     C     3.03474  3.03474  0.00000 -0.06948
      15     H     0.45426  0.45426  0.00000  0.09148
      16     H     0.44278  0.44278  0.00000  0.11443
      17     H     0.46753  0.46753  0.00000  0.06493

   Total alpha = 28.00000, Total beta = 28.00000, Total charge = -0.00000

*** Psi4 exiting successfully. Buy a developer a beer!
