  ==> Input File <==

--------------------------------------------------------------------------
set {
	reference rhf
	basis 6-31G*
}

set_num_threads( 4 )
memory 2 gb

molecule MOL {
0 1

H	 2.011757	 2.766901	 -1.497965
O	 2.841717	 2.365344	 -1.710070
C	 3.329955	 1.668254	 -0.592151
C	 2.566404	 0.379768	 -0.306631
H	 4.363546	 1.438437	 -0.816981
H	 3.325715	 2.309528	 0.288491
C	 1.098873	 0.596536	 0.070508
H	 2.627245	 -0.258777	 -1.184084
H	 3.074204	 -0.143136	 0.502120
C	 0.374610	 -0.710865	 0.403618
H	 0.589314	 1.094845	 -0.749494
H	 1.040701	 1.265802	 0.929018
C	 -1.075814	 -0.542521	 0.870811
H	 0.398919	 -1.365172	 -0.465945
H	 0.930421	 -1.225041	 1.184898
C	 -2.037799	 -0.007733	 -0.193645
H	 -1.439315	 -1.509595	 1.212063
H	 -1.099575	 0.112601	 1.740344
C	 -3.489788	 0.042957	 0.286558
H	 -1.975791	 -0.635462	 -1.081464
H	 -1.735685	 0.989624	 -0.503982
C	 -4.216917	 1.317354	 -0.141063
H	 -4.025645	 -0.823308	 -0.095450
H	 -3.513059	 -0.038752	 1.371301
H	 -4.239342	 1.411634	 -1.223113
H	 -5.243387	 1.322503	 0.212445
H	 -3.726170	 2.201406	 0.256408

	symmetry c1
}
set optking {
	frozen_dihedral = ("
		20 16 19 22
	")
}

ee = optimize('scf')
oeprop('DIPOLE', 'QUADRUPOLE', 'MULLIKEN_CHARGES')
f=open( 'psi4out.xyz', 'w' )
f.write( "27  " )
f.write( str(ee) + "\n" )
f.write( MOL.save_string_xyz() )
f.close()
--------------------------------------------------------------------------

    Molecular point group: c1
  Charge       = 0
  Multiplicity = 1
  Basis Set: 6-31G*
  Basis Set:
  @DF-RHF Final Energy:  -388.27714525719779
    Total Energy =                       -388.2771452571976170
    Molecular point group: c1
  Basis Set: 6-31G*
  Basis Set:
  Basis Set: 6-31G*
  Basis Set:
  @DF-RHF Final Energy:  -388.27739556831392
    Total Energy =                       -388.2773955683137501
  Basis Set: 6-31G*
  Basis Set:
  Basis Set: 6-31G*
  Basis Set:
  @DF-RHF Final Energy:  -388.27746192448330
    Total Energy =                       -388.2774619244839869
  Basis Set: 6-31G*
  Basis Set:
  Basis Set: 6-31G*
  Basis Set:
  @DF-RHF Final Energy:  -388.27745835885798
    Total Energy =                       -388.2774583588585529
  Basis Set: 6-31G*
  Basis Set:
  Basis Set: 6-31G*
  Basis Set:
  @DF-RHF Final Energy:  -388.27747106601549
    Total Energy =                       -388.2774710660157780
  Basis Set: 6-31G*
  Basis Set:
  Basis Set: 6-31G*
  Basis Set:
  @DF-RHF Final Energy:  -388.27747223562557
    Total Energy =                       -388.2774722356257371
  Basis Set: 6-31G*
  Basis Set:
  Charge       = 0
  Multiplicity = 1
  Basis Set: 6-31G*
  Basis Set:

    Orbital Energies (a.u.)
    -----------------------

    Doubly Occupied:

       1A    -20.552293     2A    -11.267047     3A    -11.219840
       4A    -11.217038     5A    -11.215948     6A    -11.215801
       7A    -11.215216     8A    -11.214232     9A    -11.209875
      10A     -1.359051    11A     -1.094551    12A     -1.060214
      13A     -1.011204    14A     -0.948437    15A     -0.887804
      16A     -0.820659    17A     -0.802266    18A     -0.777722
      19A     -0.693702    20A     -0.650671    21A     -0.631560
      22A     -0.614400    23A     -0.607116    24A     -0.583948
      25A     -0.581733    26A     -0.550120    27A     -0.538757
      28A     -0.533996    29A     -0.504511    30A     -0.493098
      31A     -0.487864    32A     -0.472971    33A     -0.470905
      34A     -0.457185    35A     -0.452031    36A     -0.440311
      37A     -0.422768

  @DF-RHF Final Energy:  -388.27747231653842

   => Energetics <=

    Nuclear Repulsion Energy =            460.3671294765829884
    One-Electron Energy =               -1438.7355196883149802
    Two-Electron Energy =                 590.0909178951931153
    DFT Exchange-Correlation Energy =       0.0000000000000000
    Empirical Dispersion Energy =           0.0000000000000000
    PCM Polarization Energy =               0.0000000000000000
    EFP Energy =                            0.0000000000000000
    Total Energy =                       -388.2774723165389332
    Molecular point group: c1
  Basis Set: 6-31G*
  Basis Set:

  -Total Gradient:
     Atom            X                  Y                   Z
    ------   -----------------  -----------------  -----------------
       1       -0.000009235015    -0.000001044987     0.000000056659
       2       -0.000010781158     0.000001341240     0.000006790623
       3        0.000014016500    -0.000014962117    -0.000016764142
       4       -0.000000107984     0.000010106488     0.000003947613
       5        0.000003400011    -0.000001891536     0.000001867875
       6       -0.000002976190    -0.000003991858    -0.000000783441
       7       -0.000003340620     0.000000829560     0.000003260069
       8        0.000005844382    -0.000000769055     0.000003204259
       9        0.000001242772     0.000006362687     0.000004265042
      10       -0.000009618687    -0.000001020743    -0.000008595353
      11        0.000007185723     0.000012042703    -0.000001241825
      12       -0.000002585398     0.000000889780     0.000006159163
      13        0.000007466686    -0.000002251184    -0.000001383906
      14       -0.000004111440    -0.000005930442    -0.000002519828
      15       -0.000010099866     0.000001400140     0.000000808112
      16       -0.000511463826     0.004248996663    -0.001796132324
      17        0.000010262237    -0.000001561220    -0.000000102749
      18       -0.000004395131     0.000000627724     0.000005267226
      19       -0.000944934070    -0.002511195248    -0.002755949392
      20        0.000673815226    -0.003026365353     0.002196131220
      21        0.000015635703     0.000004033943    -0.000005805488
      22        0.000781890928     0.001281667520     0.002352354797
      23       -0.000006612075    -0.000007638444     0.000014517037
      24        0.000000680034     0.000001538236    -0.000006239102
      25        0.000001435959    -0.000000061707    -0.000001671595
      26        0.000003318886    -0.000001459251    -0.000001633738
      27       -0.000005933586     0.000010306462     0.000000193190

  **** Optimization is complete! (in 7 steps) ****
    Final optimized geometry and variables:
    Molecular point group: c1

    Geometry (in Angstrom), charge = 0, multiplicity = 1:

    H            2.067218127089     2.148466688285    -1.326098581876
    O            2.894829546811     1.742051471094    -1.538157140973
    C            3.379719289625     1.043792606008    -0.419542216652
    C            2.609503399139    -0.240344756426    -0.132404869654
    H            4.411965539921     0.808295774432    -0.644600103295
    H            3.379248984414     1.686106240133     0.460349502800
    C            1.143054526066    -0.015544297056     0.244057934617
    H            2.667267969582    -0.880428043724    -1.008942701019
    H            3.114347191678    -0.764742972078     0.677211796058
    C            0.410289193662    -1.319278986639     0.573304390256
    H            0.637361345975     0.487839785404    -0.575294702622
    H            1.088222967380     0.652134408705     1.104045447114
    C           -1.038213414005    -1.142116723016     1.041307141129
    H            0.429959159369    -1.970758571454    -0.298600532852
    H            0.962806581240    -1.840018606125     1.352626435552
    C           -1.997056252451    -0.587257862249    -0.018702913266
    H           -1.412143895615    -2.109029436003     1.372294093501
    H           -1.058027238227    -0.495596597905     1.917468566994
    C           -3.463515708338    -0.568332986729     0.458497366082
    H           -1.910015369584    -1.211749695729    -0.905119001902
    H           -1.691545225261     0.414476039192    -0.305425279227
    C           -4.226738907507     0.685913071708     0.032076007225
    H           -3.979882170474    -1.454232250161     0.099849703902
    H           -3.488905034472    -0.627769801264     1.544212638329
    H           -4.238701508589     0.794456963272    -1.049161953425
    H           -5.257402753759     0.655593962777     0.372198971856
    H           -3.765886193726     1.577692339330     0.447255499672

  Mulliken Charges: (a.u.)
   Center  Symbol    Alpha    Beta     Spin     Total
       1     H     0.27990  0.27990  0.00000  0.44020
       2     O     4.37093  4.37093  0.00000 -0.74186
       3     C     2.99739  2.99739  0.00000  0.00523
       4     C     3.16086  3.16086  0.00000 -0.32172
       5     H     0.41444  0.41444  0.00000  0.17113
       6     H     0.43205  0.43205  0.00000  0.13589
       7     C     3.16331  3.16331  0.00000 -0.32662
       8     H     0.41499  0.41499  0.00000  0.17003
       9     H     0.42432  0.42432  0.00000  0.15136
      10     C     3.15259  3.15259  0.00000 -0.30519
      11     H     0.42293  0.42293  0.00000  0.15415
      12     H     0.42545  0.42545  0.00000  0.14909
      13     C     3.15572  3.15572  0.00000 -0.31145
      14     H     0.42176  0.42176  0.00000  0.15648
      15     H     0.42149  0.42149  0.00000  0.15701
      16     C     3.15510  3.15510  0.00000 -0.31019
      17     H     0.42078  0.42078  0.00000  0.15844
      18     H     0.42430  0.42430  0.00000  0.15140
      19     C     3.15376  3.15376  0.00000 -0.30751
      20     H     0.42137  0.42137  0.00000  0.15727
      21     H     0.42129  0.42129  0.00000  0.15743
      22     C     3.23987  3.23987  0.00000 -0.47973
      23     H     0.41997  0.41997  0.00000  0.16005
      24     H     0.42125  0.42125  0.00000  0.15749
      25     H     0.42155  0.42155  0.00000  0.15691
      26     H     0.42013  0.42013  0.00000  0.15973
      27     H     0.42251  0.42251  0.00000  0.15497

   Total alpha = 37.00000, Total beta = 37.00000, Total charge =  0.00000
