  ==> Input File <==

--------------------------------------------------------------------------
set {
	reference rhf
	basis cc-pvtz
}

set_num_threads( 4 )
memory 2 gb

molecule MOL {
0 1

H	 -4.251845	 0.287719	 0.392991
O	 -3.528020	 -0.170702	 0.008124
C	 -2.316449	 0.365561	 0.469572
C	 -1.175688	 -0.398187	 -0.171891
H	 -2.245555	 1.420866	 0.214467
H	 -2.252797	 0.285601	 1.552801
C	 0.196029	 0.106276	 0.266738
H	 -1.273656	 -0.320746	 -1.250142
H	 -1.283488	 -1.449328	 0.075899
C	 1.330220	 -0.826136	 -0.155230
H	 0.359542	 1.097229	 -0.145561
H	 0.212134	 0.218135	 1.348778
C	 2.719700	 -0.407669	 0.328325
H	 1.339388	 -0.911200	 -1.239363
H	 1.119001	 -1.821953	 0.224128
C	 3.241564	 0.893452	 -0.276737
H	 3.418299	 -1.204729	 0.093035
H	 2.711776	 -0.323368	 1.411960
H	 3.254204	 0.841071	 -1.360784
H	 2.634460	 1.745075	 0.005842
H	 4.254264	 1.092401	 0.054971

	symmetry c1
}
set optking {
	frozen_dihedral = ("
		8 4 7 10
	")
}

ee = optimize('scf')
oeprop('DIPOLE', 'QUADRUPOLE', 'MULLIKEN_CHARGES')
f=open( 'psi4out.xyz', 'w' )
f.write( "21  " )
f.write( str(ee) + "\n" )
f.write( MOL.save_string_xyz() )
f.close()
--------------------------------------------------------------------------

    Molecular point group: c1
  Charge       = 0
  Multiplicity = 1
  Basis Set: CC-PVTZ
  Basis Set:
  @DF-RHF Final Energy:  -310.33261896092853
    Total Energy =                       -310.3326189609284711
    Molecular point group: c1
  Basis Set: CC-PVTZ
  Basis Set:
  Basis Set: CC-PVTZ
  Basis Set:
  @DF-RHF Final Energy:  -310.33267516935331
    Total Energy =                       -310.3326751693533652
  Basis Set: CC-PVTZ
  Basis Set:
  Basis Set: CC-PVTZ
  Basis Set:
  @DF-RHF Final Energy:  -310.33267783862448
    Total Energy =                       -310.3326778386246474
  Basis Set: CC-PVTZ
  Basis Set:
  Basis Set: CC-PVTZ
  Basis Set:
  @DF-RHF Final Energy:  -310.33268761044815
    Total Energy =                       -310.3326876104483176
  Basis Set: CC-PVTZ
  Basis Set:
  Charge       = 0
  Multiplicity = 1
  Basis Set: CC-PVTZ
  Basis Set:

    Orbital Energies (a.u.)
    -----------------------

    Doubly Occupied:

       1A    -20.545349     2A    -11.264926     3A    -11.213194
       4A    -11.213083     5A    -11.211317     6A    -11.208955
       7A    -11.206039     8A     -1.363206     9A     -1.087317
      10A     -1.034437    11A     -0.955521    12A     -0.876279
      13A     -0.807406    14A     -0.779475    15A     -0.696244
      16A     -0.663185    17A     -0.621819    18A     -0.609260
      19A     -0.589969    20A     -0.567569    21A     -0.541270
      22A     -0.519821    23A     -0.510137    24A     -0.490519
      25A     -0.478448    26A     -0.459860    27A     -0.456582
      28A     -0.444374    29A     -0.437301

  @DF-RHF Final Energy:  -310.33268819996601

   => Energetics <=

    Nuclear Repulsion Energy =            312.8447167537912037
    One-Electron Energy =               -1040.6490801173786167
    Two-Electron Energy =                 417.4716751636215122
    DFT Exchange-Correlation Energy =       0.0000000000000000
    Empirical Dispersion Energy =           0.0000000000000000
    PCM Polarization Energy =               0.0000000000000000
    EFP Energy =                            0.0000000000000000
    Total Energy =                       -310.3326881999659008
    Molecular point group: c1
  Basis Set: CC-PVTZ
  Basis Set:

  -Total Gradient:
     Atom            X                  Y                   Z
    ------   -----------------  -----------------  -----------------
       1       -0.000004146750     0.000000812438    -0.000004067792
       2       -0.000017665552    -0.000018365138     0.000007990679
       3       -0.000002538789     0.000020319252     0.000007530826
       4        0.000826278897    -0.002343647721     0.000138872128
       5        0.000006350901    -0.000005373923     0.000003494335
       6       -0.000002746929     0.000004612044     0.000011525734
       7       -0.000004886280     0.001329297765    -0.001490133551
       8       -0.000692441548     0.001695354256     0.000217181615
       9        0.000026249307     0.000011438939    -0.000012653838
      10       -0.000117582946    -0.000694850461     0.001124871234
      11       -0.000010726437    -0.000013954095    -0.000017538240
      12       -0.000011825162     0.000016387742     0.000013669460
      13       -0.000002628576     0.000015284903    -0.000003125331
      14        0.000004668592    -0.000002460015     0.000000807472
      15        0.000001235268    -0.000000626941     0.000000665906
      16        0.000003294639    -0.000015268987    -0.000002943277
      17        0.000008086108     0.000004225322     0.000001574226
      18       -0.000009169733     0.000001345685    -0.000000376003
      19       -0.000008336139     0.000002919791     0.000000584754
      20        0.000002685416    -0.000002484893     0.000005580840
      21        0.000005845709    -0.000004965964    -0.000003511176

  **** Optimization is complete! (in 5 steps) ****
    Final optimized geometry and variables:
    Molecular point group: c1

    Geometry (in Angstrom), charge = 0, multiplicity = 1:

    H           -4.245894998712     0.374239364260     0.279321402116
    O           -3.522201589601    -0.085433633434    -0.104207327590
    C           -2.311778135989     0.406342174322     0.406989877922
    C           -1.170881728721    -0.362865658626    -0.229400736009
    H           -2.209701286303     1.467725180101     0.189677246709
    H           -2.279624950788     0.289061015040     1.488081613254
    C            0.198713192952     0.134172192313     0.227105175800
    H           -1.262613748499    -0.263722653299    -1.306187501085
    H           -1.290314915554    -1.414972507033     0.006652768951
    C            1.338203217537    -0.786654292931    -0.205851025972
    H            0.358800825631     1.137057194639    -0.154838229025
    H            0.211203273783     0.214453041535     1.312384756900
    C            2.728157638222    -0.352425855198     0.262127576324
    H            1.337844329618    -0.875879424757    -1.289936467590
    H            1.139880427014    -1.782655214051     0.179160824606
    C            3.237294200379     0.943558789615    -0.364247186686
    H            3.430544171050    -1.147762567369     0.032453715732
    H            2.727356350408    -0.253692162695     1.344612060950
    H            3.242561045674     0.876208200569    -1.447468141786
    H            2.626852746170     1.795194465418    -0.089164834681
    H            4.251022864964     1.153446415594    -0.042575608642

  Mulliken Charges: (a.u.)
   Center  Symbol    Alpha    Beta     Spin     Total
       1     H     0.39753  0.39753  0.00000  0.20493
       2     O     4.19448  4.19448  0.00000 -0.38896
       3     C     2.96297  2.96297  0.00000  0.07407
       4     C     3.08392  3.08392  0.00000 -0.16784
       5     H     0.47541  0.47541  0.00000  0.04918
       6     H     0.47455  0.47455  0.00000  0.05090
       7     C     3.10366  3.10366  0.00000 -0.20731
       8     H     0.45025  0.45025  0.00000  0.09950
       9     H     0.45127  0.45127  0.00000  0.09747
      10     C     3.09421  3.09421  0.00000 -0.18843
      11     H     0.45169  0.45169  0.00000  0.09662
      12     H     0.45717  0.45717  0.00000  0.08567
      13     C     3.08996  3.08996  0.00000 -0.17993
      14     H     0.45314  0.45314  0.00000  0.09371
      15     H     0.44864  0.44864  0.00000  0.10273
      16     C     3.15201  3.15201  0.00000 -0.30402
      17     H     0.44840  0.44840  0.00000  0.10321
      18     H     0.45520  0.45520  0.00000  0.08961
      19     H     0.45458  0.45458  0.00000  0.09083
      20     H     0.45435  0.45435  0.00000  0.09129
      21     H     0.44661  0.44661  0.00000  0.10678

   Total alpha = 29.00000, Total beta = 29.00000, Total charge = -0.00000
