  ==> Input File <==

--------------------------------------------------------------------------
set {
	reference rhf
	basis 6-31G*
}

set_num_threads( 4 )
memory 2 gb

molecule MOL {
0 1

H	 -0.977480	 0.162985	 -1.048172
N	 -0.712432	 0.000013	 -0.096310
C	 0.734192	 -0.000004	 0.040609
H	 -1.092137	 -0.889674	 0.162803
H	 1.139899	 -0.873598	 -0.456463
H	 1.139939	 0.873831	 -0.456100
H	 1.096456	 -0.000300	 1.069655

	symmetry c1
}
set optking {
	frozen_dihedral = ("
		1 2 3 7
	")
}

ee = optimize('scf')
oeprop('DIPOLE', 'QUADRUPOLE', 'MULLIKEN_CHARGES')
f=open( 'psi4out.xyz', 'w' )
f.write( "7  " )
f.write( str(ee) + "\n" )
f.write( MOL.save_string_xyz() )
f.close()
--------------------------------------------------------------------------

    Molecular point group: c1
  Charge       = 0
  Multiplicity = 1
  Basis Set: 6-31G*
  Basis Set:
  @DF-RHF Final Energy:   -95.20744153967647
    Total Energy =                        -95.2074415396764095
    Molecular point group: c1
  Basis Set: 6-31G*
  Basis Set:
  Basis Set: 6-31G*
  Basis Set:
  @DF-RHF Final Energy:   -95.20934872392768
    Total Energy =                        -95.2093487239278602
  Basis Set: 6-31G*
  Basis Set:
  Basis Set: 6-31G*
  Basis Set:
  @DF-RHF Final Energy:   -95.20958518690368
    Total Energy =                        -95.2095851869035812
  Basis Set: 6-31G*
  Basis Set:
  Charge       = 0
  Multiplicity = 1
  Basis Set: 6-31G*
  Basis Set:

    Orbital Energies (a.u.)
    -----------------------

    Doubly Occupied:

       1A    -15.534271     2A    -11.237300     3A     -1.170434
       4A     -0.896496     5A     -0.665086     6A     -0.602710
       7A     -0.557871     8A     -0.517011     9A     -0.382779

  @DF-RHF Final Energy:   -95.20958786766121

   => Energetics <=

    Nuclear Repulsion Energy =             42.3392650618076161
    One-Electron Energy =                -211.9697907421690388
    Two-Electron Energy =                  74.4209378127001742
    DFT Exchange-Correlation Energy =       0.0000000000000000
    Empirical Dispersion Energy =           0.0000000000000000
    PCM Polarization Energy =               0.0000000000000000
    EFP Energy =                            0.0000000000000000
    Total Energy =                        -95.2095878676612415
    Molecular point group: c1
  Basis Set: 6-31G*
  Basis Set:

  -Total Gradient:
     Atom            X                  Y                   Z
    ------   -----------------  -----------------  -----------------
       1        0.000112934554     0.001372716023     0.000204962870
       2        0.000076515864    -0.001318646250    -0.000146195314
       3        0.000035915960    -0.001287058642    -0.000043574053
       4        0.000059240654    -0.000039363400     0.000004777683
       5       -0.000080238169    -0.000029751450    -0.000015586605
       6       -0.000085554876     0.000016134182    -0.000004235531
       7       -0.000118813988     0.001285969539    -0.000000149048

  **** Optimization is complete! (in 4 steps) ****
    Final optimized geometry and variables:
    Molecular point group: c1

    Geometry (in Angstrom), charge = 0, multiplicity = 1:

    H           -1.003715362082     0.188932413798    -0.978342714164
    N           -0.716840862398     0.034769423019    -0.031929192998
    C            0.732032446034     0.007233798911     0.069942554245
    H           -1.115406540514    -0.834672760783     0.263418330095
    H            1.208859334309    -0.848408135779    -0.409570611995
    H            1.134133096124     0.907871525363    -0.379725147860
    H            1.019982575148     0.017046810975     1.115061524131

  Mulliken Charges: (a.u.)
   Center  Symbol    Alpha    Beta     Spin     Total
       1     H     0.33345  0.33345  0.00000  0.33311
       2     N     3.91801  3.91801  0.00000 -0.83601
       3     C     3.14727  3.14727  0.00000 -0.29455
       4     H     0.33335  0.33335  0.00000  0.33330
       5     H     0.43316  0.43316  0.00000  0.13368
       6     H     0.41809  0.41809  0.00000  0.16383
       7     H     0.41668  0.41668  0.00000  0.16664

   Total alpha =  9.00000, Total beta =  9.00000, Total charge =  0.00000
