                              Psi4 1.0.54 Driver

  ==> Input File <==

--------------------------------------------------------------------------
set {
	reference rhf
	basis cc-pvtz
}

set_num_threads( 4 )
memory 2 gb

molecule MOL {
0 1

O	 1.825943	 0.287731	 -0.937300
C	 1.121787	 0.124983	 0.000110
C	 -0.170912	 -0.649867	 -0.000147
O	 1.387606	 0.615937	 1.199560
C	 -1.413045	 0.229353	 0.001137
H	 -0.152877	 -1.303435	 -0.866175
H	 -0.152278	 -1.305116	 0.864586
C	 -2.702562	 -0.586401	 0.000228
H	 -1.390744	 0.882001	 -0.864365
H	 -1.390549	 0.879837	 0.868264
C	 -3.953810	 0.284959	 -0.000782
H	 -2.717793	 -1.238567	 -0.869075
H	 -2.719108	 -1.238472	 0.869576
H	 -3.983727	 0.924403	 -0.876454
H	 -4.852989	 -0.320147	 -0.001515
H	 -3.985140	 0.924399	 0.874841
C	 2.575455	 1.367859	 1.344292
H	 3.439432	 0.765827	 1.104860
H	 2.609911	 1.673986	 2.377233
H	 2.559643	 2.233759	 0.699165

	symmetry c1
}
set optking {
	frozen_dihedral = ("
		1 2 3 6
	")
}

ee,wfn = optimize('scf', return_wfn=True)
oeprop( wfn, 'DIPOLE', 'QUADRUPOLE', 'MULLIKEN_CHARGES')
f=open( 'psi4out.xyz', 'w' )
f.write( "20  " )
f.write( str(ee) + "\n" )
f.write( MOL.save_string_xyz() )
f.close()
--------------------------------------------------------------------------

    Molecular point group: c1
  Charge       = 0
  Multiplicity = 1
  Basis Set: CC-PVTZ
  Basis Set:
  @DF-RHF Final Energy:  -384.08163730508534
    Total Energy =                       -384.0816373050857919
    Molecular point group: c1
  Basis Set: CC-PVTZ
  Basis Set:
  Basis Set: CC-PVTZ
  Basis Set:
  @DF-RHF Final Energy:  -384.08167479346173
    Total Energy =                       -384.0816747934615023
  Basis Set: CC-PVTZ
  Basis Set:
  Basis Set: CC-PVTZ
  Basis Set:
  @DF-RHF Final Energy:  -384.08211856183283
    Total Energy =                       -384.0821185618335676
  Basis Set: CC-PVTZ
  Basis Set:
  Basis Set: CC-PVTZ
  Basis Set:
  @DF-RHF Final Energy:  -384.08216979955506
    Total Energy =                       -384.0821697995547765
  Basis Set: CC-PVTZ
  Basis Set:
  Basis Set: CC-PVTZ
  Basis Set:
  @DF-RHF Final Energy:  -384.08217164950651
    Total Energy =                       -384.0821716495061082
  Basis Set: CC-PVTZ
  Basis Set:
  Charge       = 0
  Multiplicity = 1
  Basis Set: CC-PVTZ
  Basis Set:

    Orbital Energies (a.u.)
    -----------------------

    Doubly Occupied:

       1A    -20.597111     2A    -20.532336     3A    -11.363269
       4A    -11.278451     5A    -11.232208     6A    -11.227674
       7A    -11.222360     8A    -11.212555     9A     -1.471706
      10A     -1.364404    11A     -1.094151    12A     -1.026322
      13A     -0.968195    14A     -0.890937    15A     -0.807648
      16A     -0.775797    17A     -0.696294    18A     -0.683191
      19A     -0.676526    20A     -0.649005    21A     -0.598896
      22A     -0.593320    23A     -0.575971    24A     -0.554483
      25A     -0.535011    26A     -0.521135    27A     -0.512475
      28A     -0.485397    29A     -0.480937    30A     -0.476627
      31A     -0.457767    32A     -0.432504

  @DF-RHF Final Energy:  -384.08217186247697

   => Energetics <=

    Nuclear Repulsion Energy =            383.9697628378458489
    One-Electron Energy =               -1284.1145444186190616
    Two-Electron Energy =                 516.0626097182957892
    DFT Exchange-Correlation Energy =       0.0000000000000000
    Empirical Dispersion Energy =           0.0000000000000000
    PCM Polarization Energy =               0.0000000000000000
    EFP Energy =                            0.0000000000000000
    Total Energy =                       -384.0821718624774803
    Molecular point group: c1
  Basis Set: CC-PVTZ
  Basis Set:

  -Total Gradient:
     Atom            X                  Y                   Z
    ------   -----------------  -----------------  -----------------
       1       -0.000012924221    -0.000013622367     0.000031455345
       2        0.000010752670     0.000031044199    -0.000016414357
       3       -0.000008151892    -0.000027835962     0.000009085208
       4        0.000005209591     0.000001633691    -0.000003180225
       5       -0.000005106301     0.000008440418     0.000000748787
       6       -0.000001162643    -0.000012593013    -0.000006459709
       7        0.000006316703     0.000012234629    -0.000022278978
       8        0.000009477725    -0.000001661506    -0.000012534627
       9       -0.000003077263    -0.000018994958     0.000014522441
      10       -0.000014508435     0.000019846556    -0.000004381741
      11        0.000006560811     0.000008980858     0.000013808656
      12        0.000005981734     0.000002802393    -0.000002735881
      13        0.000003493026    -0.000001176192    -0.000006045234
      14        0.000000356505    -0.000006298831     0.000003124053
      15        0.000002853553     0.000000222060     0.000004308139
      16       -0.000003446261     0.000003877260    -0.000002990414
      17        0.000016099766     0.000007984234    -0.000001884581
      18       -0.000006675594    -0.000000530195    -0.000000638645
      19       -0.000004853472    -0.000002794882    -0.000000539282
      20       -0.000007196001    -0.000011558391     0.000003031046

  **** Optimization is complete! (in 6 steps) ****
    Final optimized geometry and variables:
    Molecular point group: c1

    Geometry (in Angstrom), charge = 0, multiplicity = 1:

    O            1.937794043477     0.024326133840    -1.133046823206
    C            1.252115838014    -0.156139199198    -0.184522018758
    C           -0.045152458166    -0.920535985094    -0.196145378954
    O            1.537290514855     0.320834798893     1.016199807746
    C           -1.255009593749     0.020236595274    -0.210526998722
    H           -0.043426925589    -1.543752185365    -1.079086105618
    H           -0.084238378063    -1.555903539106     0.680095588002
    C           -2.579139395003    -0.736526331790    -0.249503397092
    H           -1.185984440559     0.673390742815    -1.075142292925
    H           -1.225631443401     0.656234608866     0.667761610821
    C           -3.790034570604     0.189920623597    -0.268213492675
    H           -2.600749313644    -1.377159016588    -1.126378532618
    H           -2.641215425599    -1.394892275416     0.612458344175
    H           -3.773277646567     0.837918008527    -1.137928057659
    H           -4.714164722408    -0.375428350568    -0.294781404363
    H           -3.813377087048     0.821315769477     0.613575446709
    C            2.714441196749     1.092398612750     1.144573012989
    H            3.582926301903     0.508804881117     0.877795796687
    H            2.766724340338     1.385959128156     2.180449539925
    H            2.668655994479     1.965728431436     0.511008924585

  Mulliken Charges: (a.u.)
   Center  Symbol    Alpha    Beta     Spin     Total
       1     O     4.20235  4.20235  0.00000 -0.40470
       2     C     2.80683  2.80683  0.00000  0.38635
       3     C     3.07646  3.07646  0.00000 -0.15291
       4     O     4.15049  4.15049  0.00000 -0.30097
       5     C     3.09891  3.09891  0.00000 -0.19782
       6     H     0.43854  0.43854  0.00000  0.12293
       7     H     0.44533  0.44533  0.00000  0.10935
       8     C     3.08856  3.08856  0.00000 -0.17712
       9     H     0.44593  0.44593  0.00000  0.10814
      10     H     0.44592  0.44592  0.00000  0.10815
      11     C     3.14930  3.14930  0.00000 -0.29860
      12     H     0.45225  0.45225  0.00000  0.09550
      13     H     0.45350  0.45350  0.00000  0.09299
      14     H     0.45356  0.45356  0.00000  0.09287
      15     H     0.44736  0.44736  0.00000  0.10529
      16     H     0.45444  0.45444  0.00000  0.09112
      17     C     3.03759  3.03759  0.00000 -0.07519
      18     H     0.45264  0.45264  0.00000  0.09471
      19     H     0.44553  0.44553  0.00000  0.10894
      20     H     0.45451  0.45451  0.00000  0.09097

   Total alpha = 32.00000, Total beta = 32.00000, Total charge =  0.00000

*** Psi4 exiting successfully. Buy a developer a beer!
