  ==> Input File <==

--------------------------------------------------------------------------
set {
	reference rhf
	basis cc-pvtz
}

set_num_threads( 4 )
memory 2 gb

molecule MOL {
0 1

H	 2.341977	 -1.816528	 -1.560757
O	 2.686225	 -1.027477	 -1.181793
C	 1.715972	 -0.290286	 -0.612810
C	 2.087879	 0.904787	 -0.013974
C	 0.394147	 -0.681595	 -0.609243
H	 3.121091	 1.190146	 -0.028102
C	 1.138014	 1.700683	 0.584072
H	 0.079239	 -1.597994	 -1.063493
C	 -0.532034	 0.141680	 0.000000
H	 1.434694	 2.622553	 1.044380
C	 -0.195975	 1.329000	 0.600514
N	 -1.937041	 -0.281114	 0.000000
H	 -0.944126	 1.936518	 1.060855
O	 -2.159542	 -1.446261	 0.000000
O	 -2.764978	 0.565773	 0.000000

	symmetry c1
}
set optking {
	frozen_dihedral = ("
		11 9 12 14
	")
}

ee = optimize('scf')
oeprop('DIPOLE', 'QUADRUPOLE', 'MULLIKEN_CHARGES')
f=open( 'psi4out.xyz', 'w' )
f.write( "15  " )
f.write( str(ee) + "\n" )
f.write( MOL.save_string_xyz() )
f.close()
--------------------------------------------------------------------------

    Molecular point group: c1
  Charge       = 0
  Multiplicity = 1
  Basis Set: CC-PVTZ
  Basis Set:
  @DF-RHF Final Energy:  -509.21742777407479
    Total Energy =                       -509.2174277740750767
    Molecular point group: c1
  Basis Set: CC-PVTZ
  Basis Set:
  Basis Set: CC-PVTZ
  Basis Set:
  @DF-RHF Final Energy:  -509.21007552256083
    Total Energy =                       -509.2100755225610555
  Basis Set: CC-PVTZ
  Basis Set:
  Basis Set: CC-PVTZ
  Basis Set:
  @DF-RHF Final Energy:  -509.21740298536429
    Total Energy =                       -509.2174029853642878
  Basis Set: CC-PVTZ
  Basis Set:
  Basis Set: CC-PVTZ
  Basis Set:
  @DF-RHF Final Energy:  -509.21762587558658
    Total Energy =                       -509.2176258755861227
  Basis Set: CC-PVTZ
  Basis Set:
  Basis Set: CC-PVTZ
  Basis Set:
  @DF-RHF Final Energy:  -509.21762671357635
    Total Energy =                       -509.2176267135764647
  Basis Set: CC-PVTZ
  Basis Set:
  Charge       = 0
  Multiplicity = 1
  Basis Set: CC-PVTZ
  Basis Set:

    Orbital Energies (a.u.)
    -----------------------

    Doubly Occupied:

       1A    -20.609055     2A    -20.596204     3A    -20.595719
       4A    -15.850285     5A    -11.328562     6A    -11.309995
       7A    -11.263789     8A    -11.263371     9A    -11.258821
      10A    -11.255435    11A     -1.644661    12A     -1.441744
      13A     -1.427435    14A     -1.203328    15A     -1.096150
      16A     -1.048708    17A     -0.966976    18A     -0.883055
      19A     -0.832248    20A     -0.794653    21A     -0.760462
      22A     -0.741564    23A     -0.727028    24A     -0.711040
      25A     -0.676122    26A     -0.636188    27A     -0.622288
      28A     -0.598176    29A     -0.562286    30A     -0.547774
      31A     -0.525142    32A     -0.494813    33A     -0.492750
      34A     -0.459441    35A     -0.379162    36A     -0.346477

  @DF-RHF Final Energy:  -509.21762804670385

   => Energetics <=

    Nuclear Repulsion Energy =            504.6780342503738552
    One-Electron Energy =               -1695.8895110781636504
    Two-Electron Energy =                 681.9938487810859442
    DFT Exchange-Correlation Energy =       0.0000000000000000
    Empirical Dispersion Energy =           0.0000000000000000
    PCM Polarization Energy =               0.0000000000000000
    EFP Energy =                            0.0000000000000000
    Total Energy =                       -509.2176280467037941
    Molecular point group: c1
  Basis Set: CC-PVTZ
  Basis Set:

  -Total Gradient:
     Atom            X                  Y                   Z
    ------   -----------------  -----------------  -----------------
       1       -0.000002060792     0.000006563351    -0.000012180932
       2        0.000009894902    -0.000018698483     0.000014211933
       3       -0.000007515935     0.000020441149     0.000002283956
       4        0.000005918549    -0.000008716815    -0.000010154275
       5       -0.000009315133     0.000007553171    -0.000003038879
       6       -0.000001265979    -0.000000005492     0.000001859451
       7       -0.000009432344     0.000008410188    -0.000005304716
       8        0.000000993684    -0.000003202222     0.000002021068
       9       -0.000628807687     0.001912996997    -0.002256334974
      10       -0.000000467649    -0.000000366120     0.000001312873
      11        0.000460315783    -0.001341480285     0.002382583252
      12        0.000116987642    -0.000537434977    -0.003268033477
      13        0.000005449194     0.000000135071    -0.000002531399
      14        0.000069541541    -0.000048668300     0.003153890975
      15       -0.000010235779     0.000002472761    -0.000000584856

  **** Optimization is complete! (in 6 steps) ****
    Final optimized geometry and variables:
    Molecular point group: c1

    Geometry (in Angstrom), charge = 0, multiplicity = 1:

    H            2.353465618017    -1.856907203550    -1.413730041782
    O            2.695295512965    -1.064049684409    -1.040646666155
    C            1.724653535601    -0.327564197584    -0.472563278822
    C            2.096480813138     0.864540520506     0.132870948542
    C            0.402459142460    -0.719292846827    -0.469221883758
    H            3.130830109579     1.145750631147     0.127078437666
    C            1.146349765522     1.660450829356     0.730331804159
    H            0.089265917033    -1.645329186503    -0.906721010657
    C           -0.524109471642     0.115014432397     0.121308557401
    H            1.445086374664     2.575292710436     1.203235680409
    C           -0.190601773714     1.297782609057     0.729457365074
    N           -1.922971948925    -0.317793330295     0.142580853213
    H           -0.942358988610     1.909949803930     1.179456525457
    O           -2.132740350358    -1.485296804129     0.133547307835
    O           -2.754445688287     0.524546246951     0.191023425078

  Mulliken Charges: (a.u.)
   Center  Symbol    Alpha    Beta     Spin     Total
       1     H     0.38428  0.38428  0.00000  0.23143
       2     O     4.16810  4.16810  0.00000 -0.33620
       3     C     2.84471  2.84471  0.00000  0.31058
       4     C     3.09876  3.09876  0.00000 -0.19752
       5     C     3.13727  3.13727  0.00000 -0.27453
       6     H     0.41335  0.41335  0.00000  0.17329
       7     C     3.05581  3.05581  0.00000 -0.11162
       8     H     0.41215  0.41215  0.00000  0.17569
       9     C     2.95702  2.95702  0.00000  0.08596
      10     H     0.41603  0.41603  0.00000  0.16794
      11     C     3.10160  3.10160  0.00000 -0.20321
      12     N     3.26231  3.26231  0.00000  0.47539
      13     H     0.40325  0.40325  0.00000  0.19351
      14     O     4.17395  4.17395  0.00000 -0.34790
      15     O     4.17141  4.17141  0.00000 -0.34282

   Total alpha = 36.00000, Total beta = 36.00000, Total charge =  0.00000
