  ==> Input File <==

--------------------------------------------------------------------------
set {
	reference rhf
	basis 6-31G*
}

set_num_threads( 1 )
memory 2 gb

molecule MOL {
0 1

H	 3.089270	 -1.380733	 0.000000
O	 2.178328	 -1.639175	 0.000000
C	 1.368216	 -0.558384	 0.000000
C	 1.084841	 0.159234	 1.155001
C	 0.813111	 -0.172871	 -1.207754
H	 1.517871	 -0.142461	 2.093884
C	 0.247382	 1.260816	 1.101623
H	 1.031174	 -0.726294	 -2.100641
C	 -0.024269	 0.931144	 -1.252501
H	 0.035451	 1.808273	 2.002043
C	 -0.311765	 1.653203	 -0.101090
C	 -0.624010	 1.350775	 -2.546754
H	 -0.962528	 2.508538	 -0.144847
O	 -0.440299	 0.800451	 -3.584993
H	 -1.271487	 2.231052	 -2.490765

	symmetry c1
}
set optking {
	frozen_dihedral = ("
		11 9 12 14
	")
}

ee = energy('scf')
oeprop('DIPOLE', 'QUADRUPOLE', 'MULLIKEN_CHARGES')
f=open( 'psi4out.xyz', 'w' )
f.write( "15  " )
f.write( str(ee) + "\n" )
f.write( MOL.save_string_xyz() )
f.close()
--------------------------------------------------------------------------

    Molecular point group: c1

    Geometry (in Angstrom), charge = 0, multiplicity = 1:

       Center              X                  Y                   Z               Mass
    ------------   -----------------  -----------------  -----------------  -----------------
           H          2.581977322239    -1.760976524690     0.755548400635     1.007825032070
           O          1.671035322239    -2.019418524690     0.755548400635    15.994914619560
           C          0.860923322239    -0.938627524690     0.755548400635    12.000000000000
           C          0.577548322239    -0.221009524690     1.910549400635    12.000000000000
           C          0.305818322239    -0.553114524690    -0.452205599365    12.000000000000
           H          1.010578322239    -0.522704524690     2.849432400635     1.007825032070
           C         -0.259910677761     0.880572475310     1.857171400635    12.000000000000
           H          0.523881322239    -1.106537524690    -1.345092599365     1.007825032070
           C         -0.531561677761     0.550900475310    -0.496952599365    12.000000000000
           H         -0.471841677761     1.428029475310     2.757591400635     1.007825032070
           C         -0.819057677761     1.272959475310     0.654458400635    12.000000000000
           C         -1.131302677761     0.970531475310    -1.791205599365    12.000000000000
           H         -1.469820677761     2.128294475310     0.610701400635     1.007825032070
           O         -0.947591677761     0.420207475310    -2.829444599365    15.994914619560
           H         -1.778779677761     1.850808475310    -1.735216599365     1.007825032070

  Charge       = 0
  Multiplicity = 1
  Basis Set: 6-31G*
  Basis Set:

    Orbital Energies (a.u.)
    -----------------------

    Doubly Occupied:

       1A    -20.587776     2A    -20.564330     3A    -11.332806
       4A    -11.303216     5A    -11.252303     6A    -11.250586
       7A    -11.249923     8A    -11.249134     9A    -11.241907
      10A     -1.411443    11A     -1.405298    12A     -1.169308
      13A     -1.048105    14A     -1.025249    15A     -0.896544
      16A     -0.846728    17A     -0.803196    18A     -0.742296
      19A     -0.698526    20A     -0.681896    21A     -0.649336
      22A     -0.635144    23A     -0.619162    24A     -0.606818
      25A     -0.555141    26A     -0.545777    27A     -0.532396
      28A     -0.496507    29A     -0.485716    30A     -0.422496
      31A     -0.351784    32A     -0.339839

  @DF-RHF Final Energy:  -418.28198683691465

   => Energetics <=

    Nuclear Repulsion Energy =            403.1918985909931621
    One-Electron Energy =               -1368.9464150715286905
    Two-Electron Energy =                 547.4725296436213284
    DFT Exchange-Correlation Energy =       0.0000000000000000
    Empirical Dispersion Energy =           0.0000000000000000
    PCM Polarization Energy =               0.0000000000000000
    EFP Energy =                            0.0000000000000000
    Total Energy =                       -418.2819868369142569

  Mulliken Charges: (a.u.)
   Center  Symbol    Alpha    Beta     Spin     Total
       1     H     0.26867  0.26867  0.00000  0.46266
       2     O     4.38427  4.38427  0.00000 -0.76855
       3     C     2.81780  2.81780  0.00000  0.36440
       4     C     3.11226  3.11226  0.00000 -0.22453
       5     C     3.10832  3.10832  0.00000 -0.21665
       6     H     0.39018  0.39018  0.00000  0.21964
       7     C     3.10140  3.10140  0.00000 -0.20279
       8     H     0.37203  0.37203  0.00000  0.25593
       9     C     3.05169  3.05169  0.00000 -0.10339
      10     H     0.39317  0.39317  0.00000  0.21367
      11     C     3.10748  3.10748  0.00000 -0.21496
      12     C     2.83207  2.83207  0.00000  0.33587
      13     H     0.39181  0.39181  0.00000  0.21639
      14     O     4.24645  4.24645  0.00000 -0.49290
      15     H     0.42240  0.42240  0.00000  0.15520

   Total alpha = 32.00000, Total beta = 32.00000, Total charge =  0.00000
