  ==> Input File <==

--------------------------------------------------------------------------
set {
	reference rhf
	basis cc-pvtz
}

set_num_threads( 4 )
memory 2 gb

molecule MOL {
0 1

H	 -2.498963	 -0.741158	 -0.729149
O	 -2.346257	 -0.289210	 0.080372
C	 -1.183935	 0.486039	 -0.009831
C	 0.062853	 -0.375310	 0.027457
H	 -1.178881	 1.094526	 -0.908634
H	 -1.184406	 1.155156	 0.838676
O	 1.172093	 0.457955	 -0.054438
H	 0.052476	 -1.081302	 -0.804627
H	 0.076323	 -0.955658	 0.947560
C	 1.877497	 0.367849	 -1.248385
H	 1.255352	 0.637714	 -2.098904
H	 2.709404	 1.054628	 -1.194062
H	 2.261652	 -0.636874	 -1.407997

	symmetry c1
}
set optking {
	frozen_dihedral = ("
		10 7 4 8
	")
}

ee = optimize('scf')
oeprop('DIPOLE', 'QUADRUPOLE', 'MULLIKEN_CHARGES')
f=open( 'psi4out.xyz', 'w' )
f.write( "13  " )
f.write( str(ee) + "\n" )
f.write( MOL.save_string_xyz() )
f.close()
--------------------------------------------------------------------------

    Molecular point group: c1
  Charge       = 0
  Multiplicity = 1
  Basis Set: CC-PVTZ
  Basis Set:
  @DF-RHF Final Energy:  -268.05795924121952
    Total Energy =                       -268.0579592412195780
    Molecular point group: c1
  Basis Set: CC-PVTZ
  Basis Set:
  Basis Set: CC-PVTZ
  Basis Set:
  @DF-RHF Final Energy:  -268.05844578643757
    Total Energy =                       -268.0584457864376873
  Basis Set: CC-PVTZ
  Basis Set:
  Basis Set: CC-PVTZ
  Basis Set:
  @DF-RHF Final Energy:  -268.05856004595569
    Total Energy =                       -268.0585600459558009
  Basis Set: CC-PVTZ
  Basis Set:
  Basis Set: CC-PVTZ
  Basis Set:
  @DF-RHF Final Energy:  -268.05856159462689
    Total Energy =                       -268.0585615946267808
  Basis Set: CC-PVTZ
  Basis Set:
  Charge       = 0
  Multiplicity = 1
  Basis Set: CC-PVTZ
  Basis Set:

    Orbital Energies (a.u.)
    -----------------------

    Doubly Occupied:

       1A    -20.553682     2A    -20.553625     3A    -11.269569
       4A    -11.269356     5A    -11.267690     6A     -1.388153
       7A     -1.369436     8A     -1.017600     9A     -0.920862
      10A     -0.841331    11A     -0.712329    12A     -0.669986
      13A     -0.663418    14A     -0.643366    15A     -0.591808
      16A     -0.577724    17A     -0.547487    18A     -0.491532
      19A     -0.472242    20A     -0.469270    21A     -0.408735

  @DF-RHF Final Energy:  -268.05856176620978

   => Energetics <=

    Nuclear Repulsion Energy =            191.1529156880745006
    One-Electron Energy =                -745.0245511946468469
    Two-Electron Energy =                 285.8130737403625972
    DFT Exchange-Correlation Energy =       0.0000000000000000
    Empirical Dispersion Energy =           0.0000000000000000
    PCM Polarization Energy =               0.0000000000000000
    EFP Energy =                            0.0000000000000000
    Total Energy =                       -268.0585617662097775
    Molecular point group: c1
  Basis Set: CC-PVTZ
  Basis Set:

  -Total Gradient:
     Atom            X                  Y                   Z
    ------   -----------------  -----------------  -----------------
       1       -0.000001295891     0.000014930598     0.000003822443
       2        0.000004863001    -0.000014534529     0.000005918264
       3        0.000004434668    -0.000006745383    -0.000005691619
       4        0.000334178423    -0.000407147993     0.000281057810
       5        0.000002899433     0.000001181559     0.000007098998
       6       -0.000009611180     0.000006342905    -0.000003741495
       7       -0.000290356684     0.000389415259    -0.000191963946
       8       -0.000183872096     0.000235114121    -0.000210297176
       9       -0.000003256225     0.000015890041     0.000000292514
      10        0.000145472429    -0.000229100381     0.000113311889
      11        0.000003082835    -0.000002596535     0.000000105783
      12       -0.000005970145    -0.000001506634     0.000002888066
      13       -0.000000568569    -0.000001243029    -0.000002801529

  **** Optimization is complete! (in 5 steps) ****
    Final optimized geometry and variables:
    Molecular point group: c1

    Geometry (in Angstrom), charge = 0, multiplicity = 1:

    H           -2.425568377120    -0.880375868320    -0.405163288130
    O           -2.258084099619    -0.400350804561     0.385110227620
    C           -1.098742211721     0.372697478690     0.248148446855
    C            0.154466277496    -0.486163438812     0.253137769855
    H           -1.129902388865     0.977461026281    -0.654352114764
    H           -1.069870605695     1.048562405386     1.090755829720
    O            1.291041660423     0.322564279320     0.187293118675
    H            0.125229203609    -1.186746061821    -0.579060235040
    H            0.187648431168    -1.067228276817     1.166920382684
    C            2.030765019303     0.249692952168    -0.988349498706
    H            1.434741052549     0.513425827079    -1.858974246211
    H            2.846944423924     0.952580110768    -0.905441062945
    H            2.441804133156    -0.745182015075    -1.139762697063

  Mulliken Charges: (a.u.)
   Center  Symbol    Alpha    Beta     Spin     Total
       1     H     0.39481  0.39481  0.00000  0.21038
       2     O     4.20167  4.20167  0.00000 -0.40335
       3     C     2.96971  2.96971  0.00000  0.06059
       4     C     2.97853  2.97853  0.00000  0.04294
       5     H     0.47098  0.47098  0.00000  0.05803
       6     H     0.45290  0.45290  0.00000  0.09420
       7     O     4.18182  4.18182  0.00000 -0.36364
       8     H     0.47963  0.47963  0.00000  0.04074
       9     H     0.45081  0.45081  0.00000  0.09838
      10     C     3.03029  3.03029  0.00000 -0.06058
      11     H     0.47379  0.47379  0.00000  0.05243
      12     H     0.44750  0.44750  0.00000  0.10500
      13     H     0.46756  0.46756  0.00000  0.06489

   Total alpha = 21.00000, Total beta = 21.00000, Total charge = -0.00000
