  ==> Input File <==

--------------------------------------------------------------------------
set {
	reference rhf
	basis 6-31G*
}

set_num_threads( 4 )
memory 2 gb

molecule MOL {
0 1

H	 -2.251964	 -0.482079	 0.621181
C	 -1.863095	 -0.774683	 -0.349553
O	 -0.774054	 0.001095	 -0.743181
H	 -2.637846	 -0.614338	 -1.087375
H	 -1.630225	 -1.835057	 -0.325637
C	 0.406953	 0.000033	 0.038965
C	 1.527284	 -0.003667	 -0.998752
C	 0.498933	 1.262172	 0.902524
C	 0.494271	 -1.259566	 0.906664
H	 1.452513	 0.873252	 -1.631882
H	 1.448863	 -0.881882	 -1.629595
H	 2.502020	 -0.005104	 -0.521731
H	 0.364280	 2.147110	 0.289513
H	 1.472180	 1.321775	 1.378800
H	 -0.247853	 1.275162	 1.689097
H	 0.356778	 -2.146106	 0.296587
H	 1.467182	 -1.320941	 1.383330
H	 -0.252763	 -1.267328	 1.693119

	symmetry c1
}
set optking {
	frozen_dihedral = ("
		2 3 6 7
	")
}

ee = optimize('scf')
oeprop('DIPOLE', 'QUADRUPOLE', 'MULLIKEN_CHARGES')
f=open( 'psi4out.xyz', 'w' )
f.write( "18  " )
f.write( str(ee) + "\n" )
f.write( MOL.save_string_xyz() )
f.close()
--------------------------------------------------------------------------

    Molecular point group: c1
  Charge       = 0
  Multiplicity = 1
  Basis Set: 6-31G*
  Basis Set:
  @DF-RHF Final Energy:  -271.17040069396512
    Total Energy =                       -271.1704006939651208
    Molecular point group: c1
  Basis Set: 6-31G*
  Basis Set:
  Basis Set: 6-31G*
  Basis Set:
  @DF-RHF Final Energy:  -271.17100277837284
    Total Energy =                       -271.1710027783727810
  Basis Set: 6-31G*
  Basis Set:
  Basis Set: 6-31G*
  Basis Set:
  @DF-RHF Final Energy:  -271.17237402470977
    Total Energy =                       -271.1723740247100523
  Basis Set: 6-31G*
  Basis Set:
  Basis Set: 6-31G*
  Basis Set:
  @DF-RHF Final Energy:  -271.17245567554852
    Total Energy =                       -271.1724556755482922
  Basis Set: 6-31G*
  Basis Set:
  Basis Set: 6-31G*
  Basis Set:
  @DF-RHF Final Energy:  -271.17239876733129
    Total Energy =                       -271.1723987673314014
  Basis Set: 6-31G*
  Basis Set:
  Basis Set: 6-31G*
  Basis Set:
  @DF-RHF Final Energy:  -271.17246195099472
    Total Energy =                       -271.1724619509949434
  Basis Set: 6-31G*
  Basis Set:
  Basis Set: 6-31G*
  Basis Set:
  @DF-RHF Final Energy:  -271.17246312496309
    Total Energy =                       -271.1724631249632580
  Basis Set: 6-31G*
  Basis Set:
  Charge       = 0
  Multiplicity = 1
  Basis Set: 6-31G*
  Basis Set:

    Orbital Energies (a.u.)
    -----------------------

    Doubly Occupied:

       1A    -20.544282     2A    -11.281667     3A    -11.261965
       4A    -11.213058     5A    -11.204624     6A    -11.203245
       7A     -1.367125     8A     -1.073735     9A     -0.949843
      10A     -0.935946    11A     -0.911464    12A     -0.751428
      13A     -0.656327    14A     -0.645952    15A     -0.636707
      16A     -0.584740    17A     -0.575406    18A     -0.549999
      19A     -0.539922    20A     -0.525332    21A     -0.514920
      22A     -0.491277    23A     -0.483007    24A     -0.440527
      25A     -0.397985

  @DF-RHF Final Energy:  -271.17246335456264

   => Energetics <=

    Nuclear Repulsion Energy =            271.9106832422035041
    One-Electron Energy =                -906.6853295860255457
    Two-Electron Energy =                 363.6021829892595179
    DFT Exchange-Correlation Energy =       0.0000000000000000
    Empirical Dispersion Energy =           0.0000000000000000
    PCM Polarization Energy =               0.0000000000000000
    EFP Energy =                            0.0000000000000000
    Total Energy =                       -271.1724633545625238
    Molecular point group: c1
  Basis Set: 6-31G*
  Basis Set:

  -Total Gradient:
     Atom            X                  Y                   Z
    ------   -----------------  -----------------  -----------------
       1        0.000000152194    -0.000001955602     0.000016881495
       2        0.000988342156    -0.002462081292    -0.001836192668
       3       -0.001623861666     0.002938448147     0.002794858275
       4        0.000000742699     0.000006863163    -0.000015014054
       5        0.000008005419     0.000037262186    -0.000019311358
       6        0.000627935834     0.002111717947    -0.000901076720
       7       -0.000007980317    -0.002626495005    -0.000046439809
       8       -0.000055095199    -0.000019964505    -0.000014006257
       9        0.000030100005     0.000007277190     0.000017928850
      10       -0.000002758167     0.000016981946     0.000017038658
      11       -0.000001567190     0.000010890291    -0.000023256749
      12        0.000003058084    -0.000024552597    -0.000005293503
      13        0.000014670609    -0.000027182837    -0.000010077826
      14        0.000005512901    -0.000021103132     0.000010018469
      15       -0.000019679617     0.000031791314     0.000006928995
      16        0.000016374656    -0.000000195542     0.000009536163
      17        0.000005035663     0.000011555808    -0.000009439691
      18        0.000011011940     0.000010742520     0.000006917730

  **** Optimization is complete! (in 8 steps) ****
    Final optimized geometry and variables:
    Molecular point group: c1

    Geometry (in Angstrom), charge = 0, multiplicity = 1:

    H           -2.271197560850    -0.349462278269     0.698293368227
    C           -1.924305164028    -0.591218697317    -0.303713374271
    O           -0.812825217849     0.158061406232    -0.680842078433
    H           -2.711713632640    -0.341254919993    -1.002433754997
    H           -1.744624489790    -1.660048106658    -0.359633820748
    C            0.391997726438     0.117873444892     0.072773859853
    C            1.510077744378     0.113413151718    -0.968312236335
    C            0.440703988585     1.381762207071     0.931965226547
    C            0.523367896684    -1.128727426017     0.954892706460
    H            1.410797758151     0.969220033796    -1.626696752491
    H            1.453745824884    -0.784352106838    -1.573975205447
    H            2.487294737067     0.153142428857    -0.496870295459
    H            0.358577486701     2.261307885103     0.303511556872
    H            1.367685053747     1.443592400813     1.494075821560
    H           -0.383857063136     1.395753510374     1.638284826913
    H            0.472284548739    -2.038681610624     0.366866498215
    H            1.486679534857    -1.112144057815     1.453062358199
    H           -0.239899765650    -1.172814326124     1.723764244877

  Mulliken Charges: (a.u.)
   Center  Symbol    Alpha    Beta     Spin     Total
       1     H     0.43202  0.43202  0.00000  0.13596
       2     C     3.07588  3.07588  0.00000 -0.15177
       3     O     4.32413  4.32413  0.00000 -0.64825
       4     H     0.41248  0.41248  0.00000  0.17503
       5     H     0.42885  0.42885  0.00000  0.14230
       6     C     2.84007  2.84007  0.00000  0.31986
       7     C     3.23157  3.23157  0.00000 -0.46314
       8     C     3.23347  3.23347  0.00000 -0.46694
       9     C     3.25772  3.25772  0.00000 -0.51544
      10     H     0.41327  0.41327  0.00000  0.17346
      11     H     0.41799  0.41799  0.00000  0.16402
      12     H     0.42593  0.42593  0.00000  0.14815
      13     H     0.41351  0.41351  0.00000  0.17298
      14     H     0.42526  0.42526  0.00000  0.14948
      15     H     0.42125  0.42125  0.00000  0.15749
      16     H     0.41478  0.41478  0.00000  0.17044
      17     H     0.41482  0.41482  0.00000  0.17036
      18     H     0.41699  0.41699  0.00000  0.16603

   Total alpha = 25.00000, Total beta = 25.00000, Total charge =  0.00000
