  ==> Input File <==

--------------------------------------------------------------------------
set {
	reference rhf
	basis 6-31G*
}

set_num_threads( 4 )
memory 2 gb

molecule MOL {
0 1

O	 0.625848	 1.349995	 -0.000749
C	 0.486307	 0.169203	 0.000779
C	 1.608116	 -0.841643	 0.000302
O	 -0.698257	 -0.426125	 0.001050
C	 2.990107	 -0.200498	 -0.000684
H	 1.468623	 -1.481519	 -0.865924
H	 1.469683	 -1.481289	 0.866878
H	 3.129736	 0.423364	 -0.875135
H	 3.757882	 -0.966877	 -0.001197
H	 3.130964	 0.423383	 0.873533
C	 -1.479637	 -0.335792	 1.187931
C	 -2.771780	 -1.084485	 0.938664
H	 -1.658785	 0.706603	 1.413547
H	 -0.922278	 -0.762970	 2.010403
H	 -3.315470	 -0.647847	 0.108659
H	 -3.400451	 -1.040681	 1.822124
H	 -2.575046	 -2.125508	 0.708828

	symmetry c1
}
set optking {
	frozen_dihedral = ("
		11 4 2 3
	")
}

ee = optimize('scf')
oeprop('DIPOLE', 'QUADRUPOLE', 'MULLIKEN_CHARGES')
f=open( 'psi4out.xyz', 'w' )
f.write( "17  " )
f.write( str(ee) + "\n" )
f.write( MOL.save_string_xyz() )
f.close()
--------------------------------------------------------------------------

    Molecular point group: c1
  Charge       = 0
  Multiplicity = 1
  Basis Set: 6-31G*
  Basis Set:
  @DF-RHF Final Energy:  -344.89478464179103
    Total Energy =                       -344.8947846417909773
    Molecular point group: c1
  Basis Set: 6-31G*
  Basis Set:
  Basis Set: 6-31G*
  Basis Set:
  @DF-RHF Final Energy:  -344.89462980984376
    Total Energy =                       -344.8946298098441616
  Basis Set: 6-31G*
  Basis Set:
  Basis Set: 6-31G*
  Basis Set:
  @DF-RHF Final Energy:  -344.89509991988029
    Total Energy =                       -344.8950999198804084
  Basis Set: 6-31G*
  Basis Set:
  Basis Set: 6-31G*
  Basis Set:
  @DF-RHF Final Energy:  -344.89565802082268
    Total Energy =                       -344.8956580208230207
  Basis Set: 6-31G*
  Basis Set:
  Basis Set: 6-31G*
  Basis Set:
  @DF-RHF Final Energy:  -344.89566840534570
    Total Energy =                       -344.8956684053454751
  Basis Set: 6-31G*
  Basis Set:
  Basis Set: 6-31G*
  Basis Set:
  @DF-RHF Final Energy:  -344.89520802351984
    Total Energy =                       -344.8952080235202402
  Basis Set: 6-31G*
  Basis Set:
  Basis Set: 6-31G*
  Basis Set:
  @DF-RHF Final Energy:  -344.89566967752444
    Total Energy =                       -344.8956696775241539
  Basis Set: 6-31G*
  Basis Set:
  Charge       = 0
  Multiplicity = 1
  Basis Set: 6-31G*
  Basis Set:

    Orbital Energies (a.u.)
    -----------------------

    Doubly Occupied:

       1A    -20.583819     2A    -20.554799     3A    -11.373953
       4A    -11.292679     5A    -11.240824     6A    -11.223677
       7A    -11.217941     8A     -1.458564     9A     -1.364852
      10A     -1.066624    11A     -1.034750    12A     -0.906233
      13A     -0.858798    14A     -0.769458    15A     -0.700630
      16A     -0.682290    17A     -0.657958    18A     -0.633652
      19A     -0.601313    20A     -0.563229    21A     -0.556988
      22A     -0.528435    23A     -0.524439    24A     -0.519013
      25A     -0.504767    26A     -0.491311    27A     -0.449848
      28A     -0.434069

  @DF-RHF Final Energy:  -344.89566997365955

   => Energetics <=

    Nuclear Repulsion Energy =            314.2860349410972276
    One-Electron Energy =               -1092.7735870435503784
    Two-Electron Energy =                 433.5918821287938272
    DFT Exchange-Correlation Energy =       0.0000000000000000
    Empirical Dispersion Energy =           0.0000000000000000
    PCM Polarization Energy =               0.0000000000000000
    EFP Energy =                            0.0000000000000000
    Total Energy =                       -344.8956699736593237
    Molecular point group: c1
  Basis Set: 6-31G*
  Basis Set:

  -Total Gradient:
     Atom            X                  Y                   Z
    ------   -----------------  -----------------  -----------------
       1       -0.000013412407    -0.000050074061     0.000024616369
       2        0.001261432445    -0.002094655086    -0.006376916928
       3       -0.000053097849    -0.000008661727     0.005097969557
       4       -0.003512699063     0.006799747663    -0.000600003954
       5        0.000000048433    -0.000009510047    -0.000014409560
       6       -0.000001933814     0.000002933603    -0.000010630519
       7       -0.000004132534    -0.000010035517    -0.000011371907
       8       -0.000000321479     0.000000927728    -0.000001295594
       9       -0.000002487361     0.000001265941     0.000001294531
      10        0.000000102362     0.000002104569     0.000005682103
      11        0.002317414351    -0.004624091914     0.001869978432
      12       -0.000002122127    -0.000005936758     0.000004715590
      13        0.000003793049     0.000004349523     0.000005633651
      14        0.000003670445    -0.000007671742     0.000001620202
      15        0.000005217702     0.000000714558     0.000002874707
      16       -0.000001470633    -0.000000039372     0.000001004273
      17       -0.000000001522    -0.000001367362    -0.000000760950

  **** Optimization is complete! (in 8 steps) ****
    Final optimized geometry and variables:
    Molecular point group: c1

    Geometry (in Angstrom), charge = 0, multiplicity = 1:

    O            0.514557408094     1.525104886013    -0.248809454697
    C            0.400812488761     0.348420283914    -0.298900347047
    C            1.546984621606    -0.632426878200    -0.291103199210
    O           -0.802621481058    -0.260689332912    -0.316905011205
    C            2.917665506829     0.028204372570    -0.359081007606
    H            1.397130036015    -1.327143753489    -1.112210428721
    H            1.438736215026    -1.224381620204     0.615053542897
    H            3.025556130412     0.605160801126    -1.269883801624
    H            3.699069094889    -0.723905340541    -0.337703225779
    H            3.067679171339     0.701630445364     0.475839744417
    C           -1.584505996508    -0.169987540158     0.866737181973
    C           -2.908209744191    -0.854369780498     0.602230997162
    H           -1.724262956845     0.871999575408     1.123711507904
    H           -1.053822962149    -0.656638696294     1.679972393319
    H           -3.429489163789    -0.364864255287    -0.211824486782
    H           -3.532585932552    -0.812658347874     1.488933300871
    H           -2.754456952273    -1.893750840849     0.336245294646

  Mulliken Charges: (a.u.)
   Center  Symbol    Alpha    Beta     Spin     Total
       1     O     4.26036  4.26036  0.00000 -0.52073
       2     C     2.60931  2.60931  0.00000  0.78138
       3     C     3.20806  3.20806  0.00000 -0.41612
       4     O     4.32319  4.32319  0.00000 -0.64639
       5     C     3.23987  3.23987  0.00000 -0.47974
       6     H     0.39922  0.39922  0.00000  0.20157
       7     H     0.40565  0.40565  0.00000  0.18870
       8     H     0.40986  0.40986  0.00000  0.18027
       9     H     0.41782  0.41782  0.00000  0.16437
      10     H     0.40940  0.40940  0.00000  0.18120
      11     C     3.00307  3.00307  0.00000 -0.00613
      12     C     3.24717  3.24717  0.00000 -0.49435
      13     H     0.40674  0.40674  0.00000  0.18651
      14     H     0.42391  0.42391  0.00000  0.15218
      15     H     0.40745  0.40745  0.00000  0.18511
      16     H     0.41730  0.41730  0.00000  0.16541
      17     H     0.41162  0.41162  0.00000  0.17676

   Total alpha = 28.00000, Total beta = 28.00000, Total charge = -0.00000
