                              Psi4 1.0.54 Driver

  ==> Input File <==

--------------------------------------------------------------------------
set {
	reference rhf
	basis cc-pvtz
}

set_num_threads( 4 )
memory 2 gb

molecule MOL {
0 1

H	 -0.319138	 0.002557	 -2.345276
C	 0.101808	 0.890907	 -1.854890
C	 0.062554	 0.862911	 -0.350953
O	 0.546652	 1.771306	 -2.506170
C	 -1.339253	 0.577611	 0.196911
H	 0.451169	 1.801924	 0.021509
H	 0.738018	 0.070945	 -0.035337
C	 -1.813142	 -0.849710	 -0.061612
H	 -2.032833	 1.276441	 -0.256032
H	 -1.357249	 0.782269	 1.263793
H	 -1.839268	 -1.063526	 -1.124230
H	 -2.810118	 -1.001930	 0.334000
H	 -1.159274	 -1.579980	 0.402282

	symmetry c1
}
set optking {
	frozen_dihedral = ("
		6 3 5 9
	")
}

ee,wfn = optimize('scf', return_wfn=True)
oeprop( wfn, 'DIPOLE', 'QUADRUPOLE', 'MULLIKEN_CHARGES')
f=open( 'psi4out.xyz', 'w' )
f.write( "13  " )
f.write( str(ee) + "\n" )
f.write( MOL.save_string_xyz() )
f.close()
--------------------------------------------------------------------------

    Molecular point group: c1
  Charge       = 0
  Multiplicity = 1
  Basis Set: CC-PVTZ
  Basis Set:
  @DF-RHF Final Energy:  -231.06839984523856
    Total Energy =                       -231.0683998452386732
    Molecular point group: c1
  Basis Set: CC-PVTZ
  Basis Set:
  Basis Set: CC-PVTZ
  Basis Set:
  @DF-RHF Final Energy:  -231.06878193952596
    Total Energy =                       -231.0687819395259908
  Basis Set: CC-PVTZ
  Basis Set:
  Basis Set: CC-PVTZ
  Basis Set:
  @DF-RHF Final Energy:  -231.06876999005522
    Total Energy =                       -231.0687699900553298
  Basis Set: CC-PVTZ
  Basis Set:
  Basis Set: CC-PVTZ
  Basis Set:
  @DF-RHF Final Energy:  -231.06887138411426
    Total Energy =                       -231.0688713841144590
  Basis Set: CC-PVTZ
  Basis Set:
  @DF-RHF Final Energy:  -231.06895698568346
    Total Energy =                       -231.0689569856835703
  Basis Set: CC-PVTZ
  Basis Set:
  @DF-RHF Final Energy:  -231.06895946691512
    Total Energy =                       -231.0689594669150324
  Basis Set: CC-PVTZ
  Basis Set:
  Basis Set: CC-PVTZ
  Basis Set:
  @DF-RHF Final Energy:  -231.06896135619417
    Total Energy =                       -231.0689613561939950
  Basis Set: CC-PVTZ
  Basis Set:
  Basis Set: CC-PVTZ
  Basis Set:
  @DF-RHF Final Energy:  -231.06896289174645
    Total Energy =                       -231.0689628917463949
  Basis Set: CC-PVTZ
  Basis Set:
  Charge       = 0
  Multiplicity = 1
  Basis Set: CC-PVTZ
  Basis Set:

    Orbital Energies (a.u.)
    -----------------------

    Doubly Occupied:

       1A    -20.551940     2A    -11.320944     3A    -11.237590
       4A    -11.234511     5A    -11.223756     6A     -1.406354
       7A     -1.087089     8A     -0.975055     9A     -0.853687
      10A     -0.784916    11A     -0.680163    12A     -0.651257
      13A     -0.604550    14A     -0.602100    15A     -0.578902
      16A     -0.532963    17A     -0.507119    18A     -0.496161
      19A     -0.485213    20A     -0.411366

  @DF-RHF Final Energy:  -231.06896376973631

   => Energetics <=

    Nuclear Repulsion Energy =            172.7212611325469140
    One-Electron Energy =                -655.1291804979321114
    Two-Electron Energy =                 251.3389555956485708
    DFT Exchange-Correlation Energy =       0.0000000000000000
    Empirical Dispersion Energy =           0.0000000000000000
    PCM Polarization Energy =               0.0000000000000000
    EFP Energy =                            0.0000000000000000
    Total Energy =                       -231.0689637697365981
    Molecular point group: c1
  Basis Set: CC-PVTZ
  Basis Set:

  -Total Gradient:
     Atom            X                  Y                   Z
    ------   -----------------  -----------------  -----------------
       1       -0.000022779652    -0.000026287242    -0.000013113057
       2       -0.000042875397    -0.000104424996     0.000100378882
       3       -0.000315903704     0.000291145491    -0.000735438666
       4        0.000062427918     0.000129027091    -0.000080228590
       5        0.000176828147     0.000419290378     0.000706270424
       6        0.000243567732    -0.000303740675     0.000495619574
       7        0.000002643459     0.000003812276    -0.000001372398
       8        0.000002701620    -0.000004283508    -0.000000684027
       9       -0.000102047759    -0.000404792033    -0.000468486500
      10        0.000000852526     0.000002300290    -0.000000759167
      11       -0.000000721260    -0.000000912360    -0.000005298929
      12       -0.000003671917    -0.000002519392     0.000001934711
      13       -0.000001021713     0.000001384683     0.000001177744

  **** Optimization is complete! (in 9 steps) ****
    Final optimized geometry and variables:
    Molecular point group: c1

    Geometry (in Angstrom), charge = 0, multiplicity = 1:

    H            0.300247095697    -0.647707869908    -1.476559245452
    C            0.632156642241     0.250067856157    -0.942909599874
    C            0.567007940628     0.188657606605     0.559190845309
    O            1.011894500686     1.189031145306    -1.554440620418
    C           -0.844824762726    -0.086521300929     1.098366845883
    H            0.947235643682     1.125313025861     0.943593551389
    H            1.237406532502    -0.603035724004     0.887147851476
    C           -1.340813742915    -1.514595941141     0.881899446694
    H           -1.542340083506     0.613552073503     0.649011739549
    H           -0.841218526666     0.127018798744     2.160766371702
    H           -1.422130450519    -1.765505260950    -0.169095136859
    H           -2.321573517791    -1.647118680654     1.322515989508
    H           -0.671350733642    -2.232903717675     1.342901534003

  Mulliken Charges: (a.u.)
   Center  Symbol    Alpha    Beta     Spin     Total
       1     H     0.46328  0.46328  0.00000  0.07344
       2     C     2.90360  2.90360  0.00000  0.19280
       3     C     3.08712  3.08712  0.00000 -0.17425
       4     O     4.16551  4.16551  0.00000 -0.33102
       5     C     3.09892  3.09892  0.00000 -0.19785
       6     H     0.43766  0.43766  0.00000  0.12468
       7     H     0.45185  0.45185  0.00000  0.09629
       8     C     3.15000  3.15000  0.00000 -0.30001
       9     H     0.44677  0.44677  0.00000  0.10647
      10     H     0.44410  0.44410  0.00000  0.11180
      11     H     0.45385  0.45385  0.00000  0.09231
      12     H     0.44394  0.44394  0.00000  0.11211
      13     H     0.45339  0.45339  0.00000  0.09321

   Total alpha = 20.00000, Total beta = 20.00000, Total charge = -0.00000

*** Psi4 exiting successfully. Buy a developer a beer!
