  ==> Input File <==

--------------------------------------------------------------------------
set {
	reference rhf
	basis 6-31G*
}

set_num_threads( 4 )
memory 2 gb

molecule MOL {
0 1

H	 -3.892951	 0.981613	 -0.358725
C	 -3.196921	 0.361773	 0.172313
C	 -2.076860	 -0.007332	 -0.404944
H	 -3.439953	 0.057760	 1.173024
O	 -1.088927	 -0.641703	 0.279469
H	 -1.882516	 0.151134	 -1.451039
C	 0.127456	 -0.839422	 -0.355488
C	 1.042501	 0.353618	 -0.195351
H	 0.011986	 -1.036475	 -1.415455
H	 0.606832	 -1.688977	 0.108129
F	 2.201824	 0.102361	 -0.785815
F	 0.534689	 1.440021	 -0.753639
F	 1.282413	 0.627020	 1.070383

	symmetry c1
}
set optking {
	frozen_dihedral = ("
		6 3 2 1
	")
}

ee = optimize('scf')
oeprop('DIPOLE', 'QUADRUPOLE', 'MULLIKEN_CHARGES')
f=open( 'psi4out.xyz', 'w' )
f.write( "13  " )
f.write( str(ee) + "\n" )
f.write( MOL.save_string_xyz() )
f.close()
--------------------------------------------------------------------------

    Molecular point group: c1
  Charge       = 0
  Multiplicity = 1
  Basis Set: 6-31G*
  Basis Set:
  @DF-RHF Final Energy:  -527.53348854151045
    Total Energy =                       -527.5334885415105646
    Molecular point group: c1
  Basis Set: 6-31G*
  Basis Set:
  Basis Set: 6-31G*
  Basis Set:
  @DF-RHF Final Energy:  -527.53473518306055
    Total Energy =                       -527.5347351830605476
  Basis Set: 6-31G*
  Basis Set:
  Basis Set: 6-31G*
  Basis Set:
  @DF-RHF Final Energy:  -527.53504268382881
    Total Energy =                       -527.5350426838289195
  Basis Set: 6-31G*
  Basis Set:
  Basis Set: 6-31G*
  Basis Set:
  @DF-RHF Final Energy:  -527.53510221843453
    Total Energy =                       -527.5351022184345311
  Basis Set: 6-31G*
  Basis Set:
  Basis Set: 6-31G*
  Basis Set:
  @DF-RHF Final Energy:  -527.53510355939284
    Total Energy =                       -527.5351035593926099
  Basis Set: 6-31G*
  Basis Set:
  Charge       = 0
  Multiplicity = 1
  Basis Set: 6-31G*
  Basis Set:

    Orbital Energies (a.u.)
    -----------------------

    Doubly Occupied:

       1A    -26.344841     2A    -26.343960     3A    -26.340715
       4A    -20.608395     5A    -11.503328     6A    -11.319102
       7A    -11.299779     8A    -11.215733     9A     -1.741956
      10A     -1.640115    11A     -1.638429    12A     -1.438300
      13A     -1.084518    14A     -1.016357    15A     -0.925467
      16A     -0.836724    17A     -0.831193    18A     -0.821602
      19A     -0.791833    20A     -0.722335    21A     -0.711514
      22A     -0.696934    23A     -0.675954    24A     -0.660321
      25A     -0.654731    26A     -0.643320    27A     -0.633109
      28A     -0.585490    29A     -0.562785    30A     -0.524508
      31A     -0.514200    32A     -0.351078

  @DF-RHF Final Energy:  -527.53510441140736

   => Energetics <=

    Nuclear Repulsion Energy =            413.1835008461938514
    One-Electron Energy =               -1550.0799579753229409
    Two-Electron Energy =                 609.3613527177219567
    DFT Exchange-Correlation Energy =       0.0000000000000000
    Empirical Dispersion Energy =           0.0000000000000000
    PCM Polarization Energy =               0.0000000000000000
    EFP Energy =                            0.0000000000000000
    Total Energy =                       -527.5351044114070191
    Molecular point group: c1
  Basis Set: 6-31G*
  Basis Set:

  -Total Gradient:
     Atom            X                  Y                   Z
    ------   -----------------  -----------------  -----------------
       1        0.001928327327     0.004291076409     0.001833855293
       2       -0.003442426382    -0.008199374790    -0.003084345510
       3        0.003273576489     0.008814713397     0.002373771035
       4        0.000025557231     0.000001495692    -0.000001105921
       5       -0.000082404174    -0.000090928202    -0.000031563565
       6       -0.001717086785    -0.004850881980    -0.001107338549
       7        0.000014997815     0.000039805237     0.000018876561
       8        0.000005172004    -0.000007201102    -0.000014314095
       9        0.000003392354    -0.000002372487    -0.000002334509
      10        0.000001672714     0.000005481517     0.000000480712
      11        0.000004766511    -0.000000069836    -0.000006422232
      12       -0.000007855854    -0.000015415060     0.000019513865
      13       -0.000007689244     0.000013671204     0.000000926917

  **** Optimization is complete! (in 6 steps) ****
    Final optimized geometry and variables:
    Molecular point group: c1

    Geometry (in Angstrom), charge = 0, multiplicity = 1:

    H           -3.976672840686     0.662904232599    -0.263534095850
    C           -3.243955937638     0.101986098206     0.283540073508
    C           -2.087251005137    -0.181140206055    -0.270601354524
    H           -3.437297180078    -0.118759528089     1.316662046471
    O           -1.105383039541    -0.827849643412     0.411464035340
    H           -1.885502129232    -0.013118966440    -1.313606908293
    C            0.104033079367    -1.049381191820    -0.228930623654
    C            1.042082951361     0.125815053293    -0.070446942769
    H           -0.018895075096    -1.243243805490    -1.288569651276
    H            0.568815655754    -1.908541537169     0.231849145431
    F            2.192768839470    -0.144279356067    -0.669192645832
    F            0.550568425201     1.223616816578    -0.621163952585
    F            1.294876603638     0.390012048715     1.194740175708

  Mulliken Charges: (a.u.)
   Center  Symbol    Alpha    Beta     Spin     Total
       1     H     0.40695  0.40695  0.00000  0.18609
       2     C     3.23600  3.23600  0.00000 -0.47200
       3     C     2.89473  2.89473  0.00000  0.21055
       4     H     0.40221  0.40221  0.00000  0.19558
       5     O     4.30167  4.30167  0.00000 -0.60333
       6     H     0.40682  0.40682  0.00000  0.18636
       7     C     3.06423  3.06423  0.00000 -0.12846
       8     C     2.45559  2.45559  0.00000  1.08882
       9     H     0.40535  0.40535  0.00000  0.18930
      10     H     0.38952  0.38952  0.00000  0.22096
      11     F     4.68278  4.68278  0.00000 -0.36556
      12     F     4.67967  4.67967  0.00000 -0.35935
      13     F     4.67448  4.67448  0.00000 -0.34895

   Total alpha = 32.00000, Total beta = 32.00000, Total charge = -0.00000
