  ==> Input File <==

--------------------------------------------------------------------------
set {
	reference rhf
	basis cc-pvtz
}

set_num_threads( 4 )
memory 2 gb

molecule MOL {
0 1

H	 0.841450	 1.732412	 0.129752
O	 0.057669	 1.301365	 -0.158528
C	 0.004145	 -0.005141	 0.363049
C	 1.199168	 -0.827145	 -0.096690
C	 -1.316386	 -0.602081	 -0.083515
H	 0.012026	 0.043363	 1.450619
H	 1.216685	 -0.896776	 -1.178167
H	 2.129940	 -0.372354	 0.228035
H	 1.160783	 -1.829622	 0.314294
H	 -1.357882	 -0.655920	 -1.165207
H	 -2.140147	 0.011735	 0.257253
H	 -1.440790	 -1.601175	 0.317669

	symmetry c1
}
set optking {
	frozen_dihedral = ("
		1 2 3 4
	")
}

ee = optimize('scf')
oeprop('DIPOLE', 'QUADRUPOLE', 'MULLIKEN_CHARGES')
f=open( 'psi4out.xyz', 'w' )
f.write( "12  " )
f.write( str(ee) + "\n" )
f.write( MOL.save_string_xyz() )
f.close()
--------------------------------------------------------------------------

    Molecular point group: c1
  Charge       = 0
  Multiplicity = 1
  Basis Set: CC-PVTZ
  Basis Set:
  @DF-RHF Final Energy:  -193.19606231596657
    Total Energy =                       -193.1960623159664294
    Molecular point group: c1
  Basis Set: CC-PVTZ
  Basis Set:
  Charge       = 0
  Multiplicity = 1
  Basis Set: CC-PVTZ
  Basis Set:

    Orbital Energies (a.u.)
    -----------------------

    Doubly Occupied:

       1A    -20.544303     2A    -11.274069     3A    -11.210930
       4A    -11.205105     5A     -1.364781     6A     -1.043271
       7A     -0.940313     8A     -0.803506     9A     -0.702739
      10A     -0.627317    11A     -0.605779    12A     -0.547025
      13A     -0.535726    14A     -0.530101    15A     -0.511428
      16A     -0.468802    17A     -0.433198

  @DF-RHF Final Energy:  -193.19606241115474

   => Energetics <=

    Nuclear Repulsion Energy =            135.7428891959557404
    One-Electron Energy =                -531.1811229172499225
    Two-Electron Energy =                 202.2421713101396108
    DFT Exchange-Correlation Energy =       0.0000000000000000
    Empirical Dispersion Energy =           0.0000000000000000
    PCM Polarization Energy =               0.0000000000000000
    EFP Energy =                            0.0000000000000000
    Total Energy =                       -193.1960624111545712
    Molecular point group: c1
  Basis Set: CC-PVTZ
  Basis Set:

  -Total Gradient:
     Atom            X                  Y                   Z
    ------   -----------------  -----------------  -----------------
       1       -0.000056382336     0.000036005809     0.000092174510
       2        0.000058520171    -0.000058563733    -0.000169108155
       3        0.000034325061     0.000047502407     0.000157917943
       4       -0.000060657420     0.000002443307    -0.000079529201
       5        0.000023795163     0.000000686488    -0.000016450376
       6       -0.000000806492    -0.000017893133     0.000013616644
       7        0.000010849034    -0.000006465440    -0.000003594851
       8       -0.000008189764     0.000002965206     0.000003475751
       9       -0.000008692336    -0.000002736871     0.000002275295
      10       -0.000010091670    -0.000005312522    -0.000004359310
      11        0.000014907798     0.000004656448     0.000005383687
      12        0.000002422791    -0.000003287968    -0.000001801938

  **** Optimization is complete! (in 2 steps) ****
    Final optimized geometry and variables:
    Molecular point group: c1

    Geometry (in Angstrom), charge = 0, multiplicity = 1:

    H            0.842018829395     1.732070702000     0.128457114552
    O            0.058022696801     1.301093146016    -0.159356503682
    C            0.004208469242    -0.005011904933     0.363135107057
    C            1.199048588933    -0.827251496720    -0.096600179829
    C           -1.316105042866    -0.602216939623    -0.083708986220
    H            0.011781777635     0.043761929176     1.450684786386
    H            1.216525459067    -0.896731144100    -1.178069897463
    H            2.129852363055    -0.372543784220     0.228050306305
    H            1.160397982975    -1.829779758071     0.314319618836
    H           -1.357974601543    -0.654621796135    -1.165465433880
    H           -2.140089540768     0.010651502498     0.258210425371
    H           -1.439712953070    -1.601988384745     0.316039276975

  Mulliken Charges: (a.u.)
   Center  Symbol    Alpha    Beta     Spin     Total
       1     H     0.39608  0.39608  0.00000  0.20784
       2     O     4.20434  4.20434  0.00000 -0.40868
       3     C     2.92195  2.92195  0.00000  0.15610
       4     C     3.14529  3.14529  0.00000 -0.29059
       5     C     3.14229  3.14229  0.00000 -0.28458
       6     H     0.46659  0.46659  0.00000  0.06682
       7     H     0.45094  0.45094  0.00000  0.09813
       8     H     0.45805  0.45805  0.00000  0.08390
       9     H     0.45633  0.45633  0.00000  0.08735
      10     H     0.45271  0.45271  0.00000  0.09457
      11     H     0.44654  0.44654  0.00000  0.10692
      12     H     0.45889  0.45889  0.00000  0.08222

   Total alpha = 17.00000, Total beta = 17.00000, Total charge = -0.00000
