  ==> Input File <==

--------------------------------------------------------------------------
set {
	reference rhf
	basis 6-31G*
}

set_num_threads( 1 )
memory 2 gb

molecule MOL {
0 1

H	 3.893188	 0.355400	 -0.101367
N	 3.092854	 -0.246221	 -0.068770
C	 1.865559	 0.531981	 0.018834
H	 3.199514	 -0.826043	 0.741946
C	 0.645745	 -0.382037	 -0.029944
H	 1.841966	 1.207024	 -0.831236
H	 1.815756	 1.155410	 0.915079
C	 -0.679275	 0.379305	 0.025956
H	 0.698998	 -0.976915	 -0.937203
H	 0.693479	 -1.083846	 0.802235
C	 -1.506635	 0.058353	 1.272086
H	 -1.266162	 0.147687	 -0.861606
H	 -0.485925	 1.450422	 -0.008268
C	 -2.831628	 0.818246	 1.321762
H	 -1.702162	 -1.011092	 1.307715
H	 -0.923680	 0.291260	 2.160666
H	 -3.452565	 0.580124	 0.462663
H	 -3.395058	 0.569271	 2.215720
H	 -2.668108	 1.892328	 1.322430

	symmetry c1
}
set optking {
	frozen_dihedral = ("
		6 3 5 9,
		12 8 11 15,
		1 2 3 6
	")
}

ee = energy('scf')
oeprop('DIPOLE', 'QUADRUPOLE', 'MULLIKEN_CHARGES')
f=open( 'psi4out.xyz', 'w' )
f.write( "19  " )
f.write( str(ee) + "\n" )
f.write( MOL.save_string_xyz() )
f.close()
--------------------------------------------------------------------------

    Molecular point group: c1

    Geometry (in Angstrom), charge = 0, multiplicity = 1:

       Center              X                  Y                   Z               Mass
    ------------   -----------------  -----------------  -----------------  -----------------
           H          3.761505282414     0.157905635054    -0.532874370861     1.007825032070
           N          2.961171282414    -0.443715364946    -0.500277370861    14.003074004780
           C          1.733876282414     0.334486635054    -0.412673370861    12.000000000000
           H          3.067831282414    -1.023537364946     0.310438629139     1.007825032070
           C          0.514062282414    -0.579531364946    -0.461451370861    12.000000000000
           H          1.710283282414     1.009529635054    -1.262743370861     1.007825032070
           H          1.684073282414     0.957915635054     0.483571629139     1.007825032070
           C         -0.810957717586     0.181810635054    -0.405551370861    12.000000000000
           H          0.567315282414    -1.174409364946    -1.368710370861     1.007825032070
           H          0.561796282414    -1.281340364946     0.370727629139     1.007825032070
           C         -1.638317717586    -0.139141364946     0.840578629139    12.000000000000
           H         -1.397844717586    -0.049807364946    -1.293113370861     1.007825032070
           H         -0.617607717586     1.252927635054    -0.439775370861     1.007825032070
           C         -2.963310717586     0.620751635054     0.890254629139    12.000000000000
           H         -1.833844717586    -1.208586364946     0.876207629139     1.007825032070
           H         -1.055362717586     0.093765635054     1.729158629139     1.007825032070
           H         -3.584247717586     0.382629635054     0.031155629139     1.007825032070
           H         -3.526740717586     0.371776635054     1.784212629139     1.007825032070
           H         -2.799790717586     1.694833635054     0.890922629139     1.007825032070

  Charge       = 0
  Multiplicity = 1
  Basis Set: 6-31G*
  Basis Set:

    Orbital Energies (a.u.)
    -----------------------

    Doubly Occupied:

       1A    -15.532303     2A    -11.240258     3A    -11.214875
       4A    -11.211432     5A    -11.207853     6A    -11.207551
       7A     -1.176605     8A     -1.073448     9A     -0.997898
      10A     -0.899727    11A     -0.817419    12A     -0.787802
      13A     -0.661380    14A     -0.638352    15A     -0.618610
      16A     -0.593559    17A     -0.562448    18A     -0.550232
      19A     -0.533799    20A     -0.492569    21A     -0.487228
      22A     -0.466575    23A     -0.455583    24A     -0.446995
      25A     -0.381163

  @DF-RHF Final Energy:  -251.34652348419243

   => Energetics <=

    Nuclear Repulsion Energy =            247.0971315131452855
    One-Electron Energy =                -828.3758853690526394
    Two-Electron Energy =                 329.9322303717142404
    DFT Exchange-Correlation Energy =       0.0000000000000000
    Empirical Dispersion Energy =           0.0000000000000000
    PCM Polarization Energy =               0.0000000000000000
    EFP Energy =                            0.0000000000000000
    Total Energy =                       -251.3465234841930851

  Mulliken Charges: (a.u.)
   Center  Symbol    Alpha    Beta     Spin     Total
       1     H     0.33261  0.33261  0.00000  0.33477
       2     N     3.92209  3.92209  0.00000 -0.84418
       3     C     3.06331  3.06331  0.00000 -0.12661
       4     H     0.33526  0.33526  0.00000  0.32948
       5     C     3.15370  3.15370  0.00000 -0.30740
       6     H     0.42020  0.42020  0.00000  0.15959
       7     H     0.43471  0.43471  0.00000  0.13058
       8     C     3.15770  3.15770  0.00000 -0.31539
       9     H     0.41078  0.41078  0.00000  0.17845
      10     H     0.42495  0.42495  0.00000  0.15010
      11     C     3.15334  3.15334  0.00000 -0.30667
      12     H     0.41980  0.41980  0.00000  0.16041
      13     H     0.42241  0.42241  0.00000  0.15518
      14     C     3.23986  3.23986  0.00000 -0.47972
      15     H     0.42189  0.42189  0.00000  0.15623
      16     H     0.42411  0.42411  0.00000  0.15179
      17     H     0.42150  0.42150  0.00000  0.15701
      18     H     0.41974  0.41974  0.00000  0.16051
      19     H     0.42206  0.42206  0.00000  0.15589

   Total alpha = 25.00000, Total beta = 25.00000, Total charge = -0.00000
