  ==> Input File <==

--------------------------------------------------------------------------
set {
	reference rhf
	basis cc-pvtz
}

set_num_threads( 4 )
memory 2 gb

molecule MOL {
0 1

H	 -2.126674	 -1.202550	 0.102599
O	 -2.346257	 -0.289210	 0.080372
C	 -1.183935	 0.486039	 -0.009831
C	 0.062853	 -0.375310	 0.027457
H	 -1.178881	 1.094526	 -0.908634
H	 -1.184406	 1.155156	 0.838676
O	 1.172093	 0.457955	 -0.054438
H	 0.052476	 -1.081302	 -0.804627
H	 0.076323	 -0.955658	 0.947560
C	 2.395478	 -0.199028	 -0.000366
H	 2.505946	 -0.901710	 -0.823354
H	 3.174616	 0.545641	 -0.071768
H	 2.513730	 -0.742241	 0.934223

	symmetry c1
}
set optking {
	frozen_dihedral = ("
		1 2 3 5
	")
}

ee = optimize('scf')
oeprop('DIPOLE', 'QUADRUPOLE', 'MULLIKEN_CHARGES')
f=open( 'psi4out.xyz', 'w' )
f.write( "13  " )
f.write( str(ee) + "\n" )
f.write( MOL.save_string_xyz() )
f.close()
--------------------------------------------------------------------------

    Molecular point group: c1
  Charge       = 0
  Multiplicity = 1
  Basis Set: CC-PVTZ
  Basis Set:
  @DF-RHF Final Energy:  -268.05834974563584
    Total Energy =                       -268.0583497456358941
    Molecular point group: c1
  Basis Set: CC-PVTZ
  Basis Set:
  Basis Set: CC-PVTZ
  Basis Set:
  @DF-RHF Final Energy:  -268.05874255144442
    Total Energy =                       -268.0587425514444817
  Basis Set: CC-PVTZ
  Basis Set:
  Basis Set: CC-PVTZ
  Basis Set:
  @DF-RHF Final Energy:  -268.05883088164376
    Total Energy =                       -268.0588308816437006
  Basis Set: CC-PVTZ
  Basis Set:
  Charge       = 0
  Multiplicity = 1
  Basis Set: CC-PVTZ
  Basis Set:

    Orbital Energies (a.u.)
    -----------------------

    Doubly Occupied:

       1A    -20.561548     2A    -20.550399     3A    -11.278527
       4A    -11.271869     5A    -11.267093     6A     -1.397621
       7A     -1.367056     8A     -1.023154     9A     -0.916695
      10A     -0.852633    11A     -0.694227    12A     -0.692340
      13A     -0.672366    14A     -0.625509    15A     -0.612322
      16A     -0.580706    17A     -0.546682    18A     -0.500497
      19A     -0.473126    20A     -0.443298    21A     -0.430085

  @DF-RHF Final Energy:  -268.05883178720541

   => Energetics <=

    Nuclear Repulsion Energy =            190.6897503534833049
    One-Electron Energy =                -743.9816563336837589
    Two-Electron Energy =                 285.2330741929948772
    DFT Exchange-Correlation Energy =       0.0000000000000000
    Empirical Dispersion Energy =           0.0000000000000000
    PCM Polarization Energy =               0.0000000000000000
    EFP Energy =                            0.0000000000000000
    Total Energy =                       -268.0588317872055768
    Molecular point group: c1
  Basis Set: CC-PVTZ
  Basis Set:

  -Total Gradient:
     Atom            X                  Y                   Z
    ------   -----------------  -----------------  -----------------
       1       -0.000005157707     0.000013464096     0.000164765620
       2       -0.000057857710    -0.000011623016    -0.000193186987
       3        0.000098181644    -0.000157379157    -0.000012761913
       4       -0.000083300007     0.000008050888     0.000030138830
       5       -0.000039002015     0.000098780290     0.000068233297
       6       -0.000005916401     0.000013694391     0.000004181234
       7        0.000068864866    -0.000014084602    -0.000019801304
       8        0.000009199821     0.000006262837    -0.000005828218
       9       -0.000013813259     0.000011087882    -0.000025350193
      10       -0.000004102094     0.000055503114    -0.000007289923
      11        0.000013828614    -0.000010358584     0.000000129896
      12        0.000029584458    -0.000014199266    -0.000002876537
      13       -0.000010510212     0.000000801125    -0.000000353802

  **** Optimization is complete! (in 4 steps) ****
    Final optimized geometry and variables:
    Molecular point group: c1

    Geometry (in Angstrom), charge = 0, multiplicity = 1:

    H           -2.167079488382    -1.197344142808     0.087389654101
    O           -2.360657423883    -0.279569457310     0.048571073650
    C           -1.186847432953     0.486670470639    -0.016907364676
    C            0.062725502903    -0.368926877732     0.024016006674
    H           -1.191122316843     1.066765904301    -0.931582158759
    H           -1.170812315622     1.179165546707     0.815588759417
    O            1.168869215267     0.464773598026    -0.046978807080
    H            0.056480079753    -1.070584492767    -0.811538357274
    H            0.079500511351    -0.952675679588     0.945416054835
    C            2.393881472237    -0.192376554599    -0.015955958032
    H            2.498576941187    -0.876975836702    -0.854435778868
    H            3.170652284544     0.555232849911    -0.077364645884
    H            2.519538695836    -0.754266372528     0.906599522800

  Mulliken Charges: (a.u.)
   Center  Symbol    Alpha    Beta     Spin     Total
       1     H     0.39370  0.39370  0.00000  0.21261
       2     O     4.20384  4.20384  0.00000 -0.40768
       3     C     2.94984  2.94984  0.00000  0.10031
       4     C     2.97938  2.97938  0.00000  0.04123
       5     H     0.46696  0.46696  0.00000  0.06608
       6     H     0.46650  0.46650  0.00000  0.06700
       7     O     4.17117  4.17117  0.00000 -0.34234
       8     H     0.47531  0.47531  0.00000  0.04938
       9     H     0.47457  0.47457  0.00000  0.05087
      10     C     3.03370  3.03370  0.00000 -0.06740
      11     H     0.47029  0.47029  0.00000  0.05943
      12     H     0.44453  0.44453  0.00000  0.11095
      13     H     0.47021  0.47021  0.00000  0.05957

   Total alpha = 21.00000, Total beta = 21.00000, Total charge = -0.00000
