  ==> Input File <==

--------------------------------------------------------------------------
set {
	reference rhf
	basis cc-pvtz
}

set_num_threads( 4 )
memory 2 gb

molecule MOL {
0 1

H	 -2.847929	 0.424835	 0.063124
O	 -2.041679	 -0.058866	 0.103463
C	 -0.959304	 0.780994	 -0.094939
C	 0.354905	 0.037902	 -0.006215
H	 -0.985899	 1.279578	 -1.057596
H	 -0.969809	 1.529522	 0.682889
F	 0.412060	 -0.931028	 -0.902708
F	 1.359641	 0.856111	 -0.239961
F	 0.545380	 -0.506387	 1.171682

	symmetry c1
}
set optking {
	frozen_dihedral = ("
		1 2 3 5
	")
}

ee = optimize('scf')
oeprop('DIPOLE', 'QUADRUPOLE', 'MULLIKEN_CHARGES')
f=open( 'psi4out.xyz', 'w' )
f.write( "9  " )
f.write( str(ee) + "\n" )
f.write( MOL.save_string_xyz() )
f.close()
--------------------------------------------------------------------------

    Molecular point group: c1
  Charge       = 0
  Multiplicity = 1
  Basis Set: CC-PVTZ
  Basis Set:
  @DF-RHF Final Energy:  -450.84296685618403
    Total Energy =                       -450.8429668561841481
    Molecular point group: c1
  Basis Set: CC-PVTZ
  Basis Set:
  Basis Set: CC-PVTZ
  Basis Set:
  @DF-RHF Final Energy:  -450.84432327578440
    Total Energy =                       -450.8443232757842907
  Basis Set: CC-PVTZ
  Basis Set:
  Basis Set: CC-PVTZ
  Basis Set:
  @DF-RHF Final Energy:  -450.84460447204060
    Total Energy =                       -450.8446044720408850
  Basis Set: CC-PVTZ
  Basis Set:
  Basis Set: CC-PVTZ
  Basis Set:
  @DF-RHF Final Energy:  -450.84461498574478
    Total Energy =                       -450.8446149857448972
  Basis Set: CC-PVTZ
  Basis Set:
  Charge       = 0
  Multiplicity = 1
  Basis Set: CC-PVTZ
  Basis Set:

    Orbital Energies (a.u.)
    -----------------------

    Doubly Occupied:

       1A    -26.333693     2A    -26.330083     3A    -26.330004
       4A    -20.582682     5A    -11.490998     6A    -11.310012
       7A     -1.741992     8A     -1.638178     9A     -1.636560
      10A     -1.406553    11A     -1.050847    12A     -0.923357
      13A     -0.833362    14A     -0.831610    15A     -0.788115
      16A     -0.738060    17A     -0.714360    18A     -0.704043
      19A     -0.673319    20A     -0.657291    21A     -0.643340
      22A     -0.641862    23A     -0.600554    24A     -0.530358
      25A     -0.483738

  @DF-RHF Final Energy:  -450.84461759016983

   => Energetics <=

    Nuclear Repulsion Energy =            277.8532080240935329
    One-Electron Energy =               -1178.1657102972876601
    Two-Electron Energy =                 449.4678846830242946
    DFT Exchange-Correlation Energy =       0.0000000000000000
    Empirical Dispersion Energy =           0.0000000000000000
    PCM Polarization Energy =               0.0000000000000000
    EFP Energy =                            0.0000000000000000
    Total Energy =                       -450.8446175901698325
    Molecular point group: c1
  Basis Set: CC-PVTZ
  Basis Set:

  -Total Gradient:
     Atom            X                  Y                   Z
    ------   -----------------  -----------------  -----------------
       1       -0.000001544874    -0.000008713629    -0.000036529548
       2        0.000094955478     0.000124599194    -0.000008873301
       3       -0.000030289797    -0.000091536308     0.000044153791
       4        0.000109072079     0.000171989072     0.000110788944
       5       -0.000063880493    -0.000018747126     0.000016157136
       6       -0.000040266132     0.000006474920     0.000004971826
       7        0.000031504524    -0.000057696866    -0.000071549224
       8       -0.000075778522    -0.000118311517    -0.000026520784
       9       -0.000023772263    -0.000008057750    -0.000032598838

  **** Optimization is complete! (in 5 steps) ****
    Final optimized geometry and variables:
    Molecular point group: c1

    Geometry (in Angstrom), charge = 0, multiplicity = 1:

    H           -2.814573105132     0.362903203887     0.045607533266
    O           -1.991188574189    -0.083840869075     0.115250036711
    C           -0.943264445377     0.797826399882    -0.099989310103
    C            0.350148760870     0.022740802834    -0.021275110141
    H           -0.981641480530     1.256679540607    -1.081650292039
    H           -0.895817549713     1.577632666381     0.652043753712
    F            0.417154854676    -0.920506845587    -0.931566825630
    F            1.364262960111     0.843086977624    -0.220799456682
    F            0.518513730606    -0.539895833564     1.152301137648

  Mulliken Charges: (a.u.)
   Center  Symbol    Alpha    Beta     Spin     Total
       1     H     0.39059  0.39059  0.00000  0.21881
       2     O     4.18439  4.18439  0.00000 -0.36878
       3     C     2.98606  2.98606  0.00000  0.02788
       4     C     2.67633  2.67633  0.00000  0.64734
       5     H     0.46530  0.46530  0.00000  0.06940
       6     H     0.46535  0.46535  0.00000  0.06930
       7     F     4.60895  4.60895  0.00000 -0.21789
       8     F     4.61419  4.61419  0.00000 -0.22839
       9     F     4.60884  4.60884  0.00000 -0.21767

   Total alpha = 25.00000, Total beta = 25.00000, Total charge = -0.00000
