  ==> Input File <==

--------------------------------------------------------------------------
set {
	reference rhf
	basis cc-pvtz
}

set_num_threads( 4 )
memory 2 gb

molecule MOL {
0 1

H	 2.712750	 -0.679841	 -0.679347
N	 2.326826	 -0.066186	 0.000000
C	 0.934676	 -0.005420	 0.000000
H	 2.732937	 -0.217364	 0.894003
C	 0.226436	 -0.001077	 -1.195129
C	 0.226436	 -0.001077	 1.195129
H	 0.759091	 -0.011439	 -2.128123
C	 -1.153391	 0.009141	 -1.189028
H	 0.759091	 -0.011439	 2.128123
C	 -1.153391	 0.009141	 1.189028
H	 -1.680905	 0.012964	 -2.124348
C	 -1.857876	 0.014675	 0.000000
H	 -1.680905	 0.012964	 2.124348
H	 -2.930222	 0.022904	 0.000000

	symmetry c1
}
set optking {
	frozen_dihedral = ("
		1 2 3 5
	")
}

ee = optimize('scf')
oeprop('DIPOLE', 'QUADRUPOLE', 'MULLIKEN_CHARGES')
f=open( 'psi4out.xyz', 'w' )
f.write( "14  " )
f.write( str(ee) + "\n" )
f.write( MOL.save_string_xyz() )
f.close()
--------------------------------------------------------------------------

    Molecular point group: c1
  Charge       = 0
  Multiplicity = 1
  Basis Set: CC-PVTZ
  Basis Set:
  @DF-RHF Final Energy:  -285.83259779865625
    Total Energy =                       -285.8325977986561384
    Molecular point group: c1
  Basis Set: CC-PVTZ
  Basis Set:
  Basis Set: CC-PVTZ
  Basis Set:
  @DF-RHF Final Energy:  -285.83321462032472
    Total Energy =                       -285.8332146203245543
  Basis Set: CC-PVTZ
  Basis Set:
  Basis Set: CC-PVTZ
  Basis Set:
  @DF-RHF Final Energy:  -285.83336029004749
    Total Energy =                       -285.8333602900472670
  Basis Set: CC-PVTZ
  Basis Set:
  Basis Set: CC-PVTZ
  Basis Set:
  @DF-RHF Final Energy:  -285.83337090503306
    Total Energy =                       -285.8333709050332914
  Basis Set: CC-PVTZ
  Basis Set:
  Charge       = 0
  Multiplicity = 1
  Basis Set: CC-PVTZ
  Basis Set:

    Orbital Energies (a.u.)
    -----------------------

    Doubly Occupied:

       1A    -15.555847     2A    -11.270234     3A    -11.227500
       4A    -11.227322     5A    -11.216680     6A    -11.215903
       7A    -11.212210     8A     -1.226286     9A     -1.131071
      10A     -1.013906    11A     -0.988380    12A     -0.832987
      13A     -0.813390    14A     -0.707874    15A     -0.685524
      16A     -0.654368    17A     -0.600348    18A     -0.594578
      19A     -0.582232    20A     -0.533368    21A     -0.506435
      22A     -0.487956    23A     -0.448851    24A     -0.336498
      25A     -0.296921

  @DF-RHF Final Energy:  -285.83337189043220

   => Energetics <=

    Nuclear Repulsion Energy =            273.6804852374940538
    One-Electron Energy =                -928.2943765567482615
    Two-Electron Energy =                 368.7805194288220605
    DFT Exchange-Correlation Energy =       0.0000000000000000
    Empirical Dispersion Energy =           0.0000000000000000
    PCM Polarization Energy =               0.0000000000000000
    EFP Energy =                            0.0000000000000000
    Total Energy =                       -285.8333718904321472
    Molecular point group: c1
  Basis Set: CC-PVTZ
  Basis Set:

  -Total Gradient:
     Atom            X                  Y                   Z
    ------   -----------------  -----------------  -----------------
       1        0.000073562541    -0.001354470643     0.001026714224
       2       -0.000149015410     0.002406563414    -0.001339113604
       3        0.000108067597    -0.002317574766     0.000216177266
       4        0.000039890985    -0.000032819581     0.000033275226
       5       -0.000042325397     0.001287068522     0.000040496998
       6       -0.000050362367     0.000044892339     0.000009360032
       7        0.000003671037     0.000009262776    -0.000005461488
       8       -0.000003291424    -0.000059600070     0.000022473834
       9       -0.000000026068     0.000014423248     0.000000652547
      10        0.000023147723    -0.000106991361     0.000010624942
      11        0.000006347941     0.000007932223    -0.000003078796
      12       -0.000006748456     0.000070540109    -0.000022944179
      13       -0.000006590446     0.000015290485     0.000001154976
      14        0.000003671747     0.000015483305     0.000009668022

  **** Optimization is complete! (in 5 steps) ****
    Final optimized geometry and variables:
    Molecular point group: c1

    Geometry (in Angstrom), charge = 0, multiplicity = 1:

    H            2.737871237243    -0.569553267048    -0.717652521177
    N            2.330951600881    -0.008727560440    -0.003757277580
    C            0.933404853101    -0.030673687551     0.003523920169
    H            2.736566321116    -0.231164686608     0.876559041011
    C            0.229101124277    -0.011242094869    -1.194406495391
    C            0.222903757300    -0.001230785324     1.195174167667
    H            0.766932081196    -0.013659118886    -2.124206254336
    C           -1.149427736743     0.019936448589    -1.192942007377
    H            0.751809356446    -0.008393994589     2.130457051391
    C           -1.157728943662     0.040236566416     1.185617933168
    H           -1.674506717614     0.030307397460    -2.129541466975
    C           -1.857230737841     0.047955341590    -0.004876975962
    H           -1.687673132868     0.062936051910     2.119258027052
    H           -2.929245952642     0.077064372098    -0.008492388077

  Mulliken Charges: (a.u.)
   Center  Symbol    Alpha    Beta     Spin     Total
       1     H     0.42126  0.42126  0.00000  0.15748
       2     N     3.66844  3.66844  0.00000 -0.33689
       3     C     2.88994  2.88994  0.00000  0.22012
       4     H     0.42562  0.42562  0.00000  0.14877
       5     C     3.11540  3.11540  0.00000 -0.23080
       6     C     3.11784  3.11784  0.00000 -0.23568
       7     H     0.43137  0.43137  0.00000  0.13726
       8     C     3.05865  3.05865  0.00000 -0.11730
       9     H     0.43472  0.43472  0.00000  0.13055
      10     C     3.05908  3.05908  0.00000 -0.11817
      11     H     0.42458  0.42458  0.00000  0.15085
      12     C     3.10325  3.10325  0.00000 -0.20649
      13     H     0.42465  0.42465  0.00000  0.15069
      14     H     0.42519  0.42519  0.00000  0.14962

   Total alpha = 25.00000, Total beta = 25.00000, Total charge = -0.00000
