                              Psi4 1.0.54 Driver

  ==> Input File <==

--------------------------------------------------------------------------
set {
	reference rhf
	basis cc-pvtz
}

set_num_threads( 4 )
memory 2 gb

molecule MOL {
0 1

O	 -0.694481	 1.313155	 -0.204815
C	 -0.862519	 0.151932	 -0.046791
C	 -2.171428	 -0.477048	 0.339095
O	 0.085519	 -0.757083	 -0.192238
H	 -2.467997	 -1.191667	 -0.417688
H	 -2.923379	 0.287970	 0.444097
H	 -2.053854	 -1.015120	 1.270901
C	 1.392036	 -0.330828	 -0.560749
C	 2.384871	 -1.474030	 -0.525147
H	 1.700514	 0.472518	 0.089860
H	 1.282031	 0.051894	 -1.564329
H	 3.350692	 -1.127268	 -0.874998
H	 2.503638	 -1.851624	 0.481183
H	 2.060154	 -2.282998	 -1.168361

	symmetry c1
}
set optking {
	frozen_dihedral = ("
		10 8 4 2
	")
}

ee,wfn = optimize('scf', return_wfn=True)
oeprop( wfn, 'DIPOLE', 'QUADRUPOLE', 'MULLIKEN_CHARGES')
f=open( 'psi4out.xyz', 'w' )
f.write( "14  " )
f.write( str(ee) + "\n" )
f.write( MOL.save_string_xyz() )
f.close()
--------------------------------------------------------------------------

    Molecular point group: c1
  Charge       = 0
  Multiplicity = 1
  Basis Set: CC-PVTZ
  Basis Set:
  @DF-RHF Final Energy:  -305.99061598108028
    Total Energy =                       -305.9906159810803956
    Molecular point group: c1
  Basis Set: CC-PVTZ
  Basis Set:
  Basis Set: CC-PVTZ
  Basis Set:
  @DF-RHF Final Energy:  -305.99179639742636
    Total Energy =                       -305.9917963974263557
  Basis Set: CC-PVTZ
  Basis Set:
  Basis Set: CC-PVTZ
  Basis Set:
  @DF-RHF Final Energy:  -305.99204811556217
    Total Energy =                       -305.9920481155621701
  Basis Set: CC-PVTZ
  Basis Set:
  Basis Set: CC-PVTZ
  Basis Set:
  @DF-RHF Final Energy:  -305.99184679499507
    Total Energy =                       -305.9918467949951832
  Basis Set: CC-PVTZ
  Basis Set:
  Basis Set: CC-PVTZ
  Basis Set:
  @DF-RHF Final Energy:  -305.99206081109139
    Total Energy =                       -305.9920608110915623
  Basis Set: CC-PVTZ
  Basis Set:
  Charge       = 0
  Multiplicity = 1
  Basis Set: CC-PVTZ
  Basis Set:

    Orbital Energies (a.u.)
    -----------------------

    Doubly Occupied:

       1A    -20.594959     2A    -20.533084     3A    -11.367095
       4A    -11.283262     5A    -11.231776     6A    -11.221063
       7A     -1.471548     8A     -1.365728     9A     -1.059017
      10A     -1.001178    11A     -0.872231    12A     -0.782402
      13A     -0.693365    14A     -0.690546    15A     -0.669666
      16A     -0.612174    17A     -0.581622    18A     -0.565221
      19A     -0.553985    20A     -0.541710    21A     -0.509952
      22A     -0.504676    23A     -0.456964    24A     -0.442518

  @DF-RHF Final Energy:  -305.99206131206978

   => Energetics <=

    Nuclear Repulsion Energy =            246.0909621627865249
    One-Electron Energy =                -904.9545587564648486
    Two-Electron Energy =                 352.8715352816086579
    DFT Exchange-Correlation Energy =       0.0000000000000000
    Empirical Dispersion Energy =           0.0000000000000000
    PCM Polarization Energy =               0.0000000000000000
    EFP Energy =                            0.0000000000000000
    Total Energy =                       -305.9920613120696089
    Molecular point group: c1
  Basis Set: CC-PVTZ
  Basis Set:

  -Total Gradient:
     Atom            X                  Y                   Z
    ------   -----------------  -----------------  -----------------
       1        0.000021999689     0.000056762897     0.000005132700
       2        0.000194071006     0.000009187961     0.000659257914
       3        0.000005466735    -0.000018861632     0.000010774159
       4       -0.000355629875     0.000089469567    -0.001111252248
       5       -0.000010721559    -0.000012440746    -0.000000962628
       6        0.000034805371     0.000002916213    -0.000009652585
       7       -0.000010145896    -0.000010523118     0.000007419679
       8        0.000496703092    -0.000655571346     0.000918277396
       9       -0.000019740307    -0.000008382654     0.000022867054
      10       -0.000350079491     0.000544789566    -0.000506949646
      11       -0.000014098072    -0.000010689059     0.000014639673
      12        0.000004022398     0.000007261918    -0.000001475629
      13        0.000005449524    -0.000003653196    -0.000010271935
      14       -0.000002102617     0.000009733629     0.000002196096

  **** Optimization is complete! (in 6 steps) ****
    Final optimized geometry and variables:
    Molecular point group: c1

    Geometry (in Angstrom), charge = 0, multiplicity = 1:

    O           -0.730576815175     1.566511681412    -0.008796680032
    C           -0.886918050934     0.403733134949     0.147822572658
    C           -2.184088578059    -0.240619667710     0.547055624297
    O            0.071684663732    -0.491331475226    -0.011306814056
    H           -2.482618897624    -0.954917024669    -0.209358158463
    H           -2.942478785828     0.516242611057     0.663633248002
    H           -2.050508312208    -0.781352735271     1.475118316842
    C            1.364187368266    -0.024352356692    -0.373517970828
    C            2.317992872314    -1.193074524506    -0.295756865417
    H            1.651799910887     0.775571933228     0.292576287165
    H            1.319588168793     0.383409546054    -1.374435389088
    H            3.313676504271    -0.871297117935    -0.577295946773
    H            2.358303160988    -1.591672319626     0.710155530681
    H            2.012195351219    -1.986345805139    -0.966191678136

  Mulliken Charges: (a.u.)
   Center  Symbol    Alpha    Beta     Spin     Total
       1     O     4.19731  4.19731  0.00000 -0.39462
       2     C     2.80746  2.80746  0.00000  0.38508
       3     C     3.13795  3.13795  0.00000 -0.27591
       4     O     4.15228  4.15228  0.00000 -0.30455
       5     H     0.44570  0.44570  0.00000  0.10861
       6     H     0.43803  0.43803  0.00000  0.12395
       7     H     0.44603  0.44603  0.00000  0.10794
       8     C     2.97809  2.97809  0.00000  0.04383
       9     C     3.13278  3.13278  0.00000 -0.26556
      10     H     0.45183  0.45183  0.00000  0.09633
      11     H     0.45527  0.45527  0.00000  0.08945
      12     H     0.45438  0.45438  0.00000  0.09124
      13     H     0.45155  0.45155  0.00000  0.09691
      14     H     0.45135  0.45135  0.00000  0.09730

   Total alpha = 24.00000, Total beta = 24.00000, Total charge = -0.00000

*** Psi4 exiting successfully. Buy a developer a beer!
