                              Psi4 1.0.54 Driver

  ==> Input File <==

--------------------------------------------------------------------------
set {
	reference rhf
	basis cc-pvtz
}

set_num_threads( 4 )
memory 2 gb

molecule MOL {
0 1

H	 2.773085	 -0.980083	 -1.656564
C	 2.054929	 -1.179912	 -0.871963
C	 1.322304	 0.099773	 -0.484271
H	 1.366057	 -1.933383	 -1.236800
H	 2.592841	 -1.597250	 -0.028268
C	 0.308557	 -0.162619	 0.622645
H	 0.805711	 0.508723	 -1.343704
H	 2.029590	 0.845526	 -0.142895
N	 -1.069352	 -0.004081	 0.085342
H	 0.371632	 -1.172932	 0.991288
H	 0.400391	 0.548875	 1.426218
O	 -1.584901	 -0.965470	 -0.377818
O	 -1.548033	 1.079343	 0.130056

	symmetry c1
}
set optking {
	frozen_dihedral = ("
		7 3 6 9
	")
}

ee,wfn = optimize('scf', return_wfn=True)
oeprop( wfn, 'DIPOLE', 'QUADRUPOLE', 'MULLIKEN_CHARGES')
f=open( 'psi4out.xyz', 'w' )
f.write( "13  " )
f.write( str(ee) + "\n" )
f.write( MOL.save_string_xyz() )
f.close()
--------------------------------------------------------------------------

    Molecular point group: c1
  Charge       = 0
  Multiplicity = 1
  Basis Set: CC-PVTZ
  Basis Set:
  @DF-RHF Final Energy:  -321.85582195455072
    Total Energy =                       -321.8558219545509473
    Molecular point group: c1
  Basis Set: CC-PVTZ
  Basis Set:
  Basis Set: CC-PVTZ
  Basis Set:
  @DF-RHF Final Energy:  -321.85361574370086
    Total Energy =                       -321.8536157437010274
  Basis Set: CC-PVTZ
  Basis Set:
  Basis Set: CC-PVTZ
  Basis Set:
  @DF-RHF Final Energy:  -321.84569004128650
    Total Energy =                       -321.8456900412866162
  Basis Set: CC-PVTZ
  Basis Set:
  Basis Set: CC-PVTZ
  Basis Set:
  @DF-RHF Final Energy:  -321.85600765386380
    Total Energy =                       -321.8560076538639123
  Basis Set: CC-PVTZ
  Basis Set:
  @DF-RHF Final Energy:  -321.85621298903800
    Total Energy =                       -321.8562129890382266
  @DF-RHF Final Energy:  -321.85630828567992
    Total Energy =                       -321.8563082856796314
  @DF-RHF Final Energy:  -321.85632007376671
    Total Energy =                       -321.8563200737670513
  Basis Set: CC-PVTZ
  Basis Set:
  @DF-RHF Final Energy:  -321.85632821455448
    Total Energy =                       -321.8563282145544804
  Basis Set: CC-PVTZ
  Basis Set:
  Basis Set: CC-PVTZ
  Basis Set:
  @DF-RHF Final Energy:  -321.85633442832784
    Total Energy =                       -321.8563344283277843
  Basis Set: CC-PVTZ
  Basis Set:
  Basis Set: CC-PVTZ
  Basis Set:
  @DF-RHF Final Energy:  -321.85633645729632
    Total Energy =                       -321.8563364572963792
  Basis Set: CC-PVTZ
  Basis Set:
  Charge       = 0
  Multiplicity = 1
  Basis Set: CC-PVTZ
  Basis Set:

    Orbital Energies (a.u.)
    -----------------------

    Doubly Occupied:

       1A    -20.592457     2A    -20.589000     3A    -15.837187
       4A    -11.297573     5A    -11.255150     6A    -11.231057
       7A     -1.636293     8A     -1.420501     9A     -1.131141
      10A     -1.025400    11A     -0.885343    12A     -0.833247
      13A     -0.763534    14A     -0.737670    15A     -0.727025
      16A     -0.656124    17A     -0.619278    18A     -0.590820
      19A     -0.535620    20A     -0.520006    21A     -0.515780
      22A     -0.483924    23A     -0.474263    24A     -0.454493

  @DF-RHF Final Energy:  -321.85633672699942

   => Energetics <=

    Nuclear Repulsion Energy =            249.7842127156629601
    One-Electron Energy =                -933.6553309534441496
    Two-Electron Energy =                 362.0147815107818587
    DFT Exchange-Correlation Energy =       0.0000000000000000
    Empirical Dispersion Energy =           0.0000000000000000
    PCM Polarization Energy =               0.0000000000000000
    EFP Energy =                            0.0000000000000000
    Total Energy =                       -321.8563367269993023
    Molecular point group: c1
  Basis Set: CC-PVTZ
  Basis Set:

  -Total Gradient:
     Atom            X                  Y                   Z
    ------   -----------------  -----------------  -----------------
       1        0.000005005416    -0.000001942796     0.000004474498
       2        0.000000081468    -0.000004400308     0.000004222106
       3        0.000515706865     0.002468032935     0.000784264626
       4        0.000000397729    -0.000000653924    -0.000015696808
       5       -0.000002718195    -0.000005930668     0.000006765041
       6       -0.000250435046    -0.002092474400    -0.000499531227
       7       -0.000390906762    -0.001655189776    -0.000571588509
       8       -0.000004087017     0.000007089308    -0.000001720645
       9        0.000193546114     0.001268001775     0.000291762830
      10        0.000003796158     0.000001011438     0.000002907972
      11       -0.000006443991     0.000000755909     0.000001087251
      12       -0.000029711226    -0.000073796617    -0.000036709851
      13       -0.000034231511     0.000089497127     0.000029762715

  **** Optimization is complete! (in 11 steps) ****
    Final optimized geometry and variables:
    Molecular point group: c1

    Geometry (in Angstrom), charge = 0, multiplicity = 1:

    H            2.818741206642    -0.981570004769    -1.587325768655
    C            2.114210655777    -1.138200337593    -0.780014132027
    C            1.453289919651     0.177767262500    -0.383202734914
    H            1.374420982623    -1.856008504463    -1.112077450924
    H            2.655845023567    -1.571638518469     0.053720077053
    C            0.440820048360     0.018781892305     0.766120836157
    H            0.949399874007     0.595031717336    -1.245375687183
    H            2.204437409840     0.894899613019    -0.080248311297
    N           -0.940090547269     0.254295784297     0.267180913694
    H            0.438575924071    -0.981144101255     1.167490006265
    H            0.591169949992     0.739182134881     1.550065135217
    O           -1.441997438792    -0.620273562435    -0.358385875737
    O           -1.437330886521     1.303295403737     0.501391385039

  Mulliken Charges: (a.u.)
   Center  Symbol    Alpha    Beta     Spin     Total
       1     H     0.44583  0.44583  0.00000  0.10834
       2     C     3.14835  3.14835  0.00000 -0.29670
       3     C     3.08982  3.08982  0.00000 -0.17965
       4     H     0.44339  0.44339  0.00000  0.11323
       5     H     0.45471  0.45471  0.00000  0.09059
       6     C     3.04550  3.04550  0.00000 -0.09100
       7     H     0.44080  0.44080  0.00000  0.11839
       8     H     0.44278  0.44278  0.00000  0.11444
       9     N     3.27857  3.27857  0.00000  0.44286
      10     H     0.43648  0.43648  0.00000  0.12704
      11     H     0.42847  0.42847  0.00000  0.14306
      12     O     4.17593  4.17593  0.00000 -0.35186
      13     O     4.16937  4.16937  0.00000 -0.33873

   Total alpha = 24.00000, Total beta = 24.00000, Total charge =  0.00000

*** Psi4 exiting successfully. Buy a developer a beer!
