                              Psi4 1.0.54 Driver

  ==> Input File <==

--------------------------------------------------------------------------
set {
	reference rhf
	basis cc-pvtz
}

set_num_threads( 4 )
memory 2 gb

molecule MOL {
0 1

H	 2.437533	 -0.908288	 0.145466
O	 2.063695	 -0.083403	 -0.105237
C	 0.742924	 0.005675	 0.350750
H	 0.731380	 0.039219	 1.440080
C	 -0.064076	 -1.193495	 -0.124425
C	 -0.047832	 1.190568	 -0.194462
H	 0.194729	 -1.376165	 -1.161308
H	 0.163013	 -2.094508	 0.429933
C	 -1.533112	 -0.752002	 0.006102
H	 0.148003	 1.266545	 -1.259275
H	 0.226235	 2.136493	 0.259722
C	 -1.506634	 0.799189	 0.067162
H	 -2.124360	 -1.110499	 -0.826089
H	 -1.983103	 -1.158030	 0.903403
H	 -2.183808	 1.252169	 -0.644677
H	 -1.813926	 1.138698	 1.049457

	symmetry c1
}
set optking {
	frozen_dihedral = ("
		1 2 3 6
	")
}

ee,wfn = optimize('scf', return_wfn=True)
oeprop( wfn, 'DIPOLE', 'QUADRUPOLE', 'MULLIKEN_CHARGES')
f=open( 'psi4out.xyz', 'w' )
f.write( "16  " )
f.write( str(ee) + "\n" )
f.write( MOL.save_string_xyz() )
f.close()
--------------------------------------------------------------------------

    Molecular point group: c1
  Charge       = 0
  Multiplicity = 1
  Basis Set: CC-PVTZ
  Basis Set:
  @DF-RHF Final Energy:  -270.11500837753522
    Total Energy =                       -270.1150083775351050
    Molecular point group: c1
  Basis Set: CC-PVTZ
  Basis Set:
  Basis Set: CC-PVTZ
  Basis Set:
  @DF-RHF Final Energy:  -270.11651907423692
    Total Energy =                       -270.1165190742368054
  Basis Set: CC-PVTZ
  Basis Set:
  Basis Set: CC-PVTZ
  Basis Set:
  @DF-RHF Final Energy:  -270.11668906258399
    Total Energy =                       -270.1166890625839869
  Basis Set: CC-PVTZ
  Basis Set:
  Basis Set: CC-PVTZ
  Basis Set:
  @DF-RHF Final Energy:  -270.11669482898839
    Total Energy =                       -270.1166948289883294
  Basis Set: CC-PVTZ
  Basis Set:
  @DF-RHF Final Energy:  -270.11669701175254
    Total Energy =                       -270.1166970117526489
  @DF-RHF Final Energy:  -270.11670225017735
    Total Energy =                       -270.1167022501774682
  @DF-RHF Final Energy:  -270.11670806836196
    Total Energy =                       -270.1167080683619588
  Basis Set: CC-PVTZ
  Basis Set:
  @DF-RHF Final Energy:  -270.11671350658958
    Total Energy =                       -270.1167135065894627
  Basis Set: CC-PVTZ
  Basis Set:
  Basis Set: CC-PVTZ
  Basis Set:
  @DF-RHF Final Energy:  -270.11671862837147
    Total Energy =                       -270.1167186283715296
  Basis Set: CC-PVTZ
  Basis Set:
  Basis Set: CC-PVTZ
  Basis Set:
  @DF-RHF Final Energy:  -270.11671987711190
    Total Energy =                       -270.1167198771121321
  Basis Set: CC-PVTZ
  Basis Set:
  Charge       = 0
  Multiplicity = 1
  Basis Set: CC-PVTZ
  Basis Set:

    Orbital Energies (a.u.)
    -----------------------

    Doubly Occupied:

       1A    -20.545577     2A    -11.267133     3A    -11.215771
       4A    -11.213671     5A    -11.212020     6A    -11.207102
       7A     -1.365697     8A     -1.115455     9A     -0.967484
      10A     -0.949389    11A     -0.791818    12A     -0.778439
      13A     -0.701581    14A     -0.660422    15A     -0.618730
      16A     -0.593482    17A     -0.569858    18A     -0.526876
      19A     -0.504980    20A     -0.482481    21A     -0.471568
      22A     -0.456837    23A     -0.448141    24A     -0.424613

  @DF-RHF Final Energy:  -270.11671996540429

   => Energetics <=

    Nuclear Repulsion Energy =            255.6626614628843299
    One-Electron Energy =                -873.3805149548287545
    Two-Electron Energy =                 347.6011335265401385
    DFT Exchange-Correlation Energy =       0.0000000000000000
    Empirical Dispersion Energy =           0.0000000000000000
    PCM Polarization Energy =               0.0000000000000000
    EFP Energy =                            0.0000000000000000
    Total Energy =                       -270.1167199654042861
    Molecular point group: c1
  Basis Set: CC-PVTZ
  Basis Set:

  -Total Gradient:
     Atom            X                  Y                   Z
    ------   -----------------  -----------------  -----------------
       1       -0.000270919900    -0.000440672813    -0.000902621122
       2        0.000288043875     0.000403535812     0.000917563736
       3        0.000154579847     0.000415568447     0.000476075365
       4       -0.000005112680    -0.000002690851    -0.000003412277
       5       -0.000026360340     0.000004073367     0.000020277156
       6       -0.000143304401    -0.000374480927    -0.000498843675
       7        0.000002008469     0.000003904089     0.000004904615
       8        0.000002574086    -0.000002384991    -0.000000896478
       9        0.000008328178    -0.000010767235    -0.000013540551
      10       -0.000000693234    -0.000000677667     0.000004641918
      11       -0.000001843652    -0.000002344238    -0.000003668119
      12       -0.000013121566     0.000004748047    -0.000000642649
      13       -0.000001262887     0.000003593670     0.000003132256
      14        0.000002820495     0.000004912068    -0.000006592964
      15        0.000000316132    -0.000002223633     0.000007363735
      16        0.000003947579    -0.000004093144    -0.000003740946

  **** Optimization is complete! (in 11 steps) ****
    Final optimized geometry and variables:
    Molecular point group: c1

    Geometry (in Angstrom), charge = 0, multiplicity = 1:

    H            2.510954551843    -0.724649571859     0.199346689898
    O            2.068565084471     0.064998103764    -0.053662510440
    C            0.734201776346     0.025847526664     0.368117328833
    H            0.690780584280     0.094741233130     1.455075205357
    C           -0.048816555697    -1.201800714289    -0.087477806525
    C           -0.053994554747     1.174751178946    -0.241510812707
    H            0.185168598994    -1.383373253981    -1.131716724843
    H            0.200217897179    -2.099964343498     0.467232266804
    C           -1.516185708149    -0.783419756477     0.077854108270
    H            0.208287585028     1.236670174852    -1.291818275595
    H            0.179986584679     2.130095164110     0.209633287311
    C           -1.524680697990     0.763100655074    -0.065257774091
    H           -2.156257885440    -1.267021218462    -0.647991602715
    H           -1.882347109325    -1.070826816351     1.056123197719
    H           -2.129386272805     1.089186791862    -0.900987369540
    H           -1.947818689167     1.219822936331     0.820885073258

  Mulliken Charges: (a.u.)
   Center  Symbol    Alpha    Beta     Spin     Total
       1     H     0.39473  0.39473  0.00000  0.21055
       2     O     4.20107  4.20107  0.00000 -0.40214
       3     C     2.92248  2.92248  0.00000  0.15504
       4     H     0.46552  0.46552  0.00000  0.06896
       5     C     3.10843  3.10843  0.00000 -0.21686
       6     C     3.09954  3.09954  0.00000 -0.19909
       7     H     0.45276  0.45276  0.00000  0.09448
       8     H     0.44822  0.44822  0.00000  0.10356
       9     C     3.11390  3.11390  0.00000 -0.22779
      10     H     0.45218  0.45218  0.00000  0.09564
      11     H     0.44321  0.44321  0.00000  0.11358
      12     C     3.11096  3.11096  0.00000 -0.22192
      13     H     0.44366  0.44366  0.00000  0.11268
      14     H     0.44954  0.44954  0.00000  0.10093
      15     H     0.44478  0.44478  0.00000  0.11045
      16     H     0.44903  0.44903  0.00000  0.10194

   Total alpha = 24.00000, Total beta = 24.00000, Total charge =  0.00000

*** Psi4 exiting successfully. Buy a developer a beer!
