  ==> Input File <==

--------------------------------------------------------------------------
set {
	reference rhf
	basis cc-pvtz
}

set_num_threads( 4 )
memory 2 gb

molecule MOL {
0 1

H	 1.061670	 0.067625	 1.838272
C	 0.604076	 -0.484978	 1.045953
C	 0.600274	 -1.865078	 1.039346
C	 0.000000	 0.179985	 0.000046
H	 1.064751	 -2.400838	 1.843546
C	 -0.000003	 -2.552036	 -0.000009
N	 0.000000	 1.644631	 0.000076
C	 -0.604074	 -0.484935	 -1.045889
H	 -0.000000	 -3.625035	 -0.000032
C	 -0.600276	 -1.865035	 -1.039337
O	 1.050559	 2.194174	 -0.000073
O	 -1.050559	 2.194174	 -0.000074
H	 -1.061677	 0.067700	 -1.838181
H	 -1.064749	 -2.400763	 -1.843561

	symmetry c1
}
set optking {
	frozen_dihedral = ("
		2 4 7 11
	")
}

ee = optimize('scf')
oeprop('DIPOLE', 'QUADRUPOLE', 'MULLIKEN_CHARGES')
f=open( 'psi4out.xyz', 'w' )
f.write( "14  " )
f.write( str(ee) + "\n" )
f.write( MOL.save_string_xyz() )
f.close()
--------------------------------------------------------------------------

    Molecular point group: c1
  Charge       = 0
  Multiplicity = 1
  Basis Set: CC-PVTZ
  Basis Set:
  @DF-RHF Final Energy:  -434.32292938252306
    Total Energy =                       -434.3229293825235118
    Molecular point group: c1
  Basis Set: CC-PVTZ
  Basis Set:
  Basis Set: CC-PVTZ
  Basis Set:
  @DF-RHF Final Energy:  -434.31688486285231
    Total Energy =                       -434.3168848628522483
  Basis Set: CC-PVTZ
  Basis Set:
  Basis Set: CC-PVTZ
  Basis Set:
  @DF-RHF Final Energy:  -434.32316600390971
    Total Energy =                       -434.3231660039093640
  Basis Set: CC-PVTZ
  Basis Set:
  Basis Set: CC-PVTZ
  Basis Set:
  @DF-RHF Final Energy:  -434.32340916773967
    Total Energy =                       -434.3234091677397828
  Basis Set: CC-PVTZ
  Basis Set:
  Basis Set: CC-PVTZ
  Basis Set:
  @DF-RHF Final Energy:  -434.32341085849663
    Total Energy =                       -434.3234108584967998
  Basis Set: CC-PVTZ
  Basis Set:
  Charge       = 0
  Multiplicity = 1
  Basis Set: CC-PVTZ
  Basis Set:

    Orbital Energies (a.u.)
    -----------------------

    Doubly Occupied:

       1A    -20.596484     2A    -20.596425     3A    -15.847792
       4A    -11.306363     5A    -11.267868     6A    -11.267603
       7A    -11.261147     8A    -11.260071     9A    -11.259297
      10A     -1.643990    11A     -1.427062    12A     -1.206348
      13A     -1.096846    14A     -1.056683    15A     -0.959410
      16A     -0.873361    17A     -0.830669    18A     -0.786599
      19A     -0.740481    20A     -0.737123    21A     -0.716993
      22A     -0.653990    23A     -0.650946    24A     -0.626084
      25A     -0.560505    26A     -0.550027    27A     -0.533644
      28A     -0.498614    29A     -0.487796    30A     -0.457870
      31A     -0.373107    32A     -0.370441

  @DF-RHF Final Energy:  -434.32341133829010

   => Energetics <=

    Nuclear Repulsion Energy =            417.7026791194322755
    One-Electron Energy =               -1419.0489017014256206
    Two-Electron Energy =                 567.0228112437033587
    DFT Exchange-Correlation Energy =       0.0000000000000000
    Empirical Dispersion Energy =           0.0000000000000000
    PCM Polarization Energy =               0.0000000000000000
    EFP Energy =                            0.0000000000000000
    Total Energy =                       -434.3234113382899295
    Molecular point group: c1
  Basis Set: CC-PVTZ
  Basis Set:

  -Total Gradient:
     Atom            X                  Y                   Z
    ------   -----------------  -----------------  -----------------
       1        0.000005492004     0.000009825758     0.000010659869
       2       -0.004086785708    -0.000145614537     0.002217405538
       3       -0.000032184093     0.000038954016     0.000026695856
       4        0.005873491757     0.000188786496    -0.005259019261
       5        0.000004156705    -0.000000350326    -0.000004894775
       6       -0.000011567650    -0.000001421320    -0.000034748007
       7       -0.001992130630    -0.000177069972     0.008477694218
       8        0.000062698666     0.000036511648     0.000030096655
       9       -0.000000242526    -0.000000986847     0.000003933321
      10        0.000050421238    -0.000020778085     0.000010073392
      11        0.000158258654     0.000068682233    -0.005456252295
      12       -0.000024120858    -0.000010630637    -0.000008209651
      13       -0.000003568135     0.000006940991    -0.000016273367
      14       -0.000003919426     0.000007150571     0.000002838505

  **** Optimization is complete! (in 6 steps) ****
    Final optimized geometry and variables:
    Molecular point group: c1

    Geometry (in Angstrom), charge = 0, multiplicity = 1:

    H            1.090279188490     0.071601209684     1.828353314543
    C            0.619102100753    -0.480356278064     1.040198571829
    C            0.596013014218    -1.861375348551     1.042121371667
    C            0.027365605810     0.178980053135    -0.010950220913
    H            1.045474951228    -2.398668607349     1.853926501562
    C           -0.002651216518    -2.546313274577     0.001173284120
    N           -0.002324220532     1.641593501377     0.009544756982
    C           -0.604772357050    -0.475793160402    -1.041673980958
    H           -0.010560774838    -3.618990220850     0.003260487252
    C           -0.597020533135    -1.856600551966    -1.039703322984
    O            1.040451865286     2.203948220710     0.042842003630
    O           -1.065385280989     2.161966905355    -0.045877449820
    H           -1.085356984461     0.079255921639    -1.821626761453
    H           -1.064726892852    -2.390873964354    -1.843168541088

  Mulliken Charges: (a.u.)
   Center  Symbol    Alpha    Beta     Spin     Total
       1     H     0.41039  0.41039  0.00000  0.17922
       2     C     3.08766  3.08766  0.00000 -0.17531
       3     C     3.06679  3.06679  0.00000 -0.13358
       4     C     2.93016  2.93016  0.00000  0.13969
       5     H     0.41732  0.41732  0.00000  0.16536
       6     C     3.07311  3.07311  0.00000 -0.14622
       7     N     3.28363  3.28363  0.00000  0.43274
       8     C     3.08633  3.08633  0.00000 -0.17267
       9     H     0.41773  0.41773  0.00000  0.16455
      10     C     3.06626  3.06626  0.00000 -0.13253
      11     O     4.16657  4.16657  0.00000 -0.33315
      12     O     4.16628  4.16628  0.00000 -0.33256
      13     H     0.41049  0.41049  0.00000  0.17901
      14     H     0.41728  0.41728  0.00000  0.16545

   Total alpha = 32.00000, Total beta = 32.00000, Total charge = -0.00000
