  ==> Input File <==

--------------------------------------------------------------------------
set {
	reference rhf
	basis 6-31G*
}

set_num_threads( 1 )
memory 2 gb

molecule MOL {
0 1

O	 -1.276010	 1.052711	 -0.768302
C	 -1.204840	 0.067374	 -0.106123
C	 -2.388195	 -0.672128	 0.458071
O	 -0.067104	 -0.527208	 0.221609
H	 -2.388023	 -1.694060	 0.097175
H	 -3.300579	 -0.174919	 0.164318
H	 -2.315377	 -0.706351	 1.539059
C	 1.050447	 -0.434088	 -0.673006
C	 1.912372	 -1.652074	 -0.391613
C	 1.782680	 0.879184	 -0.445414
H	 0.670492	 -0.470210	 -1.683371
H	 1.349077	 -2.564664	 -0.550122
H	 2.773196	 -1.661442	 -1.052089
H	 2.266565	 -1.642603	 0.633624
H	 2.643152	 0.945551	 -1.103593
H	 1.134162	 1.721121	 -0.651673
H	 2.130930	 0.946279	 0.580367

	symmetry c1
}
set optking {
	frozen_dihedral = ("
		11 8 4 2
	")
}

ee = energy('scf')
oeprop('DIPOLE', 'QUADRUPOLE', 'MULLIKEN_CHARGES')
f=open( 'psi4out.xyz', 'w' )
f.write( "17  " )
f.write( str(ee) + "\n" )
f.write( MOL.save_string_xyz() )
f.close()
--------------------------------------------------------------------------

    Molecular point group: c1

    Geometry (in Angstrom), charge = 0, multiplicity = 1:

       Center              X                  Y                   Z               Mass
    ------------   -----------------  -----------------  -----------------  -----------------
           O         -1.250037232846     1.235708361076    -0.526468423174    15.994914619560
           C         -1.178867232846     0.250371361076     0.135710576826    12.000000000000
           C         -2.362222232846    -0.489130638924     0.699904576826    12.000000000000
           O         -0.041131232846    -0.344210638924     0.463442576826    15.994914619560
           H         -2.362050232846    -1.511062638924     0.339008576826     1.007825032070
           H         -3.274606232846     0.008078361076     0.406151576826     1.007825032070
           H         -2.289404232846    -0.523353638924     1.780892576826     1.007825032070
           C          1.076419767154    -0.251090638924    -0.431172423174    12.000000000000
           C          1.938344767154    -1.469076638924    -0.149779423174    12.000000000000
           C          1.808652767154     1.062181361076    -0.203580423174    12.000000000000
           H          0.696464767154    -0.287212638924    -1.441537423174     1.007825032070
           H          1.375049767154    -2.381666638924    -0.308288423174     1.007825032070
           H          2.799168767154    -1.478444638924    -0.810255423174     1.007825032070
           H          2.292537767154    -1.459605638924     0.875457576826     1.007825032070
           H          2.669124767154     1.128548361076    -0.861759423174     1.007825032070
           H          1.160134767154     1.904118361076    -0.409839423174     1.007825032070
           H          2.156902767154     1.129276361076     0.822200576826     1.007825032070

  Charge       = 0
  Multiplicity = 1
  Basis Set: 6-31G*
  Basis Set:

    Orbital Energies (a.u.)
    -----------------------

    Doubly Occupied:

       1A    -20.594521     2A    -20.545656     3A    -11.375312
       4A    -11.293934     5A    -11.232535     6A    -11.220880
       7A    -11.209884     8A     -1.464547     9A     -1.362508
      10A     -1.077949    11A     -1.005064    12A     -0.945981
      13A     -0.848432    14A     -0.768113    15A     -0.691382
      16A     -0.674484    17A     -0.653716    18A     -0.609775
      19A     -0.586431    20A     -0.579493    21A     -0.560057
      22A     -0.550163    23A     -0.544624    24A     -0.514037
      25A     -0.496616    26A     -0.488750    27A     -0.444786
      28A     -0.434401

  @DF-RHF Final Energy:  -344.90930559482695

   => Energetics <=

    Nuclear Repulsion Energy =            323.3234493839166817
    One-Electron Energy =               -1110.9176044343294052
    Two-Electron Energy =                 442.6848494555862317
    DFT Exchange-Correlation Energy =       0.0000000000000000
    Empirical Dispersion Energy =           0.0000000000000000
    PCM Polarization Energy =               0.0000000000000000
    EFP Energy =                            0.0000000000000000
    Total Energy =                       -344.9093055948264919

  Mulliken Charges: (a.u.)
   Center  Symbol    Alpha    Beta     Spin     Total
       1     O     4.28019  4.28019  0.00000 -0.56038
       2     C     2.61953  2.61953  0.00000  0.76093
       3     C     3.28095  3.28095  0.00000 -0.56190
       4     O     4.31379  4.31379  0.00000 -0.62758
       5     H     0.40287  0.40287  0.00000  0.19427
       6     H     0.39807  0.39807  0.00000  0.20386
       7     H     0.39988  0.39988  0.00000  0.20024
       8     C     2.92710  2.92710  0.00000  0.14579
       9     C     3.24090  3.24090  0.00000 -0.48180
      10     C     3.25026  3.25026  0.00000 -0.50053
      11     H     0.41064  0.41064  0.00000  0.17872
      12     H     0.41354  0.41354  0.00000  0.17292
      13     H     0.41724  0.41724  0.00000  0.16552
      14     H     0.41225  0.41225  0.00000  0.17551
      15     H     0.42207  0.42207  0.00000  0.15586
      16     H     0.39319  0.39319  0.00000  0.21362
      17     H     0.41754  0.41754  0.00000  0.16493

   Total alpha = 28.00000, Total beta = 28.00000, Total charge = -0.00000
