                              Psi4 1.0.54 Driver

  ==> Input File <==

--------------------------------------------------------------------------
set {
	reference rhf
	basis cc-pvtz
}

set_num_threads( 4 )
memory 2 gb

molecule MOL {
0 1

O	 -2.071633	 -1.227563	 -0.223463
C	 -1.652164	 -0.152425	 0.058082
C	 -0.327811	 0.006324	 0.778296
C	 -2.402515	 1.108629	 -0.298924
C	 0.627454	 -1.143589	 0.436835
H	 0.130261	 0.954632	 0.517516
H	 -0.531129	 0.006805	 1.841545
C	 1.967632	 -1.029804	 1.157393
H	 0.800000	 -1.172233	 -0.636059
H	 0.149732	 -2.081283	 0.699276
C	 2.916300	 -2.178016	 0.830589
H	 2.438627	 -0.086308	 0.895664
H	 1.794359	 -0.998178	 2.229082
H	 3.136777	 -2.214309	 -0.231064
H	 2.485130	 -3.132971	 1.110807
H	 3.856016	 -2.071134	 1.359654
H	 -3.240910	 0.874416	 -0.936711
H	 -1.747554	 1.818823	 -0.790984
H	 -2.760419	 1.579708	 0.610998

	symmetry c1
}
set optking {
	frozen_dihedral = ("
		5 3 2 4
	")
}

ee,wfn = optimize('scf', return_wfn=True)
oeprop( wfn, 'DIPOLE', 'QUADRUPOLE', 'MULLIKEN_CHARGES')
f=open( 'psi4out.xyz', 'w' )
f.write( "19  " )
f.write( str(ee) + "\n" )
f.write( MOL.save_string_xyz() )
f.close()
--------------------------------------------------------------------------

    Molecular point group: c1
  Charge       = 0
  Multiplicity = 1
  Basis Set: CC-PVTZ
  Basis Set:
  @DF-RHF Final Energy:  -309.17712638515155
    Total Energy =                       -309.1771263851518370
    Molecular point group: c1
  Basis Set: CC-PVTZ
  Basis Set:
  Basis Set: CC-PVTZ
  Basis Set:
  @DF-RHF Final Energy:  -309.13863644431336
    Total Energy =                       -309.1386364443131924
  Basis Set: CC-PVTZ
  Basis Set:
  Basis Set: CC-PVTZ
  Basis Set:
  @DF-RHF Final Energy:  -309.17612135812499
    Total Energy =                       -309.1761213581252150
  Basis Set: CC-PVTZ
  Basis Set:
  Basis Set: CC-PVTZ
  Basis Set:
  @DF-RHF Final Energy:  -309.17777156949234
    Total Energy =                       -309.1777715694921085
  Basis Set: CC-PVTZ
  Basis Set:
  @DF-RHF Final Energy:  -309.17807698426759
    Total Energy =                       -309.1780769842675909
  @DF-RHF Final Energy:  -309.17820371158325
    Total Energy =                       -309.1782037115829667
  @DF-RHF Final Energy:  -309.17811019785637
    Total Energy =                       -309.1781101978563697
  Basis Set: CC-PVTZ
  Basis Set:
  @DF-RHF Final Energy:  -309.17825755158987
    Total Energy =                       -309.1782575515895815
  Basis Set: CC-PVTZ
  Basis Set:
  Basis Set: CC-PVTZ
  Basis Set:
  @DF-RHF Final Energy:  -309.17826186535416
    Total Energy =                       -309.1782618653538179
  Basis Set: CC-PVTZ
  Basis Set:
  Basis Set: CC-PVTZ
  Basis Set:
  @DF-RHF Final Energy:  -309.17826396200638
    Total Energy =                       -309.1782639620066675
  Basis Set: CC-PVTZ
  Basis Set:
  Charge       = 0
  Multiplicity = 1
  Basis Set: CC-PVTZ
  Basis Set:

    Orbital Energies (a.u.)
    -----------------------

    Doubly Occupied:

       1A    -20.537975     2A    -11.320885     3A    -11.230030
       4A    -11.227340     5A    -11.218519     6A    -11.217432
       7A    -11.208931     8A     -1.398539     9A     -1.087752
      10A     -1.030714    11A     -0.984944    12A     -0.887500
      13A     -0.802622    14A     -0.732426    15A     -0.660107
      16A     -0.650748    17A     -0.627184    18A     -0.612839
      19A     -0.582781    20A     -0.572440    21A     -0.555039
      22A     -0.532238    23A     -0.514085    24A     -0.491125
      25A     -0.476320    26A     -0.475187    27A     -0.469699
      28A     -0.401066

  @DF-RHF Final Energy:  -309.17826411020474

   => Energetics <=

    Nuclear Repulsion Energy =            301.3439467924956716
    One-Electron Energy =               -1016.0314904563720120
    Two-Electron Energy =                 405.5092795536716039
    DFT Exchange-Correlation Energy =       0.0000000000000000
    Empirical Dispersion Energy =           0.0000000000000000
    PCM Polarization Energy =               0.0000000000000000
    EFP Energy =                            0.0000000000000000
    Total Energy =                       -309.1782641102047364
    Molecular point group: c1
  Basis Set: CC-PVTZ
  Basis Set:

  -Total Gradient:
     Atom            X                  Y                   Z
    ------   -----------------  -----------------  -----------------
       1       -0.000010356856    -0.000019427018     0.000003366335
       2       -0.000477327271     0.000601386067     0.001035089534
       3       -0.000248396132    -0.000469260913     0.001018640428
       4        0.000417591518    -0.000332056047    -0.001012385870
       5        0.000310810754     0.000240329381    -0.001041874563
       6        0.000002837521    -0.000001861969    -0.000000958938
       7        0.000002399418    -0.000005427815    -0.000004127570
       8       -0.000004486147    -0.000007244516     0.000000652200
       9        0.000001966374     0.000001633655     0.000007355014
      10       -0.000002555282     0.000000676193     0.000000122341
      11        0.000008782562     0.000006137692    -0.000002998150
      12       -0.000000300769    -0.000001556756     0.000004736022
      13       -0.000001099457    -0.000001693422    -0.000002573372
      14       -0.000000752796    -0.000002020208     0.000001689062
      15       -0.000000477104     0.000004743232    -0.000001516036
      16        0.000002035532    -0.000004106470    -0.000002325274
      17        0.000004478857     0.000005465284    -0.000003003475
      18       -0.000003918212    -0.000003772387     0.000004741685
      19       -0.000001232513    -0.000011943980    -0.000004629373

  **** Optimization is complete! (in 11 steps) ****
    Final optimized geometry and variables:
    Molecular point group: c1

    Geometry (in Angstrom), charge = 0, multiplicity = 1:

    O           -2.066749163269    -0.606405520776    -0.212971801910
    C           -1.549605633402     0.452705858644    -0.358223812019
    C           -0.140857056854     0.730550389756     0.132366702863
    C           -2.264775301350     1.593567286615    -1.041763097508
    C            0.765942308063    -0.494986937057     0.133527766034
    H            0.293990651774     1.528631084709    -0.460905117715
    H           -0.241839634815     1.128063531217     1.140746922147
    C            2.157516665222    -0.198045811836     0.684464505135
    H            0.850491233962    -0.875101713890    -0.880465965025
    H            0.298315733450    -1.280873741279     0.712991807873
    C            3.070960018336    -1.419041174045     0.675978682376
    H            2.616660995027     0.598299314264     0.104417329905
    H            2.069080680071     0.177874296284     1.700342715305
    H            3.207677560703    -1.797995982036    -0.331260239360
    H            2.655301736761    -2.221414234388     1.275799431933
    H            4.049798239633    -1.179477395968     1.075031895245
    H           -3.300051309090     1.337827217943    -1.207258158961
    H           -1.784460332266     1.793392441579    -1.994222473332
    H           -2.194335353447     2.499811105374    -0.450320667431

  Mulliken Charges: (a.u.)
   Center  Symbol    Alpha    Beta     Spin     Total
       1     O     4.17310  4.17310  0.00000 -0.34620
       2     C     2.86041  2.86041  0.00000  0.27919
       3     C     3.11028  3.11028  0.00000 -0.22056
       4     C     3.15261  3.15261  0.00000 -0.30522
       5     C     3.08435  3.08435  0.00000 -0.16871
       6     H     0.44575  0.44575  0.00000  0.10850
       7     H     0.44412  0.44412  0.00000  0.11177
       8     C     3.08510  3.08510  0.00000 -0.17020
       9     H     0.45247  0.45247  0.00000  0.09507
      10     H     0.43986  0.43986  0.00000  0.12028
      11     C     3.14947  3.14947  0.00000 -0.29894
      12     H     0.45600  0.45600  0.00000  0.08800
      13     H     0.45458  0.45458  0.00000  0.09083
      14     H     0.45459  0.45459  0.00000  0.09081
      15     H     0.45312  0.45312  0.00000  0.09377
      16     H     0.44856  0.44856  0.00000  0.10287
      17     H     0.43617  0.43617  0.00000  0.12766
      18     H     0.44926  0.44926  0.00000  0.10148
      19     H     0.45020  0.45020  0.00000  0.09960

   Total alpha = 28.00000, Total beta = 28.00000, Total charge = -0.00000

*** Psi4 exiting successfully. Buy a developer a beer!
