                              Psi4 1.0.54 Driver

  ==> Input File <==

--------------------------------------------------------------------------
set {
	reference rhf
	basis cc-pvtz
}

set_num_threads( 4 )
memory 2 gb

molecule MOL {
0 1

O	 2.362532	 2.135675	 -0.110304
C	 1.284445	 2.573553	 -0.347158
C	 0.038873	 1.710852	 -0.335778
C	 1.082952	 4.034976	 -0.678622
C	 0.288398	 0.247429	 0.000314
H	 -0.660187	 2.154555	 0.369566
H	 -0.435011	 1.807196	 -1.310026
C	 -0.993089	 -0.581367	 -0.000217
H	 0.768932	 0.182290	 0.969828
H	 0.994440	 -0.165322	 -0.711217
C	 -2.258482	 0.271340	 0.000669
H	 -1.002280	 -1.233920	 -0.870484
H	 -1.002061	 -1.235367	 0.868958
C	 -3.544441	 -0.550271	 -0.000253
H	 -2.250545	 0.925250	 -0.867923
H	 -2.250598	 0.923423	 0.870642
C	 -4.804551	 0.308747	 0.000556
H	 -3.553737	 -1.201524	 -0.870151
H	 -3.553831	 -1.203282	 0.868313
H	 -4.842050	 0.949078	 -0.874436
H	 -5.698404	 -0.304480	 -0.000254
H	 -4.842277	 0.947103	 0.876982
H	 0.403786	 4.489993	 0.033938
H	 2.031167	 4.549555	 -0.656494
H	 0.634997	 4.137167	 -1.660933

	symmetry c1
}
set optking {
	frozen_dihedral = ("
		9 5 8 12
	")
}

ee,wfn = optimize('scf', return_wfn=True)
oeprop( wfn, 'DIPOLE', 'QUADRUPOLE', 'MULLIKEN_CHARGES')
f=open( 'psi4out.xyz', 'w' )
f.write( "25  " )
f.write( str(ee) + "\n" )
f.write( MOL.save_string_xyz() )
f.close()
--------------------------------------------------------------------------

    Molecular point group: c1
  Charge       = 0
  Multiplicity = 1
  Basis Set: CC-PVTZ
  Basis Set:
  @DF-RHF Final Energy:  -387.26067041164862
    Total Energy =                       -387.2606704116486753
    Molecular point group: c1
  Basis Set: CC-PVTZ
  Basis Set:
  Basis Set: CC-PVTZ
  Basis Set:
  @DF-RHF Final Energy:  -387.25707553913298
    Total Energy =                       -387.2570755391328703
  Basis Set: CC-PVTZ
  Basis Set:
  Basis Set: CC-PVTZ
  Basis Set:
  @DF-RHF Final Energy:  -387.26515841447298
    Total Energy =                       -387.2651584144734898
  Basis Set: CC-PVTZ
  Basis Set:
  Basis Set: CC-PVTZ
  Basis Set:
  @DF-RHF Final Energy:  -387.26577946438380
    Total Energy =                       -387.2657794643835132
  Basis Set: CC-PVTZ
  Basis Set:
  @DF-RHF Final Energy:  -387.26506906535894
    Total Energy =                       -387.2650690653589436
  Basis Set: CC-PVTZ
  Basis Set:
  @DF-RHF Final Energy:  -387.26554515657750
    Total Energy =                       -387.2655451565776730
  Basis Set: CC-PVTZ
  Basis Set:
  Basis Set: CC-PVTZ
  Basis Set:
  @DF-RHF Final Energy:  -387.26588320614377
    Total Energy =                       -387.2658832061434850
  Basis Set: CC-PVTZ
  Basis Set:
  Basis Set: CC-PVTZ
  Basis Set:
  @DF-RHF Final Energy:  -387.26588544425869
    Total Energy =                       -387.2658854442584015
  Basis Set: CC-PVTZ
  Basis Set:
  Charge       = 0
  Multiplicity = 1
  Basis Set: CC-PVTZ
  Basis Set:

    Orbital Energies (a.u.)
    -----------------------

    Doubly Occupied:

       1A    -20.538627     2A    -11.320211     3A    -11.229801
       4A    -11.226291     5A    -11.216069     6A    -11.215505
       7A    -11.215070     8A    -11.214555     9A    -11.209293
      10A     -1.398805    11A     -1.094055    12A     -1.056932
      13A     -1.014428    14A     -0.969001    15A     -0.901204
      16A     -0.818245    17A     -0.787097    18A     -0.728621
      19A     -0.660663    20A     -0.656383    21A     -0.634071
      22A     -0.624584    23A     -0.596075    24A     -0.585116
      25A     -0.569500    26A     -0.560735    27A     -0.544801
      28A     -0.528558    29A     -0.521739    30A     -0.495312
      31A     -0.493813    32A     -0.476749    33A     -0.461766
      34A     -0.451345    35A     -0.448530    36A     -0.402857

  @DF-RHF Final Energy:  -387.26588560808023

   => Energetics <=

    Nuclear Repulsion Energy =            446.2798898575423436
    One-Electron Energy =               -1409.3587343992157912
    Two-Electron Energy =                 575.8129589335929950
    DFT Exchange-Correlation Energy =       0.0000000000000000
    Empirical Dispersion Energy =           0.0000000000000000
    PCM Polarization Energy =               0.0000000000000000
    EFP Energy =                            0.0000000000000000
    Total Energy =                       -387.2658856080804526
    Molecular point group: c1
  Basis Set: CC-PVTZ
  Basis Set:

  -Total Gradient:
     Atom            X                  Y                   Z
    ------   -----------------  -----------------  -----------------
       1       -0.000123834366     0.000083838246    -0.000040903237
       2        0.000073212967    -0.000026592290     0.000000612287
       3        0.000050135184     0.000028055520    -0.000024244881
       4        0.000001874038    -0.000012217796     0.000066063085
       5       -0.002993628641     0.004516896349     0.002716219532
       6        0.000021722714    -0.000004836762    -0.000005675339
       7        0.000006796389     0.000002068755     0.000022696225
       8       -0.002233217125     0.003819302731    -0.004003175933
       9        0.002855181489    -0.004386251245    -0.001666341296
      10       -0.000008476423     0.000017554662     0.000005515344
      11       -0.000019368285    -0.000023709745     0.000055657717
      12        0.002360962242    -0.003961033695     0.002931036548
      13       -0.000007678475     0.000023364081    -0.000010953049
      14        0.000002010631     0.000028610899     0.000000101600
      15        0.000018336643    -0.000005329126     0.000008393762
      16       -0.000023495223    -0.000028205508    -0.000000154572
      17       -0.000006961288    -0.000021654221    -0.000016218975
      18       -0.000001839688    -0.000002123878     0.000003495812
      19       -0.000005413517     0.000022034436    -0.000013078983
      20        0.000003456229    -0.000014652081     0.000012807886
      21        0.000015947579     0.000021998815    -0.000003005967
      22        0.000005140530    -0.000010396359    -0.000005885271
      23        0.000034794920    -0.000032835647    -0.000044874513
      24       -0.000030459811    -0.000016142379     0.000001940269
      25        0.000004801289    -0.000017743760     0.000009971949

  **** Optimization is complete! (in 9 steps) ****
    Final optimized geometry and variables:
    Molecular point group: c1

    Geometry (in Angstrom), charge = 0, multiplicity = 1:

    O            3.180884199195     0.904245253952     0.136183980224
    C            2.165563990325     1.432673732212    -0.179214987754
    C            0.841035771141     0.696229178624    -0.221358482503
    C            2.126088500529     2.894647373174    -0.564114508358
    C            0.942748966336    -0.770229266781     0.175650045560
    H            0.151892914890     1.239602594144     0.417683108940
    H            0.446882079266     0.802731430632    -1.228837385862
    C           -0.362792823229    -1.597838370587     0.110493966567
    H            1.384000078601    -0.854239940258     1.160571977203
    H            1.672843238314    -1.236390433892    -0.474842041885
    C           -1.687448899132    -0.840699983401     0.170146357972
    H           -0.340180824042    -2.234266167577    -0.768876707737
    H           -0.344984972634    -2.296163393231     0.942232862071
    C           -2.895911641966    -1.773345462419     0.160104538569
    H           -1.768968064759    -0.154270751060    -0.667445092332
    H           -1.721221196778    -0.231124944230     1.070021086305
    C           -4.226864992901    -1.030944623497     0.214981582082
    H           -2.864392834158    -2.390239752647    -0.733761395231
    H           -2.829442387116    -2.455797719384     1.002676341873
    H           -4.340022691933    -0.365760489431    -0.634734974152
    H           -5.062301172012    -1.721412875724     0.206634894498
    H           -4.303737865170    -0.430680186182     1.115558866863
    H            1.455323784181     3.436610116560     0.093234995568
    H            3.117015052773     3.316962949775    -0.500158280865
    H            1.746722144189     3.005306550705    -1.573979800121

  Mulliken Charges: (a.u.)
   Center  Symbol    Alpha    Beta     Spin     Total
       1     O     4.17019  4.17019  0.00000 -0.34037
       2     C     2.86310  2.86310  0.00000  0.27380
       3     C     3.11761  3.11761  0.00000 -0.23523
       4     C     3.15121  3.15121  0.00000 -0.30241
       5     C     3.09079  3.09079  0.00000 -0.18158
       6     H     0.44192  0.44192  0.00000  0.11616
       7     H     0.44386  0.44386  0.00000  0.11229
       8     C     3.09838  3.09838  0.00000 -0.19675
       9     H     0.44313  0.44313  0.00000  0.11373
      10     H     0.44334  0.44334  0.00000  0.11332
      11     C     3.09204  3.09204  0.00000 -0.18408
      12     H     0.45032  0.45032  0.00000  0.09936
      13     H     0.44999  0.44999  0.00000  0.10001
      14     C     3.08459  3.08459  0.00000 -0.16919
      15     H     0.45346  0.45346  0.00000  0.09309
      16     H     0.45378  0.45378  0.00000  0.09244
      17     C     3.14997  3.14997  0.00000 -0.29994
      18     H     0.45402  0.45402  0.00000  0.09196
      19     H     0.45292  0.45292  0.00000  0.09416
      20     H     0.45586  0.45586  0.00000  0.08827
      21     H     0.44767  0.44767  0.00000  0.10466
      22     H     0.45535  0.45535  0.00000  0.08930
      23     H     0.45065  0.45065  0.00000  0.09870
      24     H     0.43508  0.43508  0.00000  0.12983
      25     H     0.45076  0.45076  0.00000  0.09848

   Total alpha = 36.00000, Total beta = 36.00000, Total charge = -0.00000

*** Psi4 exiting successfully. Buy a developer a beer!
