                              Psi4 1.0.54 Driver

  ==> Input File <==

--------------------------------------------------------------------------
set {
	reference rhf
	basis cc-pvtz
}

set_num_threads( 4 )
memory 2 gb

molecule MOL {
0 1

H	 0.755540	 1.782746	 0.247019
O	 0.057669	 1.301365	 -0.158528
C	 0.004145	 -0.005141	 0.363049
C	 1.199168	 -0.827145	 -0.096690
C	 -1.316386	 -0.602081	 -0.083515
H	 0.012026	 0.043363	 1.450619
H	 1.216685	 -0.896776	 -1.178167
H	 2.129940	 -0.372354	 0.228035
H	 1.160783	 -1.829622	 0.314294
H	 -1.357882	 -0.655920	 -1.165207
H	 -2.140147	 0.011735	 0.257253
H	 -1.440790	 -1.601175	 0.317669

	symmetry c1
}
set optking {
	frozen_dihedral = ("
		1 2 3 4
	")
}

ee,wfn = optimize('scf', return_wfn=True)
oeprop( wfn, 'DIPOLE', 'QUADRUPOLE', 'MULLIKEN_CHARGES')
f=open( 'psi4out.xyz', 'w' )
f.write( "12  " )
f.write( str(ee) + "\n" )
f.write( MOL.save_string_xyz() )
f.close()
--------------------------------------------------------------------------

    Molecular point group: c1
  Charge       = 0
  Multiplicity = 1
  Basis Set: CC-PVTZ
  Basis Set:
  @DF-RHF Final Energy:  -193.19589259256242
    Total Energy =                       -193.1958925925623021
    Molecular point group: c1
  Basis Set: CC-PVTZ
  Basis Set:
  Basis Set: CC-PVTZ
  Basis Set:
  @DF-RHF Final Energy:  -193.19590107113044
    Total Energy =                       -193.1959010711304927
  Basis Set: CC-PVTZ
  Basis Set:
  Basis Set: CC-PVTZ
  Basis Set:
  @DF-RHF Final Energy:  -193.19590233897284
    Total Energy =                       -193.1959023389729850
  Basis Set: CC-PVTZ
  Basis Set:
  Charge       = 0
  Multiplicity = 1
  Basis Set: CC-PVTZ
  Basis Set:

    Orbital Energies (a.u.)
    -----------------------

    Doubly Occupied:

       1A    -20.544258     2A    -11.274197     3A    -11.209306
       4A    -11.204973     5A     -1.364581     6A     -1.043079
       7A     -0.939075     8A     -0.802419     9A     -0.706462
      10A     -0.622729    11A     -0.604599    12A     -0.548348
      13A     -0.537470    14A     -0.528618    15A     -0.510124
      16A     -0.467765    17A     -0.433461

  @DF-RHF Final Energy:  -193.19590237782023

   => Energetics <=

    Nuclear Repulsion Energy =            135.7029398362723782
    One-Electron Energy =                -531.1147531853799819
    Two-Electron Energy =                 202.2159109712873430
    DFT Exchange-Correlation Energy =       0.0000000000000000
    Empirical Dispersion Energy =           0.0000000000000000
    PCM Polarization Energy =               0.0000000000000000
    EFP Energy =                            0.0000000000000000
    Total Energy =                       -193.1959023778202607
    Molecular point group: c1
  Basis Set: CC-PVTZ
  Basis Set:

  -Total Gradient:
     Atom            X                  Y                   Z
    ------   -----------------  -----------------  -----------------
       1       -0.000605347777     0.000296300242     0.000683289040
       2        0.000611917330    -0.000449353493    -0.001022581491
       3        0.000306042810     0.000337969915     0.000816799773
       4       -0.000310795797    -0.000186202274    -0.000475848030
       5        0.000000140294     0.000005790661     0.000002021680
       6       -0.000004490988    -0.000000568552    -0.000001656806
       7        0.000003325130     0.000000437879    -0.000000851878
       8       -0.000006424906     0.000001237552     0.000000519182
       9        0.000000853289    -0.000006164343    -0.000001861570
      10        0.000000597868    -0.000000194481     0.000001352975
      11        0.000000387359    -0.000000976702     0.000000099085
      12        0.000003795388     0.000001723598    -0.000001281961

  **** Optimization is complete! (in 4 steps) ****
    Final optimized geometry and variables:
    Molecular point group: c1

    Geometry (in Angstrom), charge = 0, multiplicity = 1:

    H            0.761612539370     1.781131018963     0.238432978150
    O            0.062247181501     1.299892563941    -0.164208544945
    C            0.004642755589    -0.004735477589     0.363182921587
    C            1.198571007365    -0.828754398452    -0.096358217614
    C           -1.314891066747    -0.603109903595    -0.085711181998
    H            0.009844884542     0.046511347593     1.450294896531
    H            1.213441946130    -0.898133474547    -1.177734317413
    H            2.129673867909    -0.373171094991     0.225052313701
    H            1.159885990074    -1.831314404331     0.314939962060
    H           -1.358282020555    -0.644755256826    -1.167915097866
    H           -2.141077099788     0.002653861206     0.263425063761
    H           -1.433285525653    -1.607812832451     0.303125294099

  Mulliken Charges: (a.u.)
   Center  Symbol    Alpha    Beta     Spin     Total
       1     H     0.39577  0.39577  0.00000  0.20847
       2     O     4.20496  4.20496  0.00000 -0.40993
       3     C     2.92310  2.92310  0.00000  0.15379
       4     C     3.14344  3.14344  0.00000 -0.28688
       5     C     3.14185  3.14185  0.00000 -0.28370
       6     H     0.46651  0.46651  0.00000  0.06698
       7     H     0.45137  0.45137  0.00000  0.09726
       8     H     0.45751  0.45751  0.00000  0.08498
       9     H     0.45709  0.45709  0.00000  0.08583
      10     H     0.45221  0.45221  0.00000  0.09558
      11     H     0.44724  0.44724  0.00000  0.10552
      12     H     0.45895  0.45895  0.00000  0.08211

   Total alpha = 17.00000, Total beta = 17.00000, Total charge = -0.00000

*** Psi4 exiting successfully. Buy a developer a beer!
