  ==> Input File <==

--------------------------------------------------------------------------
set {
	reference rhf
	basis 6-31G*
}

set_num_threads( 4 )
memory 2 gb

molecule MOL {
0 1

H	 2.292804	 2.501334	 -0.291035
N	 1.508577	 1.884883	 -0.383345
C	 1.865559	 0.531981	 0.018834
H	 1.237249	 1.904262	 -1.348144
C	 0.645745	 -0.382037	 -0.029944
H	 2.238195	 0.578500	 1.037577
H	 2.665931	 0.101005	 -0.587848
C	 -0.679275	 0.379305	 0.025956
H	 0.698998	 -0.976915	 -0.937203
H	 0.693479	 -1.083846	 0.802235
C	 -1.903357	 -0.536963	 -0.023547
H	 -0.726309	 1.082987	 -0.803784
H	 -0.717680	 0.977832	 0.934877
C	 -3.225172	 0.228290	 0.028445
H	 -1.867824	 -1.134999	 -0.931459
H	 -1.860449	 -1.239604	 0.805977
H	 -3.313397	 0.915643	 -0.808262
H	 -4.073500	 -0.448134	 -0.008893
H	 -3.306061	 0.809945	 0.942516

	symmetry c1
}
set optking {
	frozen_dihedral = ("
		6 3 5 9
	")
}

ee = optimize('scf')
oeprop('DIPOLE', 'QUADRUPOLE', 'MULLIKEN_CHARGES')
f=open( 'psi4out.xyz', 'w' )
f.write( "19  " )
f.write( str(ee) + "\n" )
f.write( MOL.save_string_xyz() )
f.close()
--------------------------------------------------------------------------

    Molecular point group: c1
  Charge       = 0
  Multiplicity = 1
  Basis Set: 6-31G*
  Basis Set:
  @DF-RHF Final Energy:  -251.34279651805548
    Total Energy =                       -251.3427965180554793
    Molecular point group: c1
  Basis Set: 6-31G*
  Basis Set:
  Basis Set: 6-31G*
  Basis Set:
  @DF-RHF Final Energy:  -251.34385764443812
    Total Energy =                       -251.3438576444381169
  Basis Set: 6-31G*
  Basis Set:
  Basis Set: 6-31G*
  Basis Set:
  @DF-RHF Final Energy:  -251.34543688209865
    Total Energy =                       -251.3454368820986815
  Basis Set: 6-31G*
  Basis Set:
  Basis Set: 6-31G*
  Basis Set:
  @DF-RHF Final Energy:  -251.34555337890359
    Total Energy =                       -251.3455533789036167
  Basis Set: 6-31G*
  Basis Set:
  Basis Set: 6-31G*
  Basis Set:
  @DF-RHF Final Energy:  -251.34555109678223
    Total Energy =                       -251.3455510967822875
  Basis Set: 6-31G*
  Basis Set:
  Basis Set: 6-31G*
  Basis Set:
  @DF-RHF Final Energy:  -251.34556481860943
    Total Energy =                       -251.3455648186093754
  Basis Set: 6-31G*
  Basis Set:
  Basis Set: 6-31G*
  Basis Set:
  @DF-RHF Final Energy:  -251.34556704280558
    Total Energy =                       -251.3455670428055555
  Basis Set: 6-31G*
  Basis Set:
  Charge       = 0
  Multiplicity = 1
  Basis Set: 6-31G*
  Basis Set:

    Orbital Energies (a.u.)
    -----------------------

    Doubly Occupied:

       1A    -15.533835     2A    -11.241091     3A    -11.210317
       4A    -11.208710     5A    -11.203493     6A    -11.203006
       7A     -1.177199     8A     -1.065710     9A     -0.993327
      10A     -0.903661    11A     -0.811951    12A     -0.776854
      13A     -0.666966    14A     -0.633009    15A     -0.618163
      16A     -0.582245    17A     -0.565323    18A     -0.546893
      19A     -0.527353    20A     -0.496468    21A     -0.475455
      22A     -0.462986    23A     -0.451272    24A     -0.445707
      25A     -0.378642

  @DF-RHF Final Energy:  -251.34556706089725

   => Energetics <=

    Nuclear Repulsion Energy =            249.4329541754274544
    One-Electron Energy =                -833.1977743511795325
    Two-Electron Energy =                 332.4192531148546550
    DFT Exchange-Correlation Energy =       0.0000000000000000
    Empirical Dispersion Energy =           0.0000000000000000
    PCM Polarization Energy =               0.0000000000000000
    EFP Energy =                            0.0000000000000000
    Total Energy =                       -251.3455670608974515
    Molecular point group: c1
  Basis Set: 6-31G*
  Basis Set:

  -Total Gradient:
     Atom            X                  Y                   Z
    ------   -----------------  -----------------  -----------------
       1        0.000004887582     0.000005165208     0.000000988609
       2        0.000010760035     0.000006139848    -0.000004764597
       3       -0.003871607357     0.005236478963     0.002056139400
       4        0.000000482476    -0.000000626306    -0.000001596673
       5       -0.002804776533     0.004572706030    -0.004316230912
       6        0.003720267296    -0.005142758700    -0.001026752359
       7       -0.000001280258     0.000004672349     0.000004449578
       8       -0.000004249708     0.000000390415     0.000030835599
       9        0.002946592100    -0.004675760933     0.003291754363
      10        0.000000174331    -0.000001350591    -0.000008363108
      11        0.000003477743    -0.000003300976    -0.000007383225
      12        0.000000428677     0.000003763376    -0.000006673442
      13       -0.000001709107    -0.000004570448    -0.000009597487
      14       -0.000001404115     0.000000209793    -0.000002823871
      15       -0.000008116174    -0.000004837502    -0.000000812541
      16        0.000008306168     0.000003162566    -0.000001085198
      17        0.000000685398     0.000002410549     0.000002879204
      18       -0.000002042079     0.000000598088    -0.000003013990
      19       -0.000000876474    -0.000002491727     0.000002050649

  **** Optimization is complete! (in 8 steps) ****
    Final optimized geometry and variables:
    Molecular point group: c1

    Geometry (in Angstrom), charge = 0, multiplicity = 1:

    H            2.765951816925     2.081061514053    -0.176905391600
    N            1.941921802205     1.536125126442    -0.343192447884
    C            2.141711003343     0.170588827854     0.117727813921
    H            1.780570981467     1.554090690233    -1.332421544073
    C            0.884672250561    -0.712381836311    -0.006065915080
    H            2.462958288139     0.196871343930     1.153689496779
    H            2.955379457577    -0.331903498102    -0.410973165112
    C           -0.455183564959     0.017981105449     0.080051578017
    H            0.943156777649    -1.312585827815    -0.912220287483
    H            0.928878341823    -1.446340453889     0.796978295137
    C           -1.645670192170    -0.943169697563     0.069758286022
    H           -0.552332557539     0.719101239518    -0.742999130667
    H           -0.478268933776     0.619280527456     0.984968832757
    C           -2.991837362713    -0.223288871646     0.145158169240
    H           -1.613230743932    -1.551240723625    -0.832462999115
    H           -1.560944819344    -1.635251423745     0.905268498652
    H           -3.123681549937     0.450315319670    -0.696939714303
    H           -3.817583862943    -0.928420429527     0.137178201089
    H           -3.069421142188     0.367322100858     1.053602048882

  Mulliken Charges: (a.u.)
   Center  Symbol    Alpha    Beta     Spin     Total
       1     H     0.33137  0.33137  0.00000  0.33727
       2     N     3.92087  3.92087  0.00000 -0.84175
       3     C     3.06054  3.06054  0.00000 -0.12108
       4     H     0.33493  0.33493  0.00000  0.33013
       5     C     3.16744  3.16744  0.00000 -0.33489
       6     H     0.41996  0.41996  0.00000  0.16009
       7     H     0.43300  0.43300  0.00000  0.13400
       8     C     3.13989  3.13989  0.00000 -0.27977
       9     H     0.42415  0.42415  0.00000  0.15170
      10     H     0.42184  0.42184  0.00000  0.15632
      11     C     3.15272  3.15272  0.00000 -0.30544
      12     H     0.42161  0.42161  0.00000  0.15678
      13     H     0.41801  0.41801  0.00000  0.16398
      14     C     3.23842  3.23842  0.00000 -0.47684
      15     H     0.42555  0.42555  0.00000  0.14890
      16     H     0.42485  0.42485  0.00000  0.15030
      17     H     0.42228  0.42228  0.00000  0.15543
      18     H     0.42106  0.42106  0.00000  0.15788
      19     H     0.42151  0.42151  0.00000  0.15699

   Total alpha = 25.00000, Total beta = 25.00000, Total charge =  0.00000
