                              Psi4 1.0.54 Driver

  ==> Input File <==

--------------------------------------------------------------------------
set {
	reference rhf
	basis cc-pvtz
}

set_num_threads( 4 )
memory 2 gb

molecule MOL {
0 1

H	 -3.436473	 1.252944	 -1.023892
O	 -3.458596	 0.315260	 -0.960865
C	 -3.176635	 -0.080824	 0.355601
C	 -1.763371	 0.265266	 0.799691
H	 -3.321825	 -1.153438	 0.379502
H	 -3.895468	 0.357385	 1.043382
C	 -1.370480	 1.715773	 0.535139
H	 -1.662742	 0.045076	 1.861413
H	 -1.075320	 -0.401559	 0.285572
C	 0.037910	 2.054364	 1.016559
H	 -2.086992	 2.373340	 1.014857
H	 -1.443452	 1.912694	 -0.531821
C	 0.426769	 3.506152	 0.744259
H	 0.106354	 1.845331	 2.079814
H	 0.754135	 1.395864	 0.529469
C	 1.859132	 3.873284	 1.135920
H	 -0.265672	 4.165802	 1.262175
H	 0.298248	 3.706389	 -0.315933
C	 2.142024	 3.829333	 2.635648
H	 2.067833	 4.874912	 0.772657
H	 2.552092	 3.214196	 0.619365
H	 1.459660	 4.474963	 3.179356
H	 3.151068	 4.164929	 2.846474
H	 2.041915	 2.828680	 3.038486

	symmetry c1
}
set optking {
	frozen_dihedral = ("
		7 4 3 2
	")
}

ee,wfn = optimize('scf', return_wfn=True)
oeprop( wfn, 'DIPOLE', 'QUADRUPOLE', 'MULLIKEN_CHARGES')
f=open( 'psi4out.xyz', 'w' )
f.write( "24  " )
f.write( str(ee) + "\n" )
f.write( MOL.save_string_xyz() )
f.close()
--------------------------------------------------------------------------

    Molecular point group: c1
  Charge       = 0
  Multiplicity = 1
  Basis Set: CC-PVTZ
  Basis Set:
  @DF-RHF Final Energy:  -349.37873322809844
    Total Energy =                       -349.3787332280979285
    Molecular point group: c1
  Basis Set: CC-PVTZ
  Basis Set:
  Basis Set: CC-PVTZ
  Basis Set:
  @DF-RHF Final Energy:  -349.37836635590014
    Total Energy =                       -349.3783663559001411
  Basis Set: CC-PVTZ
  Basis Set:
  Basis Set: CC-PVTZ
  Basis Set:
  @DF-RHF Final Energy:  -349.37904810236410
    Total Energy =                       -349.3790481023641519
  Basis Set: CC-PVTZ
  Basis Set:
  Basis Set: CC-PVTZ
  Basis Set:
  @DF-RHF Final Energy:  -349.37908157944389
    Total Energy =                       -349.3790815794437776
  Basis Set: CC-PVTZ
  Basis Set:
  Basis Set: CC-PVTZ
  Basis Set:
  @DF-RHF Final Energy:  -349.37908868849257
    Total Energy =                       -349.3790886884921747
  Basis Set: CC-PVTZ
  Basis Set:
  Basis Set: CC-PVTZ
  Basis Set:
  @DF-RHF Final Energy:  -349.37908988246608
    Total Energy =                       -349.3790898824657916
  Basis Set: CC-PVTZ
  Basis Set:
  Charge       = 0
  Multiplicity = 1
  Basis Set: CC-PVTZ
  Basis Set:

    Orbital Energies (a.u.)
    -----------------------

    Doubly Occupied:

       1A    -20.545306     2A    -11.265398     3A    -11.216781
       4A    -11.214545     5A    -11.213881     6A    -11.213770
       7A    -11.212964     8A    -11.207256     9A     -1.363759
      10A     -1.093141    11A     -1.050805    12A     -0.988541
      13A     -0.920385    14A     -0.854186    15A     -0.795774
      16A     -0.780243    17A     -0.697327    18A     -0.651997
      19A     -0.626790    20A     -0.612355    21A     -0.603981
      22A     -0.589632    23A     -0.563802    24A     -0.538438
      25A     -0.524309    26A     -0.513323    27A     -0.489270
      28A     -0.488151    29A     -0.473197    30A     -0.462634
      31A     -0.456991    32A     -0.446572    33A     -0.424703

  @DF-RHF Final Energy:  -349.37908989437176

   => Energetics <=

    Nuclear Repulsion Energy =            385.3651764293557562
    One-Electron Energy =               -1237.2881238083787139
    Two-Electron Energy =                 502.5438574846513120
    DFT Exchange-Correlation Energy =       0.0000000000000000
    Empirical Dispersion Energy =           0.0000000000000000
    PCM Polarization Energy =               0.0000000000000000
    EFP Energy =                            0.0000000000000000
    Total Energy =                       -349.3790898943716456
    Molecular point group: c1
  Basis Set: CC-PVTZ
  Basis Set:

  -Total Gradient:
     Atom            X                  Y                   Z
    ------   -----------------  -----------------  -----------------
       1       -0.000001729794     0.000039667314    -0.000000177811
       2       -0.000919338852     0.002724484423     0.000882562665
       3        0.001690922709    -0.004191099348    -0.002144568574
       4       -0.001767673700     0.002391955740     0.003741530139
       5       -0.000029063302    -0.000019963133    -0.000025304250
       6        0.000010700674    -0.000013684114    -0.000037281536
       7        0.000993466166    -0.000914202533    -0.002395745788
       8        0.000023736602     0.000006542731    -0.000020067556
       9       -0.000021707168    -0.000011509966     0.000016839808
      10       -0.000016908820     0.000020722750     0.000009149026
      11        0.000023133404    -0.000035286411    -0.000015465068
      12       -0.000002229931     0.000002568956    -0.000012450751
      13       -0.000000989508    -0.000010810352     0.000010635317
      14       -0.000020043698     0.000002969356    -0.000005611482
      15        0.000006923751    -0.000005804504     0.000002413631
      16        0.000002394448    -0.000024194980    -0.000000640791
      17       -0.000007454720    -0.000003099400     0.000014138189
      18       -0.000010190497     0.000011479226    -0.000018080372
      19        0.000014125354     0.000018979938    -0.000007767057
      20        0.000014795512     0.000016729960    -0.000004840127
      21        0.000014103163    -0.000017267502     0.000000747629
      22       -0.000012337389     0.000007823729     0.000005604331
      23        0.000002859579     0.000006616306     0.000001805900
      24        0.000012506018    -0.000003618189     0.000002574531

  **** Optimization is complete! (in 7 steps) ****
    Final optimized geometry and variables:
    Molecular point group: c1

    Geometry (in Angstrom), charge = 0, multiplicity = 1:

    H           -2.828110314426    -0.710156936340    -1.822501894270
    O           -2.776206869320    -1.640010721659    -1.703858317048
    C           -2.520103576569    -1.940448043558    -0.358226452730
    C           -1.102081517772    -1.605598491733     0.092118562054
    H           -2.699722178559    -3.000655743347    -0.244470412289
    H           -3.236481786963    -1.423629066587     0.277801459900
    C           -0.643033703971    -0.193751670116    -0.263217425187
    H           -1.049096649886    -1.754351823597     1.167428018454
    H           -0.414324953061    -2.317439431831    -0.355681906594
    C            0.744814332243     0.137860895690     0.280202897273
    H           -1.357565448705     0.532314243375     0.122918485035
    H           -0.634755322759    -0.080434634407    -1.342327948079
    C            1.213890872036     1.541481855688    -0.097669415426
    H            0.736576698122     0.026198220151     1.359723781671
    H            1.458113182212    -0.590971228446    -0.097611210019
    C            2.635114217754     1.886854789999     0.350660845554
    H            0.522454959814     2.274269897266     0.312693637098
    H            1.159393181473     1.646075368893    -1.177872359967
    C            2.824096581430     1.973408791280     1.863250186249
    H            2.910720518314     2.840643081456    -0.088726569980
    H            3.327112365218     1.154995624043    -0.057651758261
    H            2.138606896028     2.692365741441     2.300715150065
    H            3.831976401834     2.289453003480     2.106914854011
    H            2.656894597833     1.019476928955     2.348648204205

  Mulliken Charges: (a.u.)
   Center  Symbol    Alpha    Beta     Spin     Total
       1     H     0.39041  0.39041  0.00000  0.21919
       2     O     4.20602  4.20602  0.00000 -0.41204
       3     C     2.98103  2.98103  0.00000  0.03794
       4     C     3.08640  3.08640  0.00000 -0.17281
       5     H     0.44934  0.44934  0.00000  0.10132
       6     H     0.46972  0.46972  0.00000  0.06056
       7     C     3.10526  3.10526  0.00000 -0.21053
       8     H     0.45560  0.45560  0.00000  0.08881
       9     H     0.45316  0.45316  0.00000  0.09369
      10     C     3.09306  3.09306  0.00000 -0.18612
      11     H     0.45476  0.45476  0.00000  0.09047
      12     H     0.44973  0.44973  0.00000  0.10054
      13     C     3.09473  3.09473  0.00000 -0.18946
      14     H     0.45249  0.45249  0.00000  0.09503
      15     H     0.45299  0.45299  0.00000  0.09403
      16     C     3.09053  3.09053  0.00000 -0.18107
      17     H     0.45469  0.45469  0.00000  0.09062
      18     H     0.44980  0.44980  0.00000  0.10040
      19     C     3.15250  3.15250  0.00000 -0.30499
      20     H     0.44841  0.44841  0.00000  0.10318
      21     H     0.45432  0.45432  0.00000  0.09136
      22     H     0.45512  0.45512  0.00000  0.08976
      23     H     0.44618  0.44618  0.00000  0.10764
      24     H     0.45376  0.45376  0.00000  0.09248

   Total alpha = 33.00000, Total beta = 33.00000, Total charge = -0.00000

*** Psi4 exiting successfully. Buy a developer a beer!
