  ==> Input File <==

--------------------------------------------------------------------------
set {
	reference rhf
	basis 6-31G*
}

set_num_threads( 1 )
memory 2 gb

molecule MOL {
0 1

H	 1.324535	 -1.580569	 0.156804
O	 1.586534	 -0.678666	 -0.000226
C	 0.489431	 0.077273	 0.000046
C	 -0.764129	 -0.759190	 0.000191
O	 0.537743	 1.263962	 0.000257
C	 -2.038368	 0.075731	 -0.000248
H	 -0.717284	 -1.412404	 -0.866059
H	 -0.717458	 -1.411724	 0.866967
H	 -2.086483	 0.712501	 -0.875098
H	 -2.908485	 -0.571682	 -0.000042
H	 -2.086576	 0.713280	 0.874068

	symmetry c1
}
set optking {
	frozen_dihedral = ("
		2 3 4 7
	")
}

ee = energy('scf')
oeprop('DIPOLE', 'QUADRUPOLE', 'MULLIKEN_CHARGES')
f=open( 'psi4out.xyz', 'w' )
f.write( "11  " )
f.write( str(ee) + "\n" )
f.write( MOL.save_string_xyz() )
f.close()
--------------------------------------------------------------------------

    Molecular point group: c1

    Geometry (in Angstrom), charge = 0, multiplicity = 1:

       Center              X                  Y                   Z               Mass
    ------------   -----------------  -----------------  -----------------  -----------------
           H          1.338409042696    -1.560432332691     0.154666824983     1.007825032070
           O          1.600408042696    -0.658529332691    -0.002363175017    15.994914619560
           C          0.503305042696     0.097409667309    -0.002091175017    12.000000000000
           C         -0.750254957304    -0.739053332691    -0.001946175017    12.000000000000
           O          0.551617042696     1.284098667309    -0.001880175017    15.994914619560
           C         -2.024493957304     0.095867667309    -0.002385175017    12.000000000000
           H         -0.703409957304    -1.392267332691    -0.868196175017     1.007825032070
           H         -0.703583957304    -1.391587332691     0.864829824983     1.007825032070
           H         -2.072608957304     0.732637667309    -0.877235175017     1.007825032070
           H         -2.894610957304    -0.551545332691    -0.002179175017     1.007825032070
           H         -2.072701957304     0.733416667309     0.871930824983     1.007825032070

  Charge       = 0
  Multiplicity = 1
  Basis Set: 6-31G*
  Basis Set:

    Orbital Energies (a.u.)
    -----------------------

    Doubly Occupied:

       1A    -20.616584     2A    -20.550487     3A    -11.382207
       4A    -11.256778     5A    -11.227890     6A     -1.472373
       7A     -1.372020     8A     -1.072772     9A     -0.911427
      10A     -0.828229    11A     -0.719751    12A     -0.670899
      13A     -0.661379    14A     -0.612808    15A     -0.597262
      16A     -0.537342    17A     -0.528931    18A     -0.515680
      19A     -0.477129    20A     -0.442729

  @DF-RHF Final Energy:  -266.83310236793920

   => Energetics <=

    Nuclear Repulsion Energy =            180.0916167280673790
    One-Electron Energy =                -720.9400621014019634
    Two-Electron Energy =                 274.0153430053951524
    DFT Exchange-Correlation Energy =       0.0000000000000000
    Empirical Dispersion Energy =           0.0000000000000000
    PCM Polarization Energy =               0.0000000000000000
    EFP Energy =                            0.0000000000000000
    Total Energy =                       -266.8331023679394320

  Mulliken Charges: (a.u.)
   Center  Symbol    Alpha    Beta     Spin     Total
       1     H     0.26736  0.26736  0.00000  0.46528
       2     O     4.34762  4.34762  0.00000 -0.69524
       3     C     2.60495  2.60495  0.00000  0.79011
       4     C     3.24077  3.24077  0.00000 -0.48154
       5     O     4.26796  4.26796  0.00000 -0.53593
       6     C     3.23751  3.23751  0.00000 -0.47502
       7     H     0.40025  0.40025  0.00000  0.19949
       8     H     0.40572  0.40572  0.00000  0.18857
       9     H     0.40520  0.40520  0.00000  0.18959
      10     H     0.41685  0.41685  0.00000  0.16630
      11     H     0.40581  0.40581  0.00000  0.18838

   Total alpha = 20.00000, Total beta = 20.00000, Total charge =  0.00000
