                              Psi4 1.0.54 Driver

  ==> Input File <==

--------------------------------------------------------------------------
set {
	reference rhf
	basis cc-pvtz
}

set_num_threads( 4 )
memory 2 gb

molecule MOL {
0 1

O	 -1.510770	 1.240811	 -0.054933
C	 -1.081510	 0.147522	 0.122720
C	 0.327029	 -0.064006	 0.641890
C	 -1.903028	 -1.084121	 -0.174656
C	 1.349460	 -0.017068	 -0.500215
H	 0.399029	 -1.014606	 1.159950
H	 0.538021	 0.726928	 1.350471
C	 1.306823	 1.300434	 -1.265796
H	 2.349058	 -0.170851	 -0.103992
H	 1.152328	 -0.841538	 -1.175283
H	 2.029782	 1.302922	 -2.072862
H	 1.531358	 2.140066	 -0.616679
H	 0.326432	 1.468227	 -1.697710
H	 -1.341891	 -1.779207	 -0.789259
H	 -2.820449	 -0.808163	 -0.671328
H	 -2.133314	 -1.593056	 0.755831

	symmetry c1
}
set optking {
	frozen_dihedral = ("
		9 5 3 2
	")
}

ee,wfn = optimize('scf', return_wfn=True)
oeprop( wfn, 'DIPOLE', 'QUADRUPOLE', 'MULLIKEN_CHARGES')
f=open( 'psi4out.xyz', 'w' )
f.write( "16  " )
f.write( str(ee) + "\n" )
f.write( MOL.save_string_xyz() )
f.close()
--------------------------------------------------------------------------

    Molecular point group: c1
  Charge       = 0
  Multiplicity = 1
  Basis Set: CC-PVTZ
  Basis Set:
  @DF-RHF Final Energy:  -270.12656237588590
    Total Energy =                       -270.1265623758858965
    Molecular point group: c1
  Basis Set: CC-PVTZ
  Basis Set:
  Basis Set: CC-PVTZ
  Basis Set:
  @DF-RHF Final Energy:  -270.12755120093357
    Total Energy =                       -270.1275512009336808
  Basis Set: CC-PVTZ
  Basis Set:
  Basis Set: CC-PVTZ
  Basis Set:
  @DF-RHF Final Energy:  -270.12714323600346
    Total Energy =                       -270.1271432360038034
  Basis Set: CC-PVTZ
  Basis Set:
  Basis Set: CC-PVTZ
  Basis Set:
  @DF-RHF Final Energy:  -270.12789934573652
    Total Energy =                       -270.1278993457364095
  Basis Set: CC-PVTZ
  Basis Set:
  @DF-RHF Final Energy:  -270.12809475122452
    Total Energy =                       -270.1280947512245234
  @DF-RHF Final Energy:  -270.12818281720695
    Total Energy =                       -270.1281828172068344
  @DF-RHF Final Energy:  -270.12819964356413
    Total Energy =                       -270.1281996435640167
  @DF-RHF Final Energy:  -270.12820414016528
    Total Energy =                       -270.1282041401652805
  @DF-RHF Final Energy:  -270.12820614651355
    Total Energy =                       -270.1282061465137758
  Basis Set: CC-PVTZ
  Basis Set:
  @DF-RHF Final Energy:  -270.12820762132714
    Total Energy =                       -270.1282076213270784
  Basis Set: CC-PVTZ
  Basis Set:
  Basis Set: CC-PVTZ
  Basis Set:
  @DF-RHF Final Energy:  -270.12820934863907
    Total Energy =                       -270.1282093486391886
  Basis Set: CC-PVTZ
  Basis Set:
  Basis Set: CC-PVTZ
  Basis Set:
  @DF-RHF Final Energy:  -270.12821044713132
    Total Energy =                       -270.1282104471312095
  Basis Set: CC-PVTZ
  Basis Set:
  Charge       = 0
  Multiplicity = 1
  Basis Set: CC-PVTZ
  Basis Set:

    Orbital Energies (a.u.)
    -----------------------

    Doubly Occupied:

       1A    -20.538148     2A    -11.319679     3A    -11.233196
       4A    -11.228834     5A    -11.226886     6A    -11.213891
       7A     -1.397700     8A     -1.084036     9A     -1.010532
      10A     -0.950515    11A     -0.835240    12A     -0.731271
      13A     -0.658065    14A     -0.647236    15A     -0.624721
      16A     -0.600623    17A     -0.582824    18A     -0.562653
      19A     -0.536196    20A     -0.511367    21A     -0.503920
      22A     -0.486910    23A     -0.475685    24A     -0.400595

  @DF-RHF Final Energy:  -270.12821134244456

   => Energetics <=

    Nuclear Repulsion Energy =            242.3783915079597477
    One-Electron Energy =                -846.2917582964839767
    Two-Electron Energy =                 333.7851554460795569
    DFT Exchange-Correlation Energy =       0.0000000000000000
    Empirical Dispersion Energy =           0.0000000000000000
    PCM Polarization Energy =               0.0000000000000000
    EFP Energy =                            0.0000000000000000
    Total Energy =                       -270.1282113424446152
    Molecular point group: c1
  Basis Set: CC-PVTZ
  Basis Set:

  -Total Gradient:
     Atom            X                  Y                   Z
    ------   -----------------  -----------------  -----------------
       1       -0.000044664271     0.000133161894     0.000023850785
       2        0.000079417186     0.000410384856    -0.000008005133
       3       -0.000045564972    -0.000576945604    -0.000021892695
       4       -0.000020653966     0.000232556105     0.000047785760
       5       -0.000071397509    -0.000641288465    -0.000005831912
       6        0.000008734334    -0.000010050791    -0.000001399760
       7        0.000003028895     0.000006219628     0.000006141560
       8       -0.000019709766     0.000007454546    -0.000014201506
       9        0.000075837553     0.000701145971     0.000029499789
      10        0.000000275192    -0.000009377403    -0.000004721935
      11        0.000000430645    -0.000003164153    -0.000000638789
      12        0.000000402779     0.000007788984     0.000004312872
      13        0.000011050525     0.000001652289    -0.000000779398
      14        0.000162076641    -0.000113085558    -0.000215622151
      15       -0.000135052547     0.000068400858    -0.000036004366
      16       -0.000004210719    -0.000214853157     0.000197506879

  **** Optimization is complete! (in 13 steps) ****
    Final optimized geometry and variables:
    Molecular point group: c1

    Geometry (in Angstrom), charge = 0, multiplicity = 1:

    O           -1.400606614798     0.959551492862     0.565026962789
    C           -0.833739996688    -0.074561450314     0.420054262171
    C            0.611853108897    -0.247518720450     0.844572069738
    C           -1.531473998468    -1.272220575096    -0.184016094926
    C            1.598831978443    -0.322225500887    -0.329962830008
    H            0.696104896553    -1.154423907093     1.435573556048
    H            0.859119073468     0.592963209597     1.479361276337
    C            1.583759705603     0.910941985545    -1.228873845878
    H            2.592762143890    -0.444822373217     0.085646581350
    H            1.406363581240    -1.210656790831    -0.922219568914
    H            2.333938396122     0.824269275753    -2.006006134522
    H            1.792789677351     1.809434768370    -0.659621189546
    H            0.622673482392     1.048723587442    -1.710050030905
    H           -0.976174390664    -1.657534881078    -1.031390011488
    H           -2.526821762745    -0.995042700340    -0.495873914597
    H           -1.589717984301    -2.068369184526     0.551351786846

  Mulliken Charges: (a.u.)
   Center  Symbol    Alpha    Beta     Spin     Total
       1     O     4.17474  4.17474  0.00000 -0.34948
       2     C     2.85633  2.85633  0.00000  0.28734
       3     C     3.10531  3.10531  0.00000 -0.21062
       4     C     3.15506  3.15506  0.00000 -0.31013
       5     C     3.10672  3.10672  0.00000 -0.21344
       6     H     0.44279  0.44279  0.00000  0.11442
       7     H     0.43872  0.43872  0.00000  0.12255
       8     C     3.14134  3.14134  0.00000 -0.28268
       9     H     0.44264  0.44264  0.00000  0.11472
      10     H     0.45068  0.45068  0.00000  0.09863
      11     H     0.44855  0.44855  0.00000  0.10290
      12     H     0.44980  0.44980  0.00000  0.10041
      13     H     0.45202  0.45202  0.00000  0.09596
      14     H     0.45071  0.45071  0.00000  0.09857
      15     H     0.43504  0.43504  0.00000  0.12992
      16     H     0.44953  0.44953  0.00000  0.10094

   Total alpha = 24.00000, Total beta = 24.00000, Total charge = -0.00000

*** Psi4 exiting successfully. Buy a developer a beer!
