  ==> Input File <==

--------------------------------------------------------------------------
set {
	reference rhf
	basis 6-31G*
}

set_num_threads( 1 )
memory 2 gb

molecule MOL {
0 1

H	 -2.798360	 -0.862255	 -0.071053
N	 -1.863561	 -0.715187	 0.256814
C	 -1.344686	 0.554728	 -0.219830
H	 -1.300452	 -1.461917	 -0.101532
C	 -1.970319	 0.900547	 -1.554794
H	 -1.517707	 1.384941	 0.466328
H	 -0.271395	 0.462226	 -0.354995
O	 -3.341741	 1.095435	 -1.359074
H	 -1.517661	 1.805404	 -1.959730
H	 -1.801290	 0.088974	 -2.259076
C	 -4.059689	 1.338003	 -2.526672
H	 -5.097031	 1.472681	 -2.251934
H	 -3.709757	 2.237907	 -3.029366
H	 -3.983878	 0.503448	 -3.220631

	symmetry c1
}
set optking {
	frozen_dihedral = ("
		8 5 3 6,
		5 8 11 13,
		11 8 5 3
	")
}

ee = energy('scf')
oeprop('DIPOLE', 'QUADRUPOLE', 'MULLIKEN_CHARGES')
f=open( 'psi4out.xyz', 'w' )
f.write( "14  " )
f.write( str(ee) + "\n" )
f.write( MOL.save_string_xyz() )
f.close()
--------------------------------------------------------------------------

    Molecular point group: c1

    Geometry (in Angstrom), charge = 0, multiplicity = 1:

       Center              X                  Y                   Z               Mass
    ------------   -----------------  -----------------  -----------------  -----------------
           H         -0.264505545886    -1.484372630169     1.029804781728     1.007825032070
           N          0.670293454114    -1.337304630169     1.357671781728    14.003074004780
           C          1.189168454114    -0.067389630169     0.881027781728    12.000000000000
           H          1.233402454114    -2.084034630169     0.999325781728     1.007825032070
           C          0.563535454114     0.278429369831    -0.453936218272    12.000000000000
           H          1.016147454114     0.762823369831     1.567185781728     1.007825032070
           H          2.262459454114    -0.159891630169     0.745862781728     1.007825032070
           O         -0.807886545886     0.473317369831    -0.258216218272    15.994914619560
           H          1.016193454114     1.183286369831    -0.858872218272     1.007825032070
           H          0.732564454114    -0.533143630169    -1.158218218272     1.007825032070
           C         -1.525834545886     0.715885369831    -1.425814218272    12.000000000000
           H         -2.563176545886     0.850563369831    -1.151076218272     1.007825032070
           H         -1.175902545886     1.615789369831    -1.928508218272     1.007825032070
           H         -1.450023545886    -0.118669630169    -2.119773218272     1.007825032070

  Charge       = 0
  Multiplicity = 1
  Basis Set: 6-31G*
  Basis Set:

    Orbital Energies (a.u.)
    -----------------------

    Doubly Occupied:

       1A    -20.562459     2A    -15.527024     3A    -11.270271
       4A    -11.268682     5A    -11.242291     6A     -1.386492
       7A     -1.175827     8A     -0.999919     9A     -0.910316
      10A     -0.823073    11A     -0.686999    12A     -0.676243
      13A     -0.647675    14A     -0.622625    15A     -0.590926
      16A     -0.557331    17A     -0.519868    18A     -0.504319
      19A     -0.482544    20A     -0.423293    21A     -0.375240

  @DF-RHF Final Energy:  -248.12053489745611

   => Energetics <=

    Nuclear Repulsion Energy =            195.2662608671272153
    One-Electron Energy =                -724.2666987306510009
    Two-Electron Energy =                 280.8799029660681299
    DFT Exchange-Correlation Energy =       0.0000000000000000
    Empirical Dispersion Energy =           0.0000000000000000
    PCM Polarization Energy =               0.0000000000000000
    EFP Energy =                            0.0000000000000000
    Total Energy =                       -248.1205348974556273

  Mulliken Charges: (a.u.)
   Center  Symbol    Alpha    Beta     Spin     Total
       1     H     0.32247  0.32247  0.00000  0.35505
       2     N     3.92320  3.92320  0.00000 -0.84640
       3     C     3.06436  3.06436  0.00000 -0.12871
       4     H     0.33561  0.33561  0.00000  0.32877
       5     C     3.00010  3.00010  0.00000 -0.00020
       6     H     0.41149  0.41149  0.00000  0.17701
       7     H     0.42210  0.42210  0.00000  0.15580
       8     O     4.30642  4.30642  0.00000 -0.61284
       9     H     0.43089  0.43089  0.00000  0.13823
      10     H     0.43495  0.43495  0.00000  0.13010
      11     C     3.07947  3.07947  0.00000 -0.15893
      12     H     0.41064  0.41064  0.00000  0.17871
      13     H     0.42843  0.42843  0.00000  0.14314
      14     H     0.42987  0.42987  0.00000  0.14026

   Total alpha = 21.00000, Total beta = 21.00000, Total charge =  0.00000
