  ==> Input File <==

--------------------------------------------------------------------------
set {
	reference rhf
	basis 6-31G*
}

set_num_threads( 4 )
memory 2 gb

molecule MOL {
0 1

O	 -1.487788	 1.240889	 -0.102860
C	 -1.083277	 0.139568	 0.115197
C	 0.323299	 -0.082943	 0.642902
C	 -1.933017	 -1.084621	 -0.143902
C	 1.355627	 -0.005344	 -0.493127
H	 0.396251	 -1.044647	 1.143147
H	 0.528637	 0.693580	 1.371677
C	 1.014293	 1.076777	 -1.515747
H	 2.342953	 0.187877	 -0.079453
H	 1.405783	 -0.973113	 -0.981029
H	 1.753669	 1.107540	 -2.309515
H	 0.982170	 2.059410	 -1.053983
H	 0.045961	 0.892073	 -1.971011
H	 -1.393885	 -1.806447	 -0.750509
H	 -2.850323	 -0.799888	 -0.640100
H	 -2.169004	 -1.571158	 0.798858

	symmetry c1
}
set optking {
	frozen_dihedral = ("
		9 5 3 2
	")
}

ee = optimize('scf')
oeprop('DIPOLE', 'QUADRUPOLE', 'MULLIKEN_CHARGES')
f=open( 'psi4out.xyz', 'w' )
f.write( "16  " )
f.write( str(ee) + "\n" )
f.write( MOL.save_string_xyz() )
f.close()
--------------------------------------------------------------------------

    Molecular point group: c1
  Charge       = 0
  Multiplicity = 1
  Basis Set: 6-31G*
  Basis Set:
  @DF-RHF Final Energy:  -270.02347534194303
    Total Energy =                       -270.0234753419430263
    Molecular point group: c1
  Basis Set: 6-31G*
  Basis Set:
  Basis Set: 6-31G*
  Basis Set:
  @DF-RHF Final Energy:  -270.02598084821102
    Total Energy =                       -270.0259808482110202
  Basis Set: 6-31G*
  Basis Set:
  Basis Set: 6-31G*
  Basis Set:
  @DF-RHF Final Energy:  -270.02425275605134
    Total Energy =                       -270.0242527560512826
  Basis Set: 6-31G*
  Basis Set:
  Basis Set: 6-31G*
  Basis Set:
  @DF-RHF Final Energy:  -270.02669786137164
    Total Energy =                       -270.0266978613715878
  Basis Set: 6-31G*
  Basis Set:
  @DF-RHF Final Energy:  -270.02715882412724
    Total Energy =                       -270.0271588241275822
  @DF-RHF Final Energy:  -270.02735928217101
    Total Energy =                       -270.0273592821711190
  Basis Set: 6-31G*
  Basis Set:
  @DF-RHF Final Energy:  -270.02742067325079
    Total Energy =                       -270.0274206732510720
  Basis Set: 6-31G*
  Basis Set:
  Basis Set: 6-31G*
  Basis Set:
  @DF-RHF Final Energy:  -270.02745245573072
    Total Energy =                       -270.0274524557304403
  Basis Set: 6-31G*
  Basis Set:
  Basis Set: 6-31G*
  Basis Set:
  @DF-RHF Final Energy:  -270.02745461397819
    Total Energy =                       -270.0274546139780796
  Basis Set: 6-31G*
  Basis Set:
  Charge       = 0
  Multiplicity = 1
  Basis Set: 6-31G*
  Basis Set:

    Orbital Energies (a.u.)
    -----------------------

    Doubly Occupied:

       1A    -20.548871     2A    -11.324608     3A    -11.235352
       4A    -11.229899     5A    -11.228096     6A    -11.216418
       7A     -1.394216     8A     -1.081902     9A     -1.009169
      10A     -0.950256    11A     -0.834930    12A     -0.727835
      13A     -0.654120    14A     -0.646653    15A     -0.623428
      16A     -0.605298    17A     -0.578254    18A     -0.559897
      19A     -0.535584    20A     -0.506510    21A     -0.505298
      22A     -0.483252    23A     -0.474124    24A     -0.398108

  @DF-RHF Final Energy:  -270.02745490296127

   => Energetics <=

    Nuclear Repulsion Energy =            243.0269194012045944
    One-Electron Energy =                -847.4045947013046316
    Two-Electron Energy =                 334.3502203971388553
    DFT Exchange-Correlation Energy =       0.0000000000000000
    Empirical Dispersion Energy =           0.0000000000000000
    PCM Polarization Energy =               0.0000000000000000
    EFP Energy =                            0.0000000000000000
    Total Energy =                       -270.0274549029611535
    Molecular point group: c1
  Basis Set: 6-31G*
  Basis Set:

  -Total Gradient:
     Atom            X                  Y                   Z
    ------   -----------------  -----------------  -----------------
       1        0.000004439317    -0.000001830000     0.000003430645
       2        0.000390994853     0.003555811291     0.000135076571
       3       -0.000707092073    -0.004007333210    -0.000418001912
       4       -0.000034284103    -0.000017635793     0.000056140363
       5        0.001069856238    -0.004194419091     0.001088751669
       6        0.000003368395     0.000003809594     0.000003302916
       7        0.000002409952     0.000005853713     0.000006104996
       8        0.000002977165     0.000004097517    -0.000016368758
       9       -0.000754378125     0.004643570076    -0.000832067761
      10       -0.000005471200    -0.000000227942     0.000004474721
      11        0.000005991677    -0.000001789283     0.000000452892
      12       -0.000002461629    -0.000002694293    -0.000002203326
      13       -0.000000669346     0.000001960035     0.000002902605
      14        0.000010639284     0.000014376679    -0.000011493995
      15        0.000003554312     0.000003251284    -0.000004358740
      16        0.000010125283    -0.000006800578    -0.000016142889

  **** Optimization is complete! (in 10 steps) ****
    Final optimized geometry and variables:
    Molecular point group: c1

    Geometry (in Angstrom), charge = 0, multiplicity = 1:

    O           -1.336944401789     1.008681318590     0.581359612745
    C           -0.784662747073    -0.042362532383     0.464477516628
    C            0.665511867007    -0.220411984436     0.877835225939
    C           -1.501442300049    -1.252900872973    -0.095706252187
    C            1.651064113999    -0.273000170809    -0.310495980552
    H            0.769600657830    -1.122377613435     1.475040878023
    H            0.906831880539     0.627464156513     1.507752055337
    C            1.347768224783     0.737870876342    -1.420691353716
    H            2.637605725621    -0.042206658239     0.078474424338
    H            1.692712098510    -1.275287222833    -0.725755277989
    H            2.136225724224     0.725987018632    -2.166243510408
    H            1.275376921168     1.744699904526    -1.022865588299
    H            0.413768228551     0.521895488871    -1.929617767455
    H           -0.924683477428    -1.716670051049    -0.890007330105
    H           -2.473492250227    -0.963653437057    -0.470443820893
    H           -1.626125203163    -1.996604738450     0.686888092492

  Mulliken Charges: (a.u.)
   Center  Symbol    Alpha    Beta     Spin     Total
       1     O     4.26167  4.26167  0.00000 -0.52333
       2     C     2.73550  2.73550  0.00000  0.52900
       3     C     3.20309  3.20309  0.00000 -0.40617
       4     C     3.28961  3.28961  0.00000 -0.57921
       5     C     3.16093  3.16093  0.00000 -0.32186
       6     H     0.41298  0.41298  0.00000  0.17404
       7     H     0.40032  0.40032  0.00000  0.19937
       8     C     3.24677  3.24677  0.00000 -0.49353
       9     H     0.41205  0.41205  0.00000  0.17591
      10     H     0.41865  0.41865  0.00000  0.16270
      11     H     0.41665  0.41665  0.00000  0.16670
      12     H     0.40975  0.40975  0.00000  0.18049
      13     H     0.41868  0.41868  0.00000  0.16265
      14     H     0.40955  0.40955  0.00000  0.18090
      15     H     0.39676  0.39676  0.00000  0.20648
      16     H     0.40706  0.40706  0.00000  0.18588

   Total alpha = 24.00000, Total beta = 24.00000, Total charge =  0.00000
