                              Psi4 1.0.54 Driver

  ==> Input File <==

--------------------------------------------------------------------------
set {
	reference rhf
	basis cc-pvtz
}

set_num_threads( 4 )
memory 2 gb

molecule MOL {
0 1

H	 -2.039638	 -1.012565	 1.342259
N	 -1.258212	 -0.393129	 1.306975
C	 -0.561396	 -0.500007	 0.035200
H	 -0.655337	 -0.635770	 2.065264
C	 0.575129	 0.507849	 -0.048832
H	 -1.277498	 -0.296378	 -0.754072
H	 -0.166856	 -1.500062	 -0.150926
C	 1.951750	 -0.141983	 0.035101
H	 0.478254	 1.061643	 -0.975981
H	 0.467676	 1.231891	 0.755499
H	 2.101550	 -0.848142	 -0.774949
H	 2.738260	 0.600794	 -0.026526
H	 2.078939	 -0.679792	 0.968824

	symmetry c1
}
set optking {
	frozen_dihedral = ("
		6 3 5 9
	")
}

ee,wfn = optimize('scf', return_wfn=True)
oeprop( wfn, 'DIPOLE', 'QUADRUPOLE', 'MULLIKEN_CHARGES')
f=open( 'psi4out.xyz', 'w' )
f.write( "13  " )
f.write( str(ee) + "\n" )
f.write( MOL.save_string_xyz() )
f.close()
--------------------------------------------------------------------------

    Molecular point group: c1
  Charge       = 0
  Multiplicity = 1
  Basis Set: CC-PVTZ
  Basis Set:
  @DF-RHF Final Energy:  -173.34632036721516
    Total Energy =                       -173.3463203672150712
    Molecular point group: c1
  Basis Set: CC-PVTZ
  Basis Set:
  Basis Set: CC-PVTZ
  Basis Set:
  @DF-RHF Final Energy:  -173.34668704553209
    Total Energy =                       -173.3466870455322635
  Basis Set: CC-PVTZ
  Basis Set:
  Basis Set: CC-PVTZ
  Basis Set:
  @DF-RHF Final Energy:  -173.34686266324337
    Total Energy =                       -173.3468626632434564
  Basis Set: CC-PVTZ
  Basis Set:
  Basis Set: CC-PVTZ
  Basis Set:
  @DF-RHF Final Energy:  -173.34686524076909
    Total Energy =                       -173.3468652407693185
  Basis Set: CC-PVTZ
  Basis Set:
  Charge       = 0
  Multiplicity = 1
  Basis Set: CC-PVTZ
  Basis Set:

    Orbital Energies (a.u.)
    -----------------------

    Doubly Occupied:

       1A    -15.527377     2A    -11.238456     3A    -11.210326
       4A    -11.208300     5A     -1.177784     6A     -1.033648
       7A     -0.902537     8A     -0.798033     9A     -0.667383
      10A     -0.629513    11A     -0.591724    12A     -0.563527
      13A     -0.550412    14A     -0.487247    15A     -0.477835
      16A     -0.465564    17A     -0.383062

  @DF-RHF Final Energy:  -173.34686567215132

   => Energetics <=

    Nuclear Repulsion Energy =            132.4712543563249767
    One-Electron Energy =                -495.8107902510968188
    Two-Electron Energy =                 189.9926702226204611
    DFT Exchange-Correlation Energy =       0.0000000000000000
    Empirical Dispersion Energy =           0.0000000000000000
    PCM Polarization Energy =               0.0000000000000000
    EFP Energy =                            0.0000000000000000
    Total Energy =                       -173.3468656721514094
    Molecular point group: c1
  Basis Set: CC-PVTZ
  Basis Set:

  -Total Gradient:
     Atom            X                  Y                   Z
    ------   -----------------  -----------------  -----------------
       1       -0.000050867687    -0.000015473860     0.000011703519
       2        0.000021333511     0.000022625166    -0.000011955877
       3       -0.001914726927     0.002698808138     0.002763460890
       4        0.000020504213    -0.000005857454     0.000026789013
       5        0.002188051929    -0.002920835386    -0.002402808582
       6        0.001286048286    -0.001770356402    -0.001961465886
       7       -0.000000590074    -0.000024649522    -0.000002520910
       8       -0.000028137661    -0.000022856696     0.000028183443
       9       -0.001525422106     0.002007207312     0.001534785781
      10       -0.000006749550     0.000024547388     0.000017245270
      11       -0.000004567542     0.000005483969    -0.000009332741
      12       -0.000001824654     0.000011452720     0.000004702349
      13        0.000016948261    -0.000010095375     0.000001213731

  **** Optimization is complete! (in 5 steps) ****
    Final optimized geometry and variables:
    Molecular point group: c1

    Geometry (in Angstrom), charge = 0, multiplicity = 1:

    H           -2.173695833155    -0.872171508396     1.045089298989
    N           -1.395584758971    -0.248090647136     1.002247078784
    C           -0.770965389412    -0.287143792973    -0.312578177399
    H           -0.751643962813    -0.537221434970     1.709378915068
    C            0.429398186297     0.669186041015    -0.398007200553
    H           -1.516262373680    -0.011654848103    -1.048504288158
    H           -0.443115794665    -1.290684918369    -0.586758181999
    C            1.783539113860    -0.032879364905    -0.385901905046
    H            0.342569172430     1.289456039342    -1.283284344252
    H            0.367311526776     1.354743055204     0.439869435473
    H            1.898453236297    -0.680844365717    -1.248175834606
    H            2.596582802862     0.683915120131    -0.399990620441
    H            1.901232188310    -0.645901421740     0.502489884385

  Mulliken Charges: (a.u.)
   Center  Symbol    Alpha    Beta     Spin     Total
       1     H     0.42990  0.42990  0.00000  0.14021
       2     N     3.68718  3.68718  0.00000 -0.37436
       3     C     3.02908  3.02908  0.00000 -0.05816
       4     H     0.43110  0.43110  0.00000  0.13779
       5     C     3.09295  3.09295  0.00000 -0.18591
       6     H     0.45376  0.45376  0.00000  0.09248
       7     H     0.46930  0.46930  0.00000  0.06140
       8     C     3.14555  3.14555  0.00000 -0.29111
       9     H     0.45044  0.45044  0.00000  0.09912
      10     H     0.44816  0.44816  0.00000  0.10369
      11     H     0.45558  0.45558  0.00000  0.08885
      12     H     0.44913  0.44913  0.00000  0.10174
      13     H     0.45786  0.45786  0.00000  0.08428

   Total alpha = 17.00000, Total beta = 17.00000, Total charge =  0.00000

*** Psi4 exiting successfully. Buy a developer a beer!
