  ==> Input File <==

--------------------------------------------------------------------------
set {
	reference rhf
	basis 6-31G*
}

set_num_threads( 4 )
memory 2 gb

molecule MOL {
0 1

H	 4.733570	 2.713882	 -1.260835
C	 3.913632	 2.497869	 -1.938745
C	 2.793217	 1.740816	 -1.226904
H	 3.554281	 3.442995	 -2.334908
H	 4.313502	 1.921325	 -2.768505
C	 1.622829	 1.413920	 -2.157036
H	 2.436096	 2.332655	 -0.390368
H	 3.191485	 0.816464	 -0.811396
C	 0.493392	 0.640080	 -1.476735
H	 1.220953	 2.331415	 -2.572178
H	 1.988039	 0.821326	 -2.992796
C	 -0.317344	 1.458773	 -0.482908
H	 -0.208765	 0.279516	 -2.226894
H	 0.875526	 -0.249241	 -0.980492
C	 -1.181045	 0.701995	 0.511084
O	 -0.294741	 2.652860	 -0.490152
C	 -2.285934	 -0.139295	 -0.145128
H	 -1.616067	 1.437488	 1.177058
H	 -0.538713	 0.053477	 1.103974
C	 -3.651768	 0.085446	 0.506485
H	 -2.346596	 0.110469	 -1.202272
H	 -2.034737	 -1.195320	 -0.088721
C	 -4.759797	 -0.746382	 -0.137905
H	 -3.908762	 1.140117	 0.445781
H	 -3.588286	 -0.154158	 1.565709
H	 -4.868882	 -0.505166	 -1.191300
H	 -4.548009	 -1.809175	 -0.062213
H	 -5.715422	 -0.564821	 0.343442

	symmetry c1
}
set optking {
	frozen_dihedral = ("
		12 15 17 21
	")
}

ee = optimize('scf')
oeprop('DIPOLE', 'QUADRUPOLE', 'MULLIKEN_CHARGES')
f=open( 'psi4out.xyz', 'w' )
f.write( "28  " )
f.write( str(ee) + "\n" )
f.write( MOL.save_string_xyz() )
f.close()
--------------------------------------------------------------------------

    Molecular point group: c1
  Charge       = 0
  Multiplicity = 1
  Basis Set: 6-31G*
  Basis Set:
  @DF-RHF Final Energy:  -426.16421190942822
    Total Energy =                       -426.1642119094282180
    Molecular point group: c1
  Basis Set: 6-31G*
  Basis Set:
  Basis Set: 6-31G*
  Basis Set:
  @DF-RHF Final Energy:  -426.16452484533204
    Total Energy =                       -426.1645248453314707
  Basis Set: 6-31G*
  Basis Set:
  Basis Set: 6-31G*
  Basis Set:
  @DF-RHF Final Energy:  -426.16268479683754
    Total Energy =                       -426.1626847968381071
  Basis Set: 6-31G*
  Basis Set:
  Basis Set: 6-31G*
  Basis Set:
  @DF-RHF Final Energy:  -426.16473638267166
    Total Energy =                       -426.1647363826714354
  Basis Set: 6-31G*
  Basis Set:
  @DF-RHF Final Energy:  -426.16489189354297
    Total Energy =                       -426.1648918935425172
  @DF-RHF Final Energy:  -426.16501417704296
    Total Energy =                       -426.1650141770426217
  @DF-RHF Final Energy:  -426.16503068019722
    Total Energy =                       -426.1650306801974466
  Basis Set: 6-31G*
  Basis Set:
  @DF-RHF Final Energy:  -426.16504629962901
    Total Energy =                       -426.1650462996290116
  Basis Set: 6-31G*
  Basis Set:
  Basis Set: 6-31G*
  Basis Set:
  @DF-RHF Final Energy:  -426.16504988424174
    Total Energy =                       -426.1650498842420802
  Basis Set: 6-31G*
  Basis Set:
  Basis Set: 6-31G*
  Basis Set:
  @DF-RHF Final Energy:  -426.16505119996475
    Total Energy =                       -426.1650511999644095
  Basis Set: 6-31G*
  Basis Set:
  Charge       = 0
  Multiplicity = 1
  Basis Set: 6-31G*
  Basis Set:

    Orbital Energies (a.u.)
    -----------------------

    Doubly Occupied:

       1A    -20.547835     2A    -11.322286     3A    -11.232134
       4A    -11.230459     5A    -11.228018     6A    -11.223754
       7A    -11.216113     8A    -11.214195     9A    -11.209957
      10A    -11.204408    11A     -1.393325    12A     -1.091846
      13A     -1.076418    14A     -1.022065    15A     -0.989214
      16A     -0.908070    17A     -0.870623    18A     -0.808496
      19A     -0.797820    20A     -0.725515    21A     -0.671088
      22A     -0.641995    23A     -0.629398    24A     -0.617459
      25A     -0.606979    26A     -0.586237    27A     -0.579351
      28A     -0.572192    29A     -0.536420    30A     -0.531670
      31A     -0.527892    32A     -0.508891    33A     -0.500169
      34A     -0.479956    35A     -0.477962    36A     -0.471003
      37A     -0.467654    38A     -0.463188    39A     -0.455124
      40A     -0.391840

  @DF-RHF Final Energy:  -426.16505171414030

   => Energetics <=

    Nuclear Repulsion Energy =            531.5817014828115816
    One-Electron Energy =               -1631.4354665616688180
    Two-Electron Energy =                 673.6887133647167047
    DFT Exchange-Correlation Energy =       0.0000000000000000
    Empirical Dispersion Energy =           0.0000000000000000
    PCM Polarization Energy =               0.0000000000000000
    EFP Energy =                            0.0000000000000000
    Total Energy =                       -426.1650517141404180
    Molecular point group: c1
  Basis Set: 6-31G*
  Basis Set:

  -Total Gradient:
     Atom            X                  Y                   Z
    ------   -----------------  -----------------  -----------------
       1        0.000001802906     0.000002778904    -0.000000231133
       2       -0.000001266910     0.000000590752     0.000000781264
       3       -0.000005511801     0.000000687348    -0.000001422565
       4       -0.000001008046    -0.000003976328     0.000000418264
       5        0.000001733639    -0.000001027762     0.000001369190
       6        0.000002262809     0.000002424584     0.000001899238
       7        0.000003384113     0.000003079292     0.000000238683
       8       -0.000002775873    -0.000000712880    -0.000001246129
       9       -0.000026681698    -0.000016254992    -0.000027531394
      10       -0.000001173715    -0.000001011323     0.000001260825
      11       -0.000000080261    -0.000000411226    -0.000000699742
      12       -0.000956176469     0.001683793684     0.000473414002
      13        0.000014756079     0.000001477880     0.000002788381
      14       -0.000000393590     0.000000177280     0.000006078829
      15        0.001668651264    -0.002755660875    -0.000876216188
      16       -0.000001300399    -0.000020671143    -0.000000297336
      17       -0.002223740651     0.003146539918     0.001402239114
      18       -0.000008173875     0.000004899400     0.000002888183
      19        0.000005993278     0.000003985538    -0.000008119416
      20        0.000009572956     0.000000820108     0.000009212157
      21        0.001516637593    -0.002047735746    -0.000981037281
      22        0.000001072399    -0.000002505308     0.000000294518
      23        0.000001078357    -0.000002928411    -0.000001106727
      24        0.000003848917    -0.000001394962    -0.000002027113
      25       -0.000000307819     0.000001462609    -0.000003348644
      26       -0.000000169280     0.000000217022     0.000001436879
      27        0.000001068395     0.000002126101    -0.000000747309
      28       -0.000003102318    -0.000000769463    -0.000000288552

  **** Optimization is complete! (in 11 steps) ****
    Final optimized geometry and variables:
    Molecular point group: c1

    Geometry (in Angstrom), charge = 0, multiplicity = 1:

    H            4.875540974837     2.252204031365    -0.916999434517
    C            4.093168175193     1.761688204405    -1.487830386059
    C            3.176749749043     0.943888612499    -0.578729619316
    H            3.535115978058     2.531561410367    -2.012609087699
    H            4.572482864102     1.133255578983    -2.233751987670
    C            2.067735175087     0.229368860837    -1.354592125903
    H            2.733902778452     1.594694162917     0.166745852077
    H            3.770091207849     0.205513327520    -0.041559514890
    C            1.139496076243    -0.608025441248    -0.475351432038
    H            1.477605523319     0.959068993612    -1.899161565007
    H            2.520332831630    -0.425812483247    -2.095593386890
    C            0.158727949378     0.191617915584     0.365376993895
    H            0.549685869157    -1.289991107105    -1.086805729879
    H            1.713587408454    -1.246857975656     0.193793755600
    C           -0.786002781445    -0.599916933458     1.252579741853
    O            0.090464114928     1.382453136724     0.309552041891
    C           -2.013607665343    -1.123653293404     0.462095938984
    H           -1.111502121119     0.075356978795     2.034629139588
    H           -0.261943044795    -1.425444834746     1.723188931894
    C           -3.339564510629    -0.863768125905     1.178001932487
    H           -2.042829234209    -0.672868528861    -0.526984271282
    H           -1.903868845567    -2.191166048388     0.290015098499
    C           -4.542624673852    -1.415180360165     0.415069559127
    H           -3.458971142523     0.206554932220     1.324185517018
    H           -3.303500874522    -1.308149652710     2.170290823486
    H           -4.620951867534    -0.965842781692    -0.570778220150
    H           -4.465887537080    -2.490832497249     0.283360444359
    H           -5.467830505066    -1.212275699397     0.944958305466

  Mulliken Charges: (a.u.)
   Center  Symbol    Alpha    Beta     Spin     Total
       1     H     0.41943  0.41943  0.00000  0.16113
       2     C     3.24030  3.24030  0.00000 -0.48061
       3     C     3.15603  3.15603  0.00000 -0.31206
       4     H     0.41884  0.41884  0.00000  0.16232
       5     H     0.42420  0.42420  0.00000  0.15161
       6     C     3.14853  3.14853  0.00000 -0.29707
       7     H     0.40655  0.40655  0.00000  0.18690
       8     H     0.42825  0.42825  0.00000  0.14350
       9     C     3.21252  3.21252  0.00000 -0.42504
      10     H     0.40970  0.40970  0.00000  0.18061
      11     H     0.42218  0.42218  0.00000  0.15563
      12     C     2.73936  2.73936  0.00000  0.52128
      13     H     0.40529  0.40529  0.00000  0.18941
      14     H     0.40981  0.40981  0.00000  0.18039
      15     C     3.20008  3.20008  0.00000 -0.40017
      16     O     4.26605  4.26605  0.00000 -0.53211
      17     C     3.16046  3.16046  0.00000 -0.32091
      18     H     0.39896  0.39896  0.00000  0.20208
      19     H     0.41279  0.41279  0.00000  0.17442
      20     C     3.15364  3.15364  0.00000 -0.30728
      21     H     0.41372  0.41372  0.00000  0.17256
      22     H     0.41821  0.41821  0.00000  0.16357
      23     C     3.24154  3.24154  0.00000 -0.48308
      24     H     0.41469  0.41469  0.00000  0.17063
      25     H     0.42093  0.42093  0.00000  0.15815
      26     H     0.41956  0.41956  0.00000  0.16088
      27     H     0.42156  0.42156  0.00000  0.15687
      28     H     0.41681  0.41681  0.00000  0.16638

   Total alpha = 40.00000, Total beta = 40.00000, Total charge =  0.00000
