  ==> Input File <==

--------------------------------------------------------------------------
set {
	reference rhf
	basis cc-pvtz
}

set_num_threads( 4 )
memory 2 gb

molecule MOL {
0 1

H	 -0.000105	 1.988529	 0.748933
O	 -0.000098	 1.879786	 -0.188206
C	 -0.000014	 0.545691	 -0.532416
C	 -1.286000	 -0.125171	 -0.046657
C	 1.286016	 -0.125031	 -0.046584
H	 0.000021	 0.481103	 -1.610604
F	 -2.063820	 -0.365243	 -1.073410
F	 -1.055894	 -1.263184	 0.558065
F	 -1.948233	 0.652969	 0.782391
F	 2.317750	 0.468717	 -0.594166
F	 1.336617	 -1.393765	 -0.365123
F	 1.414467	 -0.024806	 1.259108

	symmetry c1
}
set optking {
	frozen_dihedral = ("
		7 4 3 6
	")
}

ee = optimize('scf')
oeprop('DIPOLE', 'QUADRUPOLE', 'MULLIKEN_CHARGES')
f=open( 'psi4out.xyz', 'w' )
f.write( "12  " )
f.write( str(ee) + "\n" )
f.write( MOL.save_string_xyz() )
f.close()
--------------------------------------------------------------------------

    Molecular point group: c1
  Charge       = 0
  Multiplicity = 1
  Basis Set: CC-PVTZ
  Basis Set:
  @DF-RHF Final Energy:  -786.58302194966598
    Total Energy =                       -786.5830219496655218
    Molecular point group: c1
  Basis Set: CC-PVTZ
  Basis Set:
  Basis Set: CC-PVTZ
  Basis Set:
  @DF-RHF Final Energy:  -786.58361372444574
    Total Energy =                       -786.5836137244452857
  Basis Set: CC-PVTZ
  Basis Set:
  Basis Set: CC-PVTZ
  Basis Set:
  @DF-RHF Final Energy:  -786.58412038250776
    Total Energy =                       -786.5841203825075354
  Basis Set: CC-PVTZ
  Basis Set:
  Basis Set: CC-PVTZ
  Basis Set:
  @DF-RHF Final Energy:  -786.58414993509780
    Total Energy =                       -786.5841499350977983
  Basis Set: CC-PVTZ
  Basis Set:
  Basis Set: CC-PVTZ
  Basis Set:
  @DF-RHF Final Energy:  -786.58418124271304
    Total Energy =                       -786.5841812427129298
  Basis Set: CC-PVTZ
  Basis Set:
  Basis Set: CC-PVTZ
  Basis Set:
  @DF-RHF Final Energy:  -786.58418506714349
    Total Energy =                       -786.5841850671434941
  Basis Set: CC-PVTZ
  Basis Set:
  Charge       = 0
  Multiplicity = 1
  Basis Set: CC-PVTZ
  Basis Set:

    Orbital Energies (a.u.)
    -----------------------

    Doubly Occupied:

       1A    -26.360711     2A    -26.356876     3A    -26.356006
       4A    -26.355982     5A    -26.355304     6A    -26.351846
       7A    -20.608106     8A    -11.523052     9A    -11.517300
      10A    -11.351753    11A     -1.772596    12A     -1.765560
      13A     -1.667183    14A     -1.664046    15A     -1.663516
      16A     -1.658902    17A     -1.438033    18A     -1.100076
      19A     -1.001168    20A     -0.944055    21A     -0.872810
      22A     -0.865949    23A     -0.858414    24A     -0.853667
      25A     -0.841650    26A     -0.820639    27A     -0.740574
      28A     -0.737898    29A     -0.734009    30A     -0.730236
      31A     -0.694803    32A     -0.691971    33A     -0.688009
      34A     -0.684072    35A     -0.675093    36A     -0.668687
      37A     -0.662866    38A     -0.653879    39A     -0.623112
      40A     -0.552776    41A     -0.508929

  @DF-RHF Final Energy:  -786.58418547234919

   => Energetics <=

    Nuclear Repulsion Energy =            669.7023235431699959
    One-Electron Energy =               -2426.6287953484043101
    Two-Electron Energy =                 970.3422863328845551
    DFT Exchange-Correlation Energy =       0.0000000000000000
    Empirical Dispersion Energy =           0.0000000000000000
    PCM Polarization Energy =               0.0000000000000000
    EFP Energy =                            0.0000000000000000
    Total Energy =                       -786.5841854723497590
    Molecular point group: c1
  Basis Set: CC-PVTZ
  Basis Set:

  -Total Gradient:
     Atom            X                  Y                   Z
    ------   -----------------  -----------------  -----------------
       1        0.000000384796     0.000014993603     0.000002475337
       2        0.000020104285    -0.000008638933     0.000009824709
       3        0.002086969843    -0.003986698975     0.000111454629
       4       -0.001741940230     0.003656359043     0.000412187039
       5       -0.000023800479    -0.000011882932    -0.000077531178
       6       -0.001484217594     0.002743196133    -0.000165540969
       7        0.001084829480    -0.002367353442    -0.000313864801
       8        0.000027493991    -0.000066065542    -0.000005365673
       9        0.000014444433     0.000007184812    -0.000046372648
      10        0.000002721559     0.000003763674     0.000013759146
      11        0.000003007734     0.000026982567     0.000030724301
      12        0.000010002182    -0.000011840012     0.000028250118

  **** Optimization is complete! (in 7 steps) ****
    Final optimized geometry and variables:
    Molecular point group: c1

    Geometry (in Angstrom), charge = 0, multiplicity = 1:

    H           -0.064687770930     2.048021667624     0.692679297319
    O            0.039279038520     1.899621492029    -0.232262033572
    C            0.011068733431     0.556359614098    -0.536171090328
    C           -1.291942120770    -0.118996810557    -0.032926317075
    C            1.287921812157    -0.124761991436    -0.047727186465
    H            0.002629722694     0.489302617715    -1.612661838283
    F           -2.090667270989    -0.365909594409    -1.044813594075
    F           -1.076142281048    -1.259845994840     0.577581255897
    F           -1.929701523845     0.658919747298     0.808548053993
    F            2.330896558475     0.502890110549    -0.530575613646
    F            1.355584406509    -1.372416211926    -0.441810612600
    F            1.375800796825    -0.094993645685     1.265023154484

  Mulliken Charges: (a.u.)
   Center  Symbol    Alpha    Beta     Spin     Total
       1     H     0.38152  0.38152  0.00000  0.23696
       2     O     4.18539  4.18539  0.00000 -0.37077
       3     C     3.02297  3.02297  0.00000 -0.04593
       4     C     2.67327  2.67327  0.00000  0.65346
       5     C     2.67837  2.67837  0.00000  0.64326
       6     H     0.42741  0.42741  0.00000  0.14519
       7     F     4.60457  4.60457  0.00000 -0.20914
       8     F     4.60196  4.60196  0.00000 -0.20392
       9     F     4.60644  4.60644  0.00000 -0.21289
      10     F     4.60110  4.60110  0.00000 -0.20219
      11     F     4.60517  4.60517  0.00000 -0.21033
      12     F     4.61184  4.61184  0.00000 -0.22368

   Total alpha = 41.00000, Total beta = 41.00000, Total charge = -0.00000
