  ==> Input File <==

--------------------------------------------------------------------------
set {
	reference rhf
	basis 6-31G*
}

set_num_threads( 4 )
memory 2 gb

molecule MOL {
0 1

H	 -1.540162	 -1.174296	 -0.769531
O	 -2.310168	 -0.871793	 -0.309793
C	 -2.026376	 0.340750	 0.341611
C	 -0.673256	 0.843270	 -0.132153
H	 -2.792215	 1.080697	 0.115987
H	 -2.013526	 0.200402	 1.421792
C	 0.486613	 -0.083066	 0.235839
H	 -0.715586	 0.970948	 -1.210718
H	 -0.508072	 1.829858	 0.297090
C	 1.840406	 0.433480	 -0.254303
H	 0.300215	 -1.068318	 -0.178947
H	 0.519509	 -0.203625	 1.318070
C	 3.000220	 -0.489290	 0.118523
H	 1.809207	 0.553576	 -1.335192
H	 2.021860	 1.424500	 0.157276
H	 2.864959	 -1.479103	 -0.307933
H	 3.946603	 -0.099227	 -0.243630
H	 3.080049	 -0.602997	 1.196117

	symmetry c1
}
set optking {
	frozen_dihedral = ("
		1 2 3 4
	")
}

ee = optimize('scf')
oeprop('DIPOLE', 'QUADRUPOLE', 'MULLIKEN_CHARGES')
f=open( 'psi4out.xyz', 'w' )
f.write( "18  " )
f.write( str(ee) + "\n" )
f.write( MOL.save_string_xyz() )
f.close()
--------------------------------------------------------------------------

    Molecular point group: c1
  Charge       = 0
  Multiplicity = 1
  Basis Set: 6-31G*
  Basis Set:
  @DF-RHF Final Energy:  -271.17399893156619
    Total Energy =                       -271.1739989315660750
    Molecular point group: c1
  Basis Set: 6-31G*
  Basis Set:
  Basis Set: 6-31G*
  Basis Set:
  @DF-RHF Final Energy:  -271.17549804389995
    Total Energy =                       -271.1754980439001201
  Basis Set: 6-31G*
  Basis Set:
  Basis Set: 6-31G*
  Basis Set:
  @DF-RHF Final Energy:  -271.17637325434316
    Total Energy =                       -271.1763732543429342
  Basis Set: 6-31G*
  Basis Set:
  Basis Set: 6-31G*
  Basis Set:
  @DF-RHF Final Energy:  -271.17642273378254
    Total Energy =                       -271.1764227337826583
  Basis Set: 6-31G*
  Basis Set:
  Basis Set: 6-31G*
  Basis Set:
  @DF-RHF Final Energy:  -271.17642927785710
    Total Energy =                       -271.1764292778570962
  Basis Set: 6-31G*
  Basis Set:
  Charge       = 0
  Multiplicity = 1
  Basis Set: 6-31G*
  Basis Set:

    Orbital Energies (a.u.)
    -----------------------

    Doubly Occupied:

       1A    -20.548422     2A    -11.266494     3A    -11.225743
       4A    -11.224682     5A    -11.223287     6A    -11.214437
       7A     -1.355959     8A     -1.087259     9A     -1.015585
      10A     -0.923491    11A     -0.835562    12A     -0.799436
      13A     -0.666333    14A     -0.659350    15A     -0.630175
      16A     -0.612931    17A     -0.577822    18A     -0.560730
      19A     -0.540358    20A     -0.503725    21A     -0.496898
      22A     -0.480004    23A     -0.473176    24A     -0.450418
      25A     -0.428668

  @DF-RHF Final Energy:  -271.17643011571136

   => Energetics <=

    Nuclear Repulsion Energy =            248.7281818588888882
    One-Electron Energy =                -860.2073300970835135
    Two-Electron Energy =                 340.3027181224829860
    DFT Exchange-Correlation Energy =       0.0000000000000000
    Empirical Dispersion Energy =           0.0000000000000000
    PCM Polarization Energy =               0.0000000000000000
    EFP Energy =                            0.0000000000000000
    Total Energy =                       -271.1764301157116392
    Molecular point group: c1
  Basis Set: 6-31G*
  Basis Set:

  -Total Gradient:
     Atom            X                  Y                   Z
    ------   -----------------  -----------------  -----------------
       1       -0.000191375009     0.000244273125    -0.000455394642
       2        0.000421101053    -0.000510106182     0.000536618767
       3       -0.000385079700     0.000384583169    -0.000354909549
       4        0.000098878619    -0.000289755045     0.000100381857
       5        0.000033304240     0.000088267303     0.000029946643
       6        0.000032826158     0.000055509666     0.000039657285
       7       -0.000005490875     0.000011577280     0.000045525960
       8        0.000012403953     0.000028090479    -0.000018482565
       9       -0.000023886283    -0.000027224373     0.000031670934
      10       -0.000006209825    -0.000008883858     0.000021165413
      11        0.000014343175     0.000021593129     0.000015476613
      12        0.000026832980     0.000012553468     0.000026692803
      13       -0.000019516000    -0.000021961263    -0.000035071238
      14       -0.000007423653     0.000016754324     0.000005262231
      15        0.000009406784    -0.000009184939     0.000022319827
      16        0.000000759955    -0.000008311888     0.000004950063
      17       -0.000005687309     0.000000344373    -0.000011848287
      18       -0.000005188262     0.000011881231    -0.000003962114

  **** Optimization is complete! (in 6 steps) ****
    Final optimized geometry and variables:
    Molecular point group: c1

    Geometry (in Angstrom), charge = 0, multiplicity = 1:

    H           -1.749144358552    -1.238862712538    -0.781153209385
    O           -2.451883106780    -0.856846285286    -0.278157380920
    C           -2.027500209088     0.334588245497     0.338454192551
    C           -0.665954341926     0.825650903221    -0.140896404670
    H           -2.778058825448     1.090742610398     0.135555968032
    H           -2.002158165930     0.182771316181     1.414772760890
    C            0.501800512529    -0.091401063560     0.236148164753
    H           -0.700090668253     0.960172658878    -1.221031871076
    H           -0.494620706230     1.811236494429     0.285695254356
    C            1.855637425894     0.438095289636    -0.240317509927
    H            0.351635291198    -1.087750053516    -0.177089425041
    H            0.521837378090    -0.216248022432     1.316979435742
    C            3.019726026355    -0.478611151283     0.133239815405
    H            1.831303680356     0.569940554656    -1.319899699555
    H            2.023238049376     1.425811500008     0.183420952466
    H            2.898598950609    -1.465423843508    -0.304594450484
    H            3.964624438283    -0.075500478115    -0.217215660039
    H            3.091530902324    -0.602174225918     1.210012720562

  Mulliken Charges: (a.u.)
   Center  Symbol    Alpha    Beta     Spin     Total
       1     H     0.27794  0.27794  0.00000  0.44412
       2     O     4.37933  4.37933  0.00000 -0.75866
       3     C     2.97508  2.97508  0.00000  0.04984
       4     C     3.18743  3.18743  0.00000 -0.37487
       5     H     0.42115  0.42115  0.00000  0.15769
       6     H     0.42797  0.42797  0.00000  0.14406
       7     C     3.15471  3.15471  0.00000 -0.30942
       8     H     0.41848  0.41848  0.00000  0.16304
       9     H     0.41707  0.41707  0.00000  0.16586
      10     C     3.15112  3.15112  0.00000 -0.30223
      11     H     0.42881  0.42881  0.00000  0.14238
      12     H     0.41847  0.41847  0.00000  0.16306
      13     C     3.23975  3.23975  0.00000 -0.47951
      14     H     0.42202  0.42202  0.00000  0.15597
      15     H     0.42127  0.42127  0.00000  0.15746
      16     H     0.42124  0.42124  0.00000  0.15752
      17     H     0.41778  0.41778  0.00000  0.16445
      18     H     0.42038  0.42038  0.00000  0.15923

   Total alpha = 25.00000, Total beta = 25.00000, Total charge = -0.00000
