                              Psi4 1.0.54 Driver

  ==> Input File <==

--------------------------------------------------------------------------
set {
	reference rhf
	basis cc-pvtz
}

set_num_threads( 4 )
memory 2 gb

molecule MOL {
0 1

H	 -2.739589	 -0.187617	 0.927643
O	 -2.346257	 -0.289210	 0.080372
C	 -1.183935	 0.486039	 -0.009831
C	 0.062853	 -0.375310	 0.027457
H	 -1.178881	 1.094526	 -0.908634
H	 -1.184406	 1.155156	 0.838676
O	 1.172093	 0.457955	 -0.054438
H	 0.052476	 -1.081302	 -0.804627
H	 0.076323	 -0.955658	 0.947560
C	 2.395478	 -0.199028	 -0.000366
H	 2.505946	 -0.901710	 -0.823354
H	 3.174616	 0.545641	 -0.071768
H	 2.513730	 -0.742241	 0.934223

	symmetry c1
}
set optking {
	frozen_dihedral = ("
		1 2 3 5
	")
}

ee,wfn = optimize('scf', return_wfn=True)
oeprop( wfn, 'DIPOLE', 'QUADRUPOLE', 'MULLIKEN_CHARGES')
f=open( 'psi4out.xyz', 'w' )
f.write( "13  " )
f.write( str(ee) + "\n" )
f.write( MOL.save_string_xyz() )
f.close()
--------------------------------------------------------------------------

    Molecular point group: c1
  Charge       = 0
  Multiplicity = 1
  Basis Set: CC-PVTZ
  Basis Set:
  @DF-RHF Final Energy:  -268.06027473574750
    Total Energy =                       -268.0602747357477256
    Molecular point group: c1
  Basis Set: CC-PVTZ
  Basis Set:
  Basis Set: CC-PVTZ
  Basis Set:
  @DF-RHF Final Energy:  -268.03104405402286
    Total Energy =                       -268.0310440540226864
  Basis Set: CC-PVTZ
  Basis Set:
  Basis Set: CC-PVTZ
  Basis Set:
  @DF-RHF Final Energy:  -268.06087344991738
    Total Energy =                       -268.0608734499175512
  Basis Set: CC-PVTZ
  Basis Set:
  Basis Set: CC-PVTZ
  Basis Set:
  @DF-RHF Final Energy:  -268.06153948360208
    Total Energy =                       -268.0615394836022460
  Basis Set: CC-PVTZ
  Basis Set:
  Basis Set: CC-PVTZ
  Basis Set:
  @DF-RHF Final Energy:  -268.06155223136693
    Total Energy =                       -268.0615522313668180
  Basis Set: CC-PVTZ
  Basis Set:
  Charge       = 0
  Multiplicity = 1
  Basis Set: CC-PVTZ
  Basis Set:

    Orbital Energies (a.u.)
    -----------------------

    Doubly Occupied:

       1A    -20.553534     2A    -20.551607     3A    -11.267913
       4A    -11.265792     5A    -11.265523     6A     -1.389451
       7A     -1.367734     8A     -1.019221     9A     -0.912692
      10A     -0.836520    11A     -0.715617    12A     -0.678175
      13A     -0.652773    14A     -0.642569    15A     -0.603249
      16A     -0.556704    17A     -0.548667    18A     -0.490532
      19A     -0.482133    20A     -0.440926    21A     -0.422069

  @DF-RHF Final Energy:  -268.06155304673518

   => Energetics <=

    Nuclear Repulsion Energy =            190.4223705598657546
    One-Electron Energy =                -743.6410441287980575
    Two-Electron Energy =                 285.1571205221973173
    DFT Exchange-Correlation Energy =       0.0000000000000000
    Empirical Dispersion Energy =           0.0000000000000000
    PCM Polarization Energy =               0.0000000000000000
    EFP Energy =                            0.0000000000000000
    Total Energy =                       -268.0615530467350140
    Molecular point group: c1
  Basis Set: CC-PVTZ
  Basis Set:

  -Total Gradient:
     Atom            X                  Y                   Z
    ------   -----------------  -----------------  -----------------
       1       -0.000385623493     0.000430882840    -0.000046773158
       2        0.000346121551    -0.000512557160     0.000177726723
       3        0.000241088840    -0.000227866919    -0.000489068160
       4       -0.000025571981     0.000024842678     0.000011652097
       5       -0.000216537330     0.000261695883     0.000343732564
       6        0.000007745651    -0.000003636939     0.000004586143
       7        0.000051434069     0.000040119164     0.000006405094
       8       -0.000012909448    -0.000002157280    -0.000007892780
       9       -0.000007099325    -0.000005315133     0.000003242945
      10        0.000000747774    -0.000001377542    -0.000002064981
      11        0.000005847580    -0.000002796661    -0.000013554258
      12       -0.000006934529     0.000003686954     0.000001206556
      13        0.000001690642    -0.000005519886     0.000010801216

  **** Optimization is complete! (in 6 steps) ****
    Final optimized geometry and variables:
    Molecular point group: c1

    Geometry (in Angstrom), charge = 0, multiplicity = 1:

    H           -2.679998265557    -0.741156667854     0.852307337687
    O           -2.290074917856    -0.529089086230     0.026472757016
    C           -1.212665025041     0.353174586347     0.200610737086
    C            0.092006400279    -0.357796074716    -0.090855771605
    H           -1.331234115274     1.185921238811    -0.480743241516
    H           -1.186919691692     0.757680994389     1.206409373767
    O            1.128439771602     0.559447911001     0.045923353618
    H            0.063109455464    -0.766621877259    -1.098716582030
    H            0.219794312931    -1.191933994968     0.597996440623
    C            2.391933175740     0.047818540213    -0.222873562601
    H            2.464079904478    -0.315867816273    -1.245241586053
    H            3.108332693342     0.844488793151    -0.085094391523
    H            2.641980166783    -0.768667145921     0.450987593565

  Mulliken Charges: (a.u.)
   Center  Symbol    Alpha    Beta     Spin     Total
       1     H     0.38974  0.38974  0.00000  0.22053
       2     O     4.20648  4.20648  0.00000 -0.41296
       3     C     2.97354  2.97354  0.00000  0.05291
       4     C     2.95823  2.95823  0.00000  0.08355
       5     H     0.45868  0.45868  0.00000  0.08264
       6     H     0.46860  0.46860  0.00000  0.06279
       7     O     4.17648  4.17648  0.00000 -0.35297
       8     H     0.47068  0.47068  0.00000  0.05863
       9     H     0.47857  0.47857  0.00000  0.04285
      10     C     3.03113  3.03113  0.00000 -0.06225
      11     H     0.47000  0.47000  0.00000  0.06000
      12     H     0.44668  0.44668  0.00000  0.10664
      13     H     0.47118  0.47118  0.00000  0.05763

   Total alpha = 21.00000, Total beta = 21.00000, Total charge =  0.00000

*** Psi4 exiting successfully. Buy a developer a beer!
