  ==> Input File <==

--------------------------------------------------------------------------
set {
	reference rhf
	basis 6-31G*
}

set_num_threads( 1 )
memory 2 gb

molecule MOL {
0 1

H	 1.597736	 -2.704271	 -1.635715
O	 1.541822	 -2.227990	 -0.813045
C	 0.767240	 -1.160518	 -1.005248
C	 0.624473	 -0.343591	 0.253101
O	 0.270880	 -0.921871	 -2.057716
C	 -0.265902	 0.883932	 0.072916
H	 0.249776	 -1.010225	 1.022889
H	 1.625603	 -0.059767	 0.567640
C	 -1.728698	 0.646073	 0.462102
H	 -0.209144	 1.219470	 -0.958188
H	 0.135059	 1.692851	 0.673903
C	 -2.482460	 -0.343073	 -0.431425
H	 -2.245265	 1.602650	 0.432430
H	 -1.779332	 0.308348	 1.496285
C	 -3.960546	 -0.461025	 -0.060175
H	 -2.395034	 -0.026811	 -1.468912
H	 -2.024850	 -1.327147	 -0.371646
H	 -4.472726	 -1.168004	 -0.705284
H	 -4.465146	 0.496508	 -0.151489
H	 -4.081218	 -0.800940	 0.964585

	symmetry c1
}
set optking {
	frozen_dihedral = ("
		16 12 9 6,
		12 9 6 10,
		5 3 4 7,
		1 2 3 5
	")
}

ee = energy('scf')
oeprop('DIPOLE', 'QUADRUPOLE', 'MULLIKEN_CHARGES')
f=open( 'psi4out.xyz', 'w' )
f.write( "20  " )
f.write( str(ee) + "\n" )
f.write( MOL.save_string_xyz() )
f.close()
--------------------------------------------------------------------------

    Molecular point group: c1

    Geometry (in Angstrom), charge = 0, multiplicity = 1:

       Center              X                  Y                   Z               Mass
    ------------   -----------------  -----------------  -----------------  -----------------
           H          2.233161818337    -2.174382550649    -1.165736374035     1.007825032070
           O          2.177247818337    -1.698101550649    -0.343066374035    15.994914619560
           C          1.402665818337    -0.630629550649    -0.535269374035    12.000000000000
           C          1.259898818337     0.186297449351     0.723079625965    12.000000000000
           O          0.906305818337    -0.391982550649    -1.587737374035    15.994914619560
           C          0.369523818337     1.413820449351     0.542894625965    12.000000000000
           H          0.885201818337    -0.480336550649     1.492867625965     1.007825032070
           H          2.261028818337     0.470121449351     1.037618625965     1.007825032070
           C         -1.093272181663     1.175961449351     0.932080625965    12.000000000000
           H          0.426281818337     1.749358449351    -0.488209374035     1.007825032070
           H          0.770484818337     2.222739449351     1.143881625965     1.007825032070
           C         -1.847034181663     0.186815449351     0.038553625965    12.000000000000
           H         -1.609839181663     2.132538449351     0.902408625965     1.007825032070
           H         -1.143906181663     0.838236449351     1.966263625965     1.007825032070
           C         -3.325120181663     0.068863449351     0.409803625965    12.000000000000
           H         -1.759608181663     0.503077449351    -0.998933374035     1.007825032070
           H         -1.389424181663    -0.797258550649     0.098332625965     1.007825032070
           H         -3.837300181663    -0.638115550649    -0.235305374035     1.007825032070
           H         -3.829720181663     1.026396449351     0.318489625965     1.007825032070
           H         -3.445792181663    -0.271051550649     1.434563625965     1.007825032070

  Charge       = 0
  Multiplicity = 1
  Basis Set: 6-31G*
  Basis Set:

    Orbital Energies (a.u.)
    -----------------------

    Doubly Occupied:

       1A    -20.613666     2A    -20.552732     3A    -11.381809
       4A    -11.239984     5A    -11.220897     6A    -11.215910
       7A    -11.210535     8A    -11.205658     9A     -1.475795
      10A     -1.367105    11A     -1.093413    12A     -1.036130
      13A     -0.957440    14A     -0.868621    15A     -0.811399
      16A     -0.772917    17A     -0.701895    18A     -0.693206
      19A     -0.662439    20A     -0.628845    21A     -0.601548
      22A     -0.590070    23A     -0.572520    24A     -0.551334
      25A     -0.536160    26A     -0.511208    27A     -0.494810
      28A     -0.481644    29A     -0.463211    30A     -0.459215
      31A     -0.452926    32A     -0.443346

  @DF-RHF Final Energy:  -383.94574348189826

   => Energetics <=

    Nuclear Repulsion Energy =            390.0995089238153923
    One-Electron Energy =               -1296.3537221796750600
    Two-Electron Energy =                 522.3084697739607236
    DFT Exchange-Correlation Energy =       0.0000000000000000
    Empirical Dispersion Energy =           0.0000000000000000
    PCM Polarization Energy =               0.0000000000000000
    EFP Energy =                            0.0000000000000000
    Total Energy =                       -383.9457434818989441

  Mulliken Charges: (a.u.)
   Center  Symbol    Alpha    Beta     Spin     Total
       1     H     0.26781  0.26781  0.00000  0.46438
       2     O     4.35082  4.35082  0.00000 -0.70165
       3     C     2.62475  2.62475  0.00000  0.75050
       4     C     3.21207  3.21207  0.00000 -0.42414
       5     O     4.27953  4.27953  0.00000 -0.55907
       6     C     3.16152  3.16152  0.00000 -0.32305
       7     H     0.39663  0.39663  0.00000  0.20674
       8     H     0.39521  0.39521  0.00000  0.20957
       9     C     3.15488  3.15488  0.00000 -0.30976
      10     H     0.40009  0.40009  0.00000  0.19981
      11     H     0.41693  0.41693  0.00000  0.16614
      12     C     3.15172  3.15172  0.00000 -0.30343
      13     H     0.42051  0.42051  0.00000  0.15899
      14     H     0.42554  0.42554  0.00000  0.14892
      15     C     3.23985  3.23985  0.00000 -0.47970
      16     H     0.41101  0.41101  0.00000  0.17798
      17     H     0.42642  0.42642  0.00000  0.14715
      18     H     0.41847  0.41847  0.00000  0.16307
      19     H     0.42221  0.42221  0.00000  0.15557
      20     H     0.42402  0.42402  0.00000  0.15196

   Total alpha = 32.00000, Total beta = 32.00000, Total charge = -0.00000
