                              Psi4 1.0.54 Driver

  ==> Input File <==

--------------------------------------------------------------------------
set {
	reference rhf
	basis cc-pvtz
}

set_num_threads( 4 )
memory 2 gb

molecule MOL {
0 1

H	 -4.210140	 0.168032	 0.910401
O	 -3.493989	 -0.385410	 0.659354
C	 -2.292748	 0.339096	 0.682311
C	 -1.164150	 -0.585362	 0.272714
H	 -2.345172	 1.184829	 -0.000155
H	 -2.105142	 0.733650	 1.678786
C	 0.196029	 0.106276	 0.266738
H	 -1.384964	 -0.981260	 -0.713555
H	 -1.149431	 -1.431768	 0.951902
C	 1.330220	 -0.826136	 -0.155230
H	 0.156373	 0.964120	 -0.397525
H	 0.408310	 0.497127	 1.259590
C	 2.719700	 -0.407669	 0.328325
H	 1.339388	 -0.911200	 -1.239363
H	 1.119001	 -1.821953	 0.224128
C	 3.241564	 0.893452	 -0.276737
H	 3.418299	 -1.204729	 0.093035
H	 2.711776	 -0.323368	 1.411960
H	 3.254204	 0.841071	 -1.360784
H	 2.634460	 1.745075	 0.005842
H	 4.254264	 1.092401	 0.054971

	symmetry c1
}
set optking {
	frozen_dihedral = ("
		4 7 10 14
	")
}

ee,wfn = optimize('scf', return_wfn=True)
oeprop( wfn, 'DIPOLE', 'QUADRUPOLE', 'MULLIKEN_CHARGES')
f=open( 'psi4out.xyz', 'w' )
f.write( "21  " )
f.write( str(ee) + "\n" )
f.write( MOL.save_string_xyz() )
f.close()
--------------------------------------------------------------------------

    Molecular point group: c1
  Charge       = 0
  Multiplicity = 1
  Basis Set: CC-PVTZ
  Basis Set:
  @DF-RHF Final Energy:  -310.33175105142863
    Total Energy =                       -310.3317510514289097
    Molecular point group: c1
  Basis Set: CC-PVTZ
  Basis Set:
  Basis Set: CC-PVTZ
  Basis Set:
  @DF-RHF Final Energy:  -310.33180922249500
    Total Energy =                       -310.3318092224951670
  Basis Set: CC-PVTZ
  Basis Set:
  Basis Set: CC-PVTZ
  Basis Set:
  @DF-RHF Final Energy:  -310.33194425088209
    Total Energy =                       -310.3319442508819748
  Basis Set: CC-PVTZ
  Basis Set:
  Basis Set: CC-PVTZ
  Basis Set:
  @DF-RHF Final Energy:  -310.33195859007037
    Total Energy =                       -310.3319585900704851
  Basis Set: CC-PVTZ
  Basis Set:
  Basis Set: CC-PVTZ
  Basis Set:
  @DF-RHF Final Energy:  -310.33196333466719
    Total Energy =                       -310.3319633346670798
  Basis Set: CC-PVTZ
  Basis Set:
  Charge       = 0
  Multiplicity = 1
  Basis Set: CC-PVTZ
  Basis Set:

    Orbital Energies (a.u.)
    -----------------------

    Doubly Occupied:

       1A    -20.545430     2A    -11.264950     3A    -11.213362
       4A    -11.212822     5A    -11.211209     6A    -11.209144
       7A    -11.206089     8A     -1.363269     9A     -1.087273
      10A     -1.034494    11A     -0.954680    12A     -0.876622
      13A     -0.808528    14A     -0.778471    15A     -0.696159
      16A     -0.662095    17A     -0.626344    18A     -0.604795
      19A     -0.587183    20A     -0.574262    21A     -0.536293
      22A     -0.521367    23A     -0.512052    24A     -0.487685
      25A     -0.480734    26A     -0.459197    27A     -0.456280
      28A     -0.443884    29A     -0.437496

  @DF-RHF Final Energy:  -310.33196378104418

   => Energetics <=

    Nuclear Repulsion Energy =            313.0558852652963537
    One-Electron Energy =               -1041.0713560428598612
    Two-Electron Energy =                 417.6835069965192133
    DFT Exchange-Correlation Energy =       0.0000000000000000
    Empirical Dispersion Energy =           0.0000000000000000
    PCM Polarization Energy =               0.0000000000000000
    EFP Energy =                            0.0000000000000000
    Total Energy =                       -310.3319637810442373
    Molecular point group: c1
  Basis Set: CC-PVTZ
  Basis Set:

  -Total Gradient:
     Atom            X                  Y                   Z
    ------   -----------------  -----------------  -----------------
       1        0.000000016399    -0.000000154167     0.000000724219
       2       -0.000004622700     0.000003287683    -0.000008424283
       3        0.000009343702     0.000001353025     0.000006341059
       4        0.000319500995    -0.000610310804     0.002189239774
       5       -0.000005173733    -0.000002896843     0.000001802433
       6        0.000000029344    -0.000003994469    -0.000008361965
       7        0.000029569729     0.001362671621    -0.003059324879
       8        0.000007071576     0.000004910584     0.000010967336
       9       -0.000003531664     0.000008162154    -0.000002457264
      10       -0.002342935611    -0.003169683688     0.001062408399
      11        0.000003331364    -0.000009845797    -0.000006119266
      12        0.000004198171    -0.000000091878     0.000002250865
      13       -0.000002857864    -0.000001175216     0.000018814495
      14        0.001990456064     0.002397529160    -0.000193950270
      15       -0.000013667356     0.000011063911    -0.000008212853
      16        0.000011556141    -0.000004960682    -0.000000413397
      17       -0.000018221018     0.000020270424     0.000010261794
      18        0.000014311953     0.000000538872    -0.000015047107
      19        0.000002668093     0.000001395622    -0.000000324709
      20       -0.000000515303    -0.000012576273    -0.000005213752
      21       -0.000000528283     0.000004506761     0.000005039367

  **** Optimization is complete! (in 6 steps) ****
    Final optimized geometry and variables:
    Molecular point group: c1

    Geometry (in Angstrom), charge = 0, multiplicity = 1:

    H           -4.201347847475     0.377298490324     0.644492943185
    O           -3.496870393510    -0.200400887951     0.416264436652
    C           -2.281239609250     0.499979726059     0.407751088778
    C           -1.172021693393    -0.463072661022     0.036478292408
    H           -2.317763888625     1.317260874085    -0.309445925904
    H           -2.083915073204     0.932118031747     1.386697987351
    C            0.204554943552     0.195275539929     0.018608893242
    H           -1.397797942530    -0.888860849355    -0.936554305657
    H           -1.177621728056    -1.285028629358     0.744665723224
    C            1.317430416795    -0.765207835708    -0.411484271577
    H            0.189512883144     1.061431789812    -0.635510425155
    H            0.424091687262     0.570835352503     1.015810649907
    C            2.719783485951    -0.344481873904     0.032840753485
    H            1.316512413660    -0.851568654730    -1.495200706164
    H            1.110438967293    -1.753920949830    -0.014851987040
    C            3.199822880453     0.975610340512    -0.564812414390
    H            3.419172328550    -1.128155522789    -0.242013303196
    H            2.747447488528    -0.279835274125     1.117394797706
    H            3.186308072387     0.939584983663    -1.649579871082
    H            2.578923848291     1.807869778625    -0.254620157326
    H            4.215542458276     1.193379675780    -0.255071988377

  Mulliken Charges: (a.u.)
   Center  Symbol    Alpha    Beta     Spin     Total
       1     H     0.39757  0.39757  0.00000  0.20486
       2     O     4.19418  4.19418  0.00000 -0.38837
       3     C     2.96372  2.96372  0.00000  0.07256
       4     C     3.08363  3.08363  0.00000 -0.16727
       5     H     0.47475  0.47475  0.00000  0.05050
       6     H     0.47517  0.47517  0.00000  0.04965
       7     C     3.10632  3.10632  0.00000 -0.21263
       8     H     0.45087  0.45087  0.00000  0.09825
       9     H     0.45070  0.45070  0.00000  0.09859
      10     C     3.09386  3.09386  0.00000 -0.18771
      11     H     0.45195  0.45195  0.00000  0.09610
      12     H     0.45520  0.45520  0.00000  0.08960
      13     C     3.08969  3.08969  0.00000 -0.17937
      14     H     0.45295  0.45295  0.00000  0.09409
      15     H     0.44823  0.44823  0.00000  0.10353
      16     C     3.15190  3.15190  0.00000 -0.30381
      17     H     0.44899  0.44899  0.00000  0.10203
      18     H     0.45523  0.45523  0.00000  0.08955
      19     H     0.45497  0.45497  0.00000  0.09006
      20     H     0.45360  0.45360  0.00000  0.09281
      21     H     0.44651  0.44651  0.00000  0.10698

   Total alpha = 29.00000, Total beta = 29.00000, Total charge = -0.00000

*** Psi4 exiting successfully. Buy a developer a beer!
