  ==> Input File <==

--------------------------------------------------------------------------
set {
	reference rhf
	basis 6-31G*
}

set_num_threads( 4 )
memory 2 gb

molecule MOL {
0 1

H	 3.729471	 -0.928294	 -0.070608
O	 2.826016	 -1.159218	 0.122261
C	 2.077727	 -0.067559	 -0.035091
C	 0.624473	 -0.343591	 0.253101
O	 2.542965	 0.974826	 -0.363729
C	 -0.265902	 0.883932	 0.072916
H	 0.324016	 -1.163849	 -0.390541
H	 0.565024	 -0.726111	 1.268924
C	 -1.728698	 0.646073	 0.462102
H	 -0.209144	 1.219470	 -0.958188
H	 0.135059	 1.692851	 0.673903
C	 -2.482460	 -0.343073	 -0.431425
H	 -2.245265	 1.602650	 0.432430
H	 -1.779332	 0.308348	 1.496285
C	 -3.922000	 -0.571143	 0.029211
H	 -2.485352	 0.028636	 -1.454102
H	 -1.964600	 -1.298417	 -0.454276
H	 -4.434734	 -1.276146	 -0.617618
H	 -4.487259	 0.356361	 0.022310
H	 -3.951698	 -0.967879	 1.040129

	symmetry c1
}
set optking {
	frozen_dihedral = ("
		16 12 9 6
	")
}

ee = optimize('scf')
oeprop('DIPOLE', 'QUADRUPOLE', 'MULLIKEN_CHARGES')
f=open( 'psi4out.xyz', 'w' )
f.write( "20  " )
f.write( str(ee) + "\n" )
f.write( MOL.save_string_xyz() )
f.close()
--------------------------------------------------------------------------

    Molecular point group: c1
  Charge       = 0
  Multiplicity = 1
  Basis Set: 6-31G*
  Basis Set:
  @DF-RHF Final Energy:  -383.94862149491161
    Total Energy =                       -383.9486214949116629
    Molecular point group: c1
  Basis Set: 6-31G*
  Basis Set:
  Basis Set: 6-31G*
  Basis Set:
  @DF-RHF Final Energy:  -383.94850598346426
    Total Energy =                       -383.9485059834644289
  Basis Set: 6-31G*
  Basis Set:
  Basis Set: 6-31G*
  Basis Set:
  @DF-RHF Final Energy:  -383.94864698318139
    Total Energy =                       -383.9486469831815612
  Basis Set: 6-31G*
  Basis Set:
  Basis Set: 6-31G*
  Basis Set:
  @DF-RHF Final Energy:  -383.94864938280102
    Total Energy =                       -383.9486493828009088
  Basis Set: 6-31G*
  Basis Set:
  Basis Set: 6-31G*
  Basis Set:
  @DF-RHF Final Energy:  -383.94862946643798
    Total Energy =                       -383.9486294664378647
  Basis Set: 6-31G*
  Basis Set:
  Basis Set: 6-31G*
  Basis Set:
  @DF-RHF Final Energy:  -383.94865106251808
    Total Energy =                       -383.9486510625180244
  Basis Set: 6-31G*
  Basis Set:
  Charge       = 0
  Multiplicity = 1
  Basis Set: 6-31G*
  Basis Set:

    Orbital Energies (a.u.)
    -----------------------

    Doubly Occupied:

       1A    -20.612560     2A    -20.551651     3A    -11.381236
       4A    -11.240300     5A    -11.222963     6A    -11.220697
       7A    -11.220096     8A    -11.212330     9A     -1.474630
      10A     -1.365681    11A     -1.096139    12A     -1.041071
      13A     -0.961187    14A     -0.868829    15A     -0.815774
      16A     -0.777389    17A     -0.699595    18A     -0.690279
      19A     -0.663635    20A     -0.635817    21A     -0.603696
      22A     -0.593396    23A     -0.575920    24A     -0.554642
      25A     -0.540773    26A     -0.512574    27A     -0.496143
      28A     -0.479323    29A     -0.470081    30A     -0.467801
      31A     -0.457156    32A     -0.443798

  @DF-RHF Final Energy:  -383.94865110083600

   => Energetics <=

    Nuclear Repulsion Energy =            375.8999248380058020
    One-Electron Energy =               -1267.8028342101288217
    Two-Electron Energy =                 507.9542582712870740
    DFT Exchange-Correlation Energy =       0.0000000000000000
    Empirical Dispersion Energy =           0.0000000000000000
    PCM Polarization Energy =               0.0000000000000000
    EFP Energy =                            0.0000000000000000
    Total Energy =                       -383.9486511008360026
    Molecular point group: c1
  Basis Set: 6-31G*
  Basis Set:

  -Total Gradient:
     Atom            X                  Y                   Z
    ------   -----------------  -----------------  -----------------
       1       -0.000000223322    -0.000000138326     0.000000311434
       2        0.000003973125     0.000002266925     0.000009023735
       3       -0.000002348299    -0.000014651077    -0.000034697897
       4        0.000008189831     0.000004064284     0.000011935978
       5        0.000002017189     0.000003247304     0.000010656156
       6        0.000229056657    -0.000608892752     0.000485516787
       7        0.000003249928     0.000000866252    -0.000001045959
       8       -0.000001916127    -0.000000616002     0.000000745693
       9       -0.000547820016     0.001005783492    -0.000637320135
      10       -0.000004278064    -0.000001143423     0.000001016865
      11       -0.000000374864    -0.000001235597    -0.000002686045
      12        0.001229268993    -0.000920649511    -0.000041483097
      13       -0.000007493931     0.000005442811     0.000007898973
      14        0.000005990933    -0.000003974026    -0.000011427018
      15        0.000000277326     0.000003772684    -0.000006567473
      16       -0.000919065432     0.000530752595     0.000215973660
      17        0.000000590715    -0.000007666724    -0.000005336484
      18        0.000000291789    -0.000002092862     0.000000715909
      19       -0.000003811843     0.000001540973    -0.000001025583
      20        0.000004425409     0.000003322985    -0.000002205499

  **** Optimization is complete! (in 7 steps) ****
    Final optimized geometry and variables:
    Molecular point group: c1

    Geometry (in Angstrom), charge = 0, multiplicity = 1:

    H            3.732905736681    -0.901581424069    -0.075858507593
    O            2.831909331721    -1.134384885893     0.126025321111
    C            2.076135382405    -0.050291363960    -0.047068504167
    C            0.626208830248    -0.329864897638     0.254297097563
    O            2.533259704444     0.988756203664    -0.396953047428
    C           -0.272444025156     0.889008345037     0.056964911549
    H            0.327923174693    -1.164112780319    -0.371995662550
    H            0.574930332038    -0.693529862563     1.277426730328
    C           -1.733116508907     0.647752266742     0.453204849736
    H           -0.218606807791     1.210437234489    -0.978856450578
    H            0.124935835750     1.708701258414     0.645610887847
    C           -2.494637078543    -0.329788418191    -0.446501386616
    H           -2.252257881593     1.603135470505     0.443092330793
    H           -1.772538586480     0.294620470082     1.482851631374
    C           -3.935267445552    -0.549465373302     0.016084726471
    H           -2.503147431970     0.055863497140    -1.463814297410
    H           -1.985432047068    -1.289006983676    -0.482030153396
    H           -4.459966272797    -1.233482838379    -0.643576653384
    H           -4.488614321902     0.385195186772     0.031573572641
    H           -3.965970010376    -0.967371948918     1.018354323803

  Mulliken Charges: (a.u.)
   Center  Symbol    Alpha    Beta     Spin     Total
       1     H     0.26785  0.26785  0.00000  0.46431
       2     O     4.35158  4.35158  0.00000 -0.70316
       3     C     2.62220  2.62220  0.00000  0.75560
       4     C     3.21269  3.21269  0.00000 -0.42538
       5     O     4.27925  4.27925  0.00000 -0.55849
       6     C     3.15443  3.15443  0.00000 -0.30886
       7     H     0.39706  0.39706  0.00000  0.20587
       8     H     0.39900  0.39900  0.00000  0.20199
       9     C     3.15569  3.15569  0.00000 -0.31138
      10     H     0.41218  0.41218  0.00000  0.17565
      11     H     0.40804  0.40804  0.00000  0.18392
      12     C     3.15455  3.15455  0.00000 -0.30909
      13     H     0.41757  0.41757  0.00000  0.16486
      14     H     0.42409  0.42409  0.00000  0.15183
      15     C     3.23932  3.23932  0.00000 -0.47864
      16     H     0.42113  0.42113  0.00000  0.15775
      17     H     0.42286  0.42286  0.00000  0.15429
      18     H     0.41836  0.41836  0.00000  0.16329
      19     H     0.42075  0.42075  0.00000  0.15849
      20     H     0.42142  0.42142  0.00000  0.15717

   Total alpha = 32.00000, Total beta = 32.00000, Total charge =  0.00000
