                              Psi4 1.0.54 Driver

  ==> Input File <==

--------------------------------------------------------------------------
set {
	reference rhf
	basis cc-pvtz
}

set_num_threads( 4 )
memory 2 gb

molecule MOL {
0 1

H	 5.301615	 0.395474	 0.759756
C	 4.683532	 0.017474	 -0.046442
C	 3.217874	 -0.052082	 0.368684
H	 4.814801	 0.674048	 -0.899610
H	 5.061279	 -0.962023	 -0.321565
C	 2.317084	 -0.591256	 -0.740298
H	 2.881226	 0.936438	 0.659261
H	 3.123322	 -0.686509	 1.246970
C	 0.844699	 -0.678078	 -0.351155
H	 2.412965	 0.032507	 -1.620387
H	 2.654957	 -1.585231	 -1.018933
C	 0.137591	 0.662161	 -0.240505
H	 0.298527	 -1.246690	 -1.099582
H	 0.720097	 -1.222578	 0.580248
C	 -1.180025	 0.697761	 0.509157
O	 0.583117	 1.645810	 -0.737711
C	 -2.285431	 -0.137488	 -0.145671
H	 -1.482329	 1.734488	 0.569549
H	 -1.008925	 0.339278	 1.520794
C	 -3.646545	 0.082747	 0.508954
H	 -2.348635	 0.118247	 -1.199806
H	 -2.034895	 -1.192387	 -0.096473
C	 -4.757412	 -0.737227	 -0.138149
H	 -3.900211	 1.137405	 0.459735
H	 -3.580878	 -0.166775	 1.564416
H	 -4.867876	 -0.486707	 -1.187777
H	 -4.549650	 -1.800049	 -0.072540
H	 -5.709585	 -0.556397	 0.346597

	symmetry c1
}
set optking {
	frozen_dihedral = ("
		12 15 17 21
	")
}

ee,wfn = optimize('scf', return_wfn=True)
oeprop( wfn, 'DIPOLE', 'QUADRUPOLE', 'MULLIKEN_CHARGES')
f=open( 'psi4out.xyz', 'w' )
f.write( "28  " )
f.write( str(ee) + "\n" )
f.write( MOL.save_string_xyz() )
f.close()
--------------------------------------------------------------------------

    Molecular point group: c1
  Charge       = 0
  Multiplicity = 1
  Basis Set: CC-PVTZ
  Basis Set:
  @DF-RHF Final Energy:  -426.31980924757772
    Total Energy =                       -426.3198092475782914
    Molecular point group: c1
  Basis Set: CC-PVTZ
  Basis Set:
  Basis Set: CC-PVTZ
  Basis Set:
  @DF-RHF Final Energy:  -426.31971830692385
    Total Energy =                       -426.3197183069237326
  Basis Set: CC-PVTZ
  Basis Set:
  Basis Set: CC-PVTZ
  Basis Set:
  @DF-RHF Final Energy:  -426.31974570271518
    Total Energy =                       -426.3197457027148403
  Basis Set: CC-PVTZ
  Basis Set:
  Basis Set: CC-PVTZ
  Basis Set:
  @DF-RHF Final Energy:  -426.31982529427830
    Total Energy =                       -426.3198252942781892
  Basis Set: CC-PVTZ
  Basis Set:
  Basis Set: CC-PVTZ
  Basis Set:
  @DF-RHF Final Energy:  -426.31982675538563
    Total Energy =                       -426.3198267553859750
  Basis Set: CC-PVTZ
  Basis Set:
  Charge       = 0
  Multiplicity = 1
  Basis Set: CC-PVTZ
  Basis Set:

    Orbital Energies (a.u.)
    -----------------------

    Doubly Occupied:

       1A    -20.536702     2A    -11.316565     3A    -11.229892
       4A    -11.228278     5A    -11.226749     6A    -11.223749
       7A    -11.214602     8A    -11.214173     9A    -11.210738
      10A    -11.203914    11A     -1.396618    12A     -1.096094
      13A     -1.078843    14A     -1.023674    15A     -0.991729
      16A     -0.908136    17A     -0.873813    18A     -0.809379
      19A     -0.800241    20A     -0.724548    21A     -0.671267
      22A     -0.652787    23A     -0.630494    24A     -0.621336
      25A     -0.610978    26A     -0.588789    27A     -0.577838
      28A     -0.576091    29A     -0.542925    30A     -0.533518
      31A     -0.522299    32A     -0.506123    33A     -0.502386
      34A     -0.485064    35A     -0.479285    36A     -0.476084
      37A     -0.472816    38A     -0.465894    39A     -0.456889
      40A     -0.394273

  @DF-RHF Final Energy:  -426.31982718406789

   => Energetics <=

    Nuclear Repulsion Energy =            531.7981620667695779
    One-Electron Energy =               -1632.0848377023087323
    Two-Electron Energy =                 673.9668484514720603
    DFT Exchange-Correlation Energy =       0.0000000000000000
    Empirical Dispersion Energy =           0.0000000000000000
    PCM Polarization Energy =               0.0000000000000000
    EFP Energy =                            0.0000000000000000
    Total Energy =                       -426.3198271840672078
    Molecular point group: c1
  Basis Set: CC-PVTZ
  Basis Set:

  -Total Gradient:
     Atom            X                  Y                   Z
    ------   -----------------  -----------------  -----------------
       1       -0.000003010459    -0.000002005567    -0.000001598276
       2       -0.000000901582    -0.000003484577     0.000001982264
       3        0.000012029224    -0.000007066958     0.000002264735
       4       -0.000000334343    -0.000000434117     0.000000330655
       5       -0.000000605236     0.000003031380    -0.000000050630
       6       -0.000002417379    -0.000003090645     0.000000943681
       7        0.000000540973     0.000003074426     0.000002038364
       8       -0.000002449263     0.000001412816     0.000000090851
       9        0.000026868671    -0.000000039441     0.000025198988
      10        0.000000248418     0.000002467609    -0.000001317925
      11       -0.000003461096     0.000003152132    -0.000000612060
      12       -0.000224073093     0.000488553312    -0.000396582130
      13        0.000004719906     0.000014056756    -0.000001968852
      14       -0.000000686193    -0.000005289698     0.000001595686
      15        0.000359114722    -0.000877619990     0.000378537401
      16        0.000023178647     0.000024154542     0.000019120682
      17       -0.000811224634     0.000972649097     0.000170922411
      18        0.000001078275     0.000010008870     0.000019733513
      19        0.000015295996     0.000001710211    -0.000005155302
      20        0.000009344584     0.000010382906    -0.000031070301
      21        0.000591311424    -0.000618879784    -0.000190258755
      22       -0.000002331220    -0.000014953696    -0.000002405738
      23        0.000001763084    -0.000001491033     0.000009719826
      24       -0.000001425069    -0.000006989962     0.000002382233
      25        0.000001842171    -0.000002375493    -0.000004596190
      26        0.000003266902     0.000002847497    -0.000000842065
      27       -0.000000698422     0.000008635642     0.000000503015
      28        0.000003014994    -0.000002416237     0.000001093919

  **** Optimization is complete! (in 6 steps) ****
    Final optimized geometry and variables:
    Molecular point group: c1

    Geometry (in Angstrom), charge = 0, multiplicity = 1:

    H            5.323418885869     0.353676612576     0.804401548984
    C            4.694691758495    -0.035602352835     0.011933048325
    C            3.236696653844    -0.111386809793     0.452024371088
    H            4.807208086784     0.614323534658    -0.848964657173
    H            5.074583693831    -1.014901507501    -0.260918673086
    C            2.321477777113    -0.666995548702    -0.636860264499
    H            2.897822884303     0.877322606736     0.739104385154
    H            3.161184893715    -0.738439984077     1.337405076198
    C            0.856355951655    -0.760424011164    -0.222789056113
    H            2.398648170864    -0.050916870488    -1.524209111032
    H            2.661875116081    -1.661139436127    -0.911744709615
    C            0.138524521547     0.574185052144    -0.116550574505
    H            0.302192037165    -1.343744254943    -0.953848079627
    H            0.751237664086    -1.293289285674     0.717802496794
    C           -1.181929237278     0.598710811550     0.628423743127
    O            0.575459360720     1.560970662794    -0.615024945208
    C           -2.278569787750    -0.238516507782    -0.039750468212
    H           -1.489059860668     1.634126777120     0.688605921579
    H           -1.017494587622     0.238770106205     1.640320285093
    C           -3.643423253556    -0.040138612783     0.612987765578
    H           -2.338492021078     0.023567793240    -1.092568136050
    H           -2.016309187406    -1.291295480584    -0.000853333165
    C           -4.739918383616    -0.878793801460    -0.034493291831
    H           -3.914014543146     1.010145100820     0.562589197152
    H           -3.574624803517    -0.287706244344     1.668737142103
    H           -4.853065938751    -0.631116456215    -1.084517513046
    H           -4.515029888464    -1.937997809691     0.032540824335
    H           -5.695449125281    -0.712831540048     0.448926502729

  Mulliken Charges: (a.u.)
   Center  Symbol    Alpha    Beta     Spin     Total
       1     H     0.44867  0.44867  0.00000  0.10267
       2     C     3.15194  3.15194  0.00000 -0.30389
       3     C     3.08428  3.08428  0.00000 -0.16857
       4     H     0.45181  0.45181  0.00000  0.09639
       5     H     0.45687  0.45687  0.00000  0.08627
       6     C     3.08721  3.08721  0.00000 -0.17442
       7     H     0.44577  0.44577  0.00000  0.10847
       8     H     0.45858  0.45858  0.00000  0.08284
       9     C     3.12996  3.12996  0.00000 -0.25993
      10     H     0.44424  0.44424  0.00000  0.11152
      11     H     0.44779  0.44779  0.00000  0.10443
      12     C     2.86499  2.86499  0.00000  0.27001
      13     H     0.43405  0.43405  0.00000  0.13190
      14     H     0.44288  0.44288  0.00000  0.11424
      15     C     3.09277  3.09277  0.00000 -0.18553
      16     O     4.17821  4.17821  0.00000 -0.35642
      17     C     3.10153  3.10153  0.00000 -0.20306
      18     H     0.43838  0.43838  0.00000  0.12324
      19     H     0.44879  0.44879  0.00000  0.10242
      20     C     3.08689  3.08689  0.00000 -0.17378
      21     H     0.44576  0.44576  0.00000  0.10848
      22     H     0.45077  0.45077  0.00000  0.09845
      23     C     3.14926  3.14926  0.00000 -0.29852
      24     H     0.44954  0.44954  0.00000  0.10093
      25     H     0.45363  0.45363  0.00000  0.09274
      26     H     0.45345  0.45345  0.00000  0.09310
      27     H     0.45520  0.45520  0.00000  0.08960
      28     H     0.44678  0.44678  0.00000  0.10644

   Total alpha = 40.00000, Total beta = 40.00000, Total charge =  0.00000

*** Psi4 exiting successfully. Buy a developer a beer!
