  ==> Input File <==

--------------------------------------------------------------------------
set {
	reference rhf
	basis 6-31G*
}

set_num_threads( 1 )
memory 2 gb

molecule MOL {
0 1

O	 -2.275131	 -1.021105	 1.163138
C	 -1.833468	 0.019314	 0.796077
C	 -2.551799	 1.338998	 0.878418
O	 -0.632575	 0.154573	 0.251549
H	 -2.658314	 1.760570	 -0.114497
H	 -3.524048	 1.195285	 1.325535
H	 -1.970088	 2.036151	 1.470318
C	 0.160891	 -1.019931	 0.106212
C	 1.589627	 -0.672828	 0.480843
H	 0.089836	 -1.367806	 -0.916050
H	 -0.238459	 -1.792301	 0.749618
C	 2.246377	 0.346236	 -0.452210
H	 2.163194	 -1.597435	 0.473358
H	 1.604769	 -0.303424	 1.502885
C	 3.691736	 0.652107	 -0.061850
H	 2.219579	 -0.032311	 -1.472055
H	 1.666466	 1.263317	 -0.447249
H	 4.134505	 1.377213	 -0.737283
H	 4.305508	 -0.243868	 -0.089969
H	 3.748266	 1.059562	 0.943567

	symmetry c1
}
set optking {
	frozen_dihedral = ("
		16 12 9 8,
		12 9 8 10,
		1 2 4 8
	")
}

ee = energy('scf')
oeprop('DIPOLE', 'QUADRUPOLE', 'MULLIKEN_CHARGES')
f=open( 'psi4out.xyz', 'w' )
f.write( "20  " )
f.write( str(ee) + "\n" )
f.write( MOL.save_string_xyz() )
f.close()
--------------------------------------------------------------------------

    Molecular point group: c1

    Geometry (in Angstrom), charge = 0, multiplicity = 1:

       Center              X                  Y                   Z               Mass
    ------------   -----------------  -----------------  -----------------  -----------------
           O         -2.316165029285    -0.999464174465     0.764228600660    15.994914619560
           C         -1.874502029285     0.040954825535     0.397167600660    12.000000000000
           C         -2.592833029285     1.360638825535     0.479508600660    12.000000000000
           O         -0.673609029285     0.176213825535    -0.147360399340    15.994914619560
           H         -2.699348029285     1.782210825535    -0.513406399340     1.007825032070
           H         -3.565082029285     1.216925825535     0.926625600660     1.007825032070
           H         -2.011122029285     2.057791825535     1.071408600660     1.007825032070
           C          0.119856970715    -0.998290174465    -0.292697399340    12.000000000000
           C          1.548592970715    -0.651187174465     0.081933600660    12.000000000000
           H          0.048801970715    -1.346165174465    -1.314959399340     1.007825032070
           H         -0.279493029285    -1.770660174465     0.350708600660     1.007825032070
           C          2.205342970715     0.367876825535    -0.851119399340    12.000000000000
           H          2.122159970715    -1.575794174465     0.074448600660     1.007825032070
           H          1.563734970715    -0.281783174465     1.103975600660     1.007825032070
           C          3.650701970715     0.673747825535    -0.460759399340    12.000000000000
           H          2.178544970715    -0.010670174465    -1.870964399340     1.007825032070
           H          1.625431970715     1.284957825535    -0.846158399340     1.007825032070
           H          4.093470970715     1.398853825535    -1.136192399340     1.007825032070
           H          4.264473970715    -0.222227174465    -0.488878399340     1.007825032070
           H          3.707231970715     1.081202825535     0.544657600660     1.007825032070

  Charge       = 0
  Multiplicity = 1
  Basis Set: 6-31G*
  Basis Set:

    Orbital Energies (a.u.)
    -----------------------

    Doubly Occupied:

       1A    -20.601893     2A    -20.543863     3A    -11.375911
       4A    -11.278841     5A    -11.234092     6A    -11.223792
       7A    -11.219387     8A    -11.212620     9A     -1.468660
      10A     -1.362761    11A     -1.084825    12A     -1.028484
      13A     -0.980476    14A     -0.880528    15A     -0.814288
      16A     -0.768970    17A     -0.696044    18A     -0.684931
      19A     -0.662449    20A     -0.630071    21A     -0.598596
      22A     -0.591918    23A     -0.570218    24A     -0.559570
      25A     -0.542405    26A     -0.526465    27A     -0.516753
      28A     -0.487241    29A     -0.474446    30A     -0.464265
      31A     -0.448071    32A     -0.437928

  @DF-RHF Final Energy:  -383.94341577610589

   => Energetics <=

    Nuclear Repulsion Energy =            385.6486420292001185
    One-Electron Energy =               -1287.2424278613541446
    Two-Electron Energy =                 517.6503700560487005
    DFT Exchange-Correlation Energy =       0.0000000000000000
    Empirical Dispersion Energy =           0.0000000000000000
    PCM Polarization Energy =               0.0000000000000000
    EFP Energy =                            0.0000000000000000
    Total Energy =                       -383.9434157761053257

  Mulliken Charges: (a.u.)
   Center  Symbol    Alpha    Beta     Spin     Total
       1     O     4.28370  4.28370  0.00000 -0.56740
       2     C     2.61919  2.61919  0.00000  0.76162
       3     C     3.28267  3.28267  0.00000 -0.56535
       4     O     4.30750  4.30750  0.00000 -0.61500
       5     H     0.40000  0.40000  0.00000  0.19999
       6     H     0.39670  0.39670  0.00000  0.20660
       7     H     0.40076  0.40076  0.00000  0.19847
       8     C     3.01477  3.01477  0.00000 -0.02955
       9     C     3.16166  3.16166  0.00000 -0.32332
      10     H     0.41563  0.41563  0.00000  0.16874
      11     H     0.39103  0.39103  0.00000  0.21794
      12     C     3.15496  3.15496  0.00000 -0.30991
      13     H     0.41967  0.41967  0.00000  0.16067
      14     H     0.41595  0.41595  0.00000  0.16810
      15     C     3.24023  3.24023  0.00000 -0.48047
      16     H     0.42337  0.42337  0.00000  0.15326
      17     H     0.41169  0.41169  0.00000  0.17662
      18     H     0.41788  0.41788  0.00000  0.16424
      19     H     0.42176  0.42176  0.00000  0.15648
      20     H     0.42087  0.42087  0.00000  0.15826

   Total alpha = 32.00000, Total beta = 32.00000, Total charge =  0.00000
