  ==> Input File <==

--------------------------------------------------------------------------
set {
	reference rhf
	basis 6-31G*
}

set_num_threads( 4 )
memory 2 gb

molecule MOL {
0 1

H	 -4.236494	 0.538104	 0.039757
O	 -3.517110	 -0.026191	 -0.205115
C	 -2.306886	 0.532354	 0.237577
C	 -1.177863	 -0.397191	 -0.171080
H	 -2.156308	 1.517575	 -0.201710
H	 -2.315015	 0.655684	 1.319734
C	 0.198102	 0.111031	 0.262842
H	 -1.208843	 -0.518759	 -1.250427
H	 -1.368741	 -1.376554	 0.258909
C	 1.331804	 -0.827780	 -0.158768
H	 0.361943	 1.100838	 -0.156218
H	 0.217265	 0.229072	 1.345532
C	 2.723619	 -0.410569	 0.329459
H	 1.342964	 -0.912588	 -1.244120
H	 1.116806	 -1.824343	 0.220779
C	 3.883918	 -1.084627	 -0.405174
H	 2.800060	 -0.643272	 1.388749
H	 2.823940	 0.670002	 0.249035
H	 3.802956	 -2.167068	 -0.352214
H	 3.918243	 -0.806371	 -1.453302
H	 4.834938	 -0.803458	 0.036708

	symmetry c1
}
set optking {
	frozen_dihedral = ("
		16 13 10 14
	")
}

ee = optimize('scf')
oeprop('DIPOLE', 'QUADRUPOLE', 'MULLIKEN_CHARGES')
f=open( 'psi4out.xyz', 'w' )
f.write( "21  " )
f.write( str(ee) + "\n" )
f.write( MOL.save_string_xyz() )
f.close()
--------------------------------------------------------------------------

    Molecular point group: c1
  Charge       = 0
  Multiplicity = 1
  Basis Set: 6-31G*
  Basis Set:
  @DF-RHF Final Energy:  -310.21299268107168
    Total Energy =                       -310.2129926810715688
    Molecular point group: c1
  Basis Set: 6-31G*
  Basis Set:
  Basis Set: 6-31G*
  Basis Set:
  @DF-RHF Final Energy:  -310.21335094583151
    Total Energy =                       -310.2133509458315643
  Basis Set: 6-31G*
  Basis Set:
  Basis Set: 6-31G*
  Basis Set:
  @DF-RHF Final Energy:  -310.21338300817985
    Total Energy =                       -310.2133830081797896
  Basis Set: 6-31G*
  Basis Set:
  Basis Set: 6-31G*
  Basis Set:
  @DF-RHF Final Energy:  -310.21338715830757
    Total Energy =                       -310.2133871583073415
  Basis Set: 6-31G*
  Basis Set:
  Basis Set: 6-31G*
  Basis Set:
  @DF-RHF Final Energy:  -310.21339217845713
    Total Energy =                       -310.2133921784570134
  Basis Set: 6-31G*
  Basis Set:
  Charge       = 0
  Multiplicity = 1
  Basis Set: 6-31G*
  Basis Set:

    Orbital Energies (a.u.)
    -----------------------

    Doubly Occupied:

       1A    -20.551881     2A    -11.267119     3A    -11.216344
       4A    -11.214730     5A    -11.213179     6A    -11.210706
       7A    -11.208125     8A     -1.358716     9A     -1.086114
      10A     -1.034593    11A     -0.956810    12A     -0.867294
      13A     -0.802242    14A     -0.790906    15A     -0.691990
      16A     -0.663379    17A     -0.631285    18A     -0.596686
      19A     -0.581357    20A     -0.562312    21A     -0.547697
      22A     -0.520737    23A     -0.507588    24A     -0.484398
      25A     -0.477429    26A     -0.463032    27A     -0.459558
      28A     -0.442916    29A     -0.434027

  @DF-RHF Final Energy:  -310.21339248163991

   => Energetics <=

    Nuclear Repulsion Energy =            308.8965642159466256
    One-Electron Energy =               -1032.5336094650288032
    Two-Electron Energy =                 413.4236527674423769
    DFT Exchange-Correlation Energy =       0.0000000000000000
    Empirical Dispersion Energy =           0.0000000000000000
    PCM Polarization Energy =               0.0000000000000000
    EFP Energy =                            0.0000000000000000
    Total Energy =                       -310.2133924816397439
    Molecular point group: c1
  Basis Set: 6-31G*
  Basis Set:

  -Total Gradient:
     Atom            X                  Y                   Z
    ------   -----------------  -----------------  -----------------
       1        0.000005575940     0.000002912460     0.000002370807
       2        0.000022167353    -0.000009651072    -0.000006193592
       3        0.000017490601     0.000018843773     0.000009617592
       4        0.000026178878    -0.000025352865    -0.000034417382
       5       -0.000004378598     0.000001028820    -0.000000420494
       6        0.000000971147     0.000000656969    -0.000000615020
       7        0.000015717610     0.000008699760     0.000022962860
       8       -0.000007773959    -0.000007559690    -0.000007092483
       9       -0.000002647713    -0.000001576059    -0.000001085643
      10       -0.001125740478     0.004518600788    -0.001056591533
      11       -0.000000845034    -0.000022378677     0.000009881111
      12       -0.000009561698    -0.000002821897     0.000027748449
      13        0.000269479954    -0.003248693562     0.002351708097
      14        0.000842725905    -0.003103551754     0.000232594775
      15        0.000007252072     0.000058781447     0.000054357219
      16       -0.000053847895     0.001804794149    -0.001642514071
      17        0.000029841877     0.000006854357     0.000048514993
      18       -0.000005191114    -0.000032672540    -0.000035789225
      19       -0.000037912108     0.000015376084     0.000020420602
      20        0.000056592458    -0.000000630094    -0.000021125639
      21       -0.000046095193     0.000018339600     0.000025668578

  **** Optimization is complete! (in 6 steps) ****
    Final optimized geometry and variables:
    Molecular point group: c1

    Geometry (in Angstrom), charge = 0, multiplicity = 1:

    H           -4.320237793536     0.851860956120     0.045851818249
    O           -3.604439253606     0.285383199333    -0.204450819744
    C           -2.392438162421     0.823244414220     0.258455060430
    C           -1.269285307899    -0.108868186421    -0.160323503222
    H           -2.229059980892     1.815520255410    -0.159859795373
    H           -2.407667805546     0.924978682242     1.342773666411
    C            0.107535346703     0.377430094952     0.293707722523
    H           -1.293112664645    -0.208959617955    -1.242031701165
    H           -1.472442082623    -1.094587114642     0.248981824541
    C            1.241656031101    -0.552792476577    -0.136300207665
    H            0.292374850576     1.373176571589    -0.105926444682
    H            0.119360194802     0.477265763048     1.378217042286
    C            2.621689823545    -0.107964310398     0.359484236375
    H            1.256416443897    -0.648343898699    -1.220477122342
    H            1.040929331099    -1.556010596250     0.236666909276
    C            3.772233969000    -0.787825766473    -0.381732850716
    H            2.703349799775    -0.298534946327     1.426931902074
    H            2.717988410574     0.969061996563     0.235938218729
    H            3.715854421490    -1.869405642374    -0.292480136506
    H            3.750792206343    -0.543043173745    -1.439620687164
    H            4.734089537228    -0.474144248543     0.012067867642

  Mulliken Charges: (a.u.)
   Center  Symbol    Alpha    Beta     Spin     Total
       1     H     0.28117  0.28117  0.00000  0.43766
       2     O     4.37181  4.37181  0.00000 -0.74361
       3     C     2.98975  2.98975  0.00000  0.02050
       4     C     3.15944  3.15944  0.00000 -0.31887
       5     H     0.43283  0.43283  0.00000  0.13434
       6     H     0.43284  0.43284  0.00000  0.13432
       7     C     3.16031  3.16031  0.00000 -0.32062
       8     H     0.41470  0.41470  0.00000  0.17059
       9     H     0.41465  0.41465  0.00000  0.17069
      10     C     3.15116  3.15116  0.00000 -0.30231
      11     H     0.42337  0.42337  0.00000  0.15327
      12     H     0.42343  0.42343  0.00000  0.15314
      13     C     3.15175  3.15175  0.00000 -0.30350
      14     H     0.42234  0.42234  0.00000  0.15532
      15     H     0.42230  0.42230  0.00000  0.15540
      16     C     3.23967  3.23967  0.00000 -0.47934
      17     H     0.42203  0.42203  0.00000  0.15594
      18     H     0.42381  0.42381  0.00000  0.15238
      19     H     0.42163  0.42163  0.00000  0.15674
      20     H     0.42132  0.42132  0.00000  0.15737
      21     H     0.41970  0.41970  0.00000  0.16060

   Total alpha = 29.00000, Total beta = 29.00000, Total charge =  0.00000
