                              Psi4 1.0.54 Driver

  ==> Input File <==

--------------------------------------------------------------------------
set {
	reference rhf
	basis cc-pvtz
}

set_num_threads( 4 )
memory 2 gb

molecule MOL {
0 1

H	 2.987546	 -0.229567	 0.143961
O	 2.292506	 0.324311	 -0.159674
C	 1.135873	 0.113391	 0.608264
C	 0.027642	 1.012027	 0.090274
H	 1.326330	 0.350738	 1.651892
H	 0.835349	 -0.929706	 0.562503
C	 -1.138737	 0.285728	 -0.581921
H	 0.464661	 1.708096	 -0.618252
H	 -0.340737	 1.603071	 0.925246
C	 -1.933983	 -0.631436	 0.343653
H	 -0.763151	 -0.285569	 -1.422081
H	 -1.808359	 1.035291	 -0.992333
H	 -2.789188	 -1.049673	 -0.174718
H	 -1.335629	 -1.461368	 0.700418
H	 -2.305435	 -0.092167	 1.209725

	symmetry c1
}
set optking {
	frozen_dihedral = ("
		2 3 4 8
	")
}

ee,wfn = optimize('scf', return_wfn=True)
oeprop( wfn, 'DIPOLE', 'QUADRUPOLE', 'MULLIKEN_CHARGES')
f=open( 'psi4out.xyz', 'w' )
f.write( "15  " )
f.write( str(ee) + "\n" )
f.write( MOL.save_string_xyz() )
f.close()
--------------------------------------------------------------------------

    Molecular point group: c1
  Charge       = 0
  Multiplicity = 1
  Basis Set: CC-PVTZ
  Basis Set:
  @DF-RHF Final Energy:  -232.23160000757429
    Total Energy =                       -232.2316000075745137
    Molecular point group: c1
  Basis Set: CC-PVTZ
  Basis Set:
  Basis Set: CC-PVTZ
  Basis Set:
  @DF-RHF Final Energy:  -232.23209684386703
    Total Energy =                       -232.2320968438668842
  Basis Set: CC-PVTZ
  Basis Set:
  Basis Set: CC-PVTZ
  Basis Set:
  @DF-RHF Final Energy:  -232.23233904463547
    Total Energy =                       -232.2323390446355802
  Basis Set: CC-PVTZ
  Basis Set:
  Basis Set: CC-PVTZ
  Basis Set:
  @DF-RHF Final Energy:  -232.23235591772482
    Total Energy =                       -232.2323559177248740
  Basis Set: CC-PVTZ
  Basis Set:
  Basis Set: CC-PVTZ
  Basis Set:
  @DF-RHF Final Energy:  -232.23236105575685
    Total Energy =                       -232.2323610557569964
  Basis Set: CC-PVTZ
  Basis Set:
  Basis Set: CC-PVTZ
  Basis Set:
  @DF-RHF Final Energy:  -232.23236372008469
    Total Energy =                       -232.2323637200847202
  Basis Set: CC-PVTZ
  Basis Set:
  Charge       = 0
  Multiplicity = 1
  Basis Set: CC-PVTZ
  Basis Set:

    Orbital Energies (a.u.)
    -----------------------

    Doubly Occupied:

       1A    -20.545298     2A    -11.265562     3A    -11.213568
       4A    -11.209617     5A    -11.207743     6A     -1.362333
       7A     -1.068020     8A     -0.970121     9A     -0.869956
      10A     -0.783106    11A     -0.705584    12A     -0.647893
      13A     -0.605389    14A     -0.588973    15A     -0.559374
      16A     -0.537515    17A     -0.510169    18A     -0.476802
      19A     -0.472245    20A     -0.455520    21A     -0.431554

  @DF-RHF Final Energy:  -232.23236374996688

   => Energetics <=

    Nuclear Repulsion Energy =            188.6738997082192384
    One-Electron Energy =                -688.8398481103843096
    Two-Electron Energy =                 267.9335846521979647
    DFT Exchange-Correlation Energy =       0.0000000000000000
    Empirical Dispersion Energy =           0.0000000000000000
    PCM Polarization Energy =               0.0000000000000000
    EFP Energy =                            0.0000000000000000
    Total Energy =                       -232.2323637499671349
    Molecular point group: c1
  Basis Set: CC-PVTZ
  Basis Set:

  -Total Gradient:
     Atom            X                  Y                   Z
    ------   -----------------  -----------------  -----------------
       1        0.000000155461     0.000000866723     0.000000673295
       2        0.000375145437     0.000931492601     0.000929944443
       3       -0.000537146573    -0.001418810112    -0.001484470610
       4        0.000462200643     0.001533486071     0.001930320087
       5        0.000001196351    -0.000001206219     0.000000465158
       6       -0.000000538425    -0.000000568587     0.000002048235
       7       -0.000005169018     0.000008164268     0.000003677652
       8       -0.000293944147    -0.001050464615    -0.001378945435
       9       -0.000002171604     0.000000268613    -0.000003588494
      10        0.000003082615    -0.000004364996    -0.000000526626
      11       -0.000000449957    -0.000001431803     0.000003744852
      12       -0.000000118734     0.000001893876    -0.000001985663
      13        0.000000516140    -0.000000055035    -0.000000700992
      14       -0.000001779990    -0.000000146568     0.000001004583
      15       -0.000000978204     0.000000875783    -0.000001660487

  **** Optimization is complete! (in 7 steps) ****
    Final optimized geometry and variables:
    Molecular point group: c1

    Geometry (in Angstrom), charge = 0, multiplicity = 1:

    H            2.871173186214    -0.403362099311     0.013334742304
    O            2.166036878703     0.169540610734    -0.226018348339
    C            1.024325007045    -0.129186122605     0.539571259504
    C           -0.119432570332     0.784365178327     0.086751593102
    H            1.238689127671     0.023317394608     1.593356816143
    H            0.754913836026    -1.173366757656     0.411734721898
    C           -1.248454331565     0.068009509786    -0.656873522298
    H            0.316044093530     1.525779189491    -0.570701992121
    H           -0.532449218248     1.315117729453     0.938277600210
    C           -2.116396368750    -0.818309229620     0.232721018162
    H           -0.823259437377    -0.524259794744    -1.462310940307
    H           -1.881332584940     0.812889692893    -1.128802622352
    H           -2.896836277252    -1.302351012427    -0.343111573038
    H           -1.538313927918    -1.598164610216     0.716245644697
    H           -2.594904303206    -0.233746805175     1.011845104019

  Mulliken Charges: (a.u.)
   Center  Symbol    Alpha    Beta     Spin     Total
       1     H     0.39536  0.39536  0.00000  0.20929
       2     O     4.19925  4.19925  0.00000 -0.39849
       3     C     2.96446  2.96446  0.00000  0.07109
       4     C     3.09499  3.09499  0.00000 -0.18998
       5     H     0.47138  0.47138  0.00000  0.05724
       6     H     0.47491  0.47491  0.00000  0.05019
       7     C     3.09569  3.09569  0.00000 -0.19137
       8     H     0.44169  0.44169  0.00000  0.11663
       9     H     0.45284  0.45284  0.00000  0.09431
      10     C     3.14970  3.14970  0.00000 -0.29939
      11     H     0.45070  0.45070  0.00000  0.09859
      12     H     0.44937  0.44937  0.00000  0.10125
      13     H     0.44757  0.44757  0.00000  0.10485
      14     H     0.45703  0.45703  0.00000  0.08594
      15     H     0.45507  0.45507  0.00000  0.08987

   Total alpha = 21.00000, Total beta = 21.00000, Total charge = -0.00000

*** Psi4 exiting successfully. Buy a developer a beer!
