                              Psi4 1.0.54 Driver

  ==> Input File <==

--------------------------------------------------------------------------
set {
	reference rhf
	basis cc-pvtz
}

set_num_threads( 4 )
memory 2 gb

molecule MOL {
0 1

H	 -2.179831	 -0.864659	 1.220112
N	 -1.400854	 -0.241691	 1.194066
C	 -0.561396	 -0.500007	 0.035200
H	 -0.889230	 -0.374002	 2.041456
C	 0.575129	 0.507849	 -0.048832
H	 -1.181822	 -0.412314	 -0.850576
H	 -0.145904	 -1.508827	 0.027319
C	 1.951750	 -0.141983	 0.035101
H	 0.478254	 1.061643	 -0.975981
H	 0.467676	 1.231891	 0.755499
H	 2.101550	 -0.848142	 -0.774949
H	 2.738260	 0.600794	 -0.026526
H	 2.078939	 -0.679792	 0.968824

	symmetry c1
}
set optking {
	frozen_dihedral = ("
		6 3 5 9
	")
}

ee,wfn = optimize('scf', return_wfn=True)
oeprop( wfn, 'DIPOLE', 'QUADRUPOLE', 'MULLIKEN_CHARGES')
f=open( 'psi4out.xyz', 'w' )
f.write( "13  " )
f.write( str(ee) + "\n" )
f.write( MOL.save_string_xyz() )
f.close()
--------------------------------------------------------------------------

    Molecular point group: c1
  Charge       = 0
  Multiplicity = 1
  Basis Set: CC-PVTZ
  Basis Set:
  @DF-RHF Final Energy:  -173.34576878669537
    Total Energy =                       -173.3457687866953734
    Molecular point group: c1
  Basis Set: CC-PVTZ
  Basis Set:
  Basis Set: CC-PVTZ
  Basis Set:
  @DF-RHF Final Energy:  -173.34615376637416
    Total Energy =                       -173.3461537663740160
  Basis Set: CC-PVTZ
  Basis Set:
  Basis Set: CC-PVTZ
  Basis Set:
  @DF-RHF Final Energy:  -173.34626152772657
    Total Energy =                       -173.3462615277264831
  Basis Set: CC-PVTZ
  Basis Set:
  Charge       = 0
  Multiplicity = 1
  Basis Set: CC-PVTZ
  Basis Set:

    Orbital Energies (a.u.)
    -----------------------

    Doubly Occupied:

       1A    -15.527151     2A    -11.238533     3A    -11.210336
       4A    -11.207827     5A     -1.177418     6A     -1.033579
       7A     -0.900825     8A     -0.799105     9A     -0.667525
      10A     -0.626123    11A     -0.596893    12A     -0.564132
      13A     -0.545347    14A     -0.488359    15A     -0.477736
      16A     -0.464939    17A     -0.383010

  @DF-RHF Final Energy:  -173.34626232895656

   => Energetics <=

    Nuclear Repulsion Energy =            132.1472704552120092
    One-Electron Energy =                -495.1693856014155699
    Two-Electron Energy =                 189.6758528172470335
    DFT Exchange-Correlation Energy =       0.0000000000000000
    Empirical Dispersion Energy =           0.0000000000000000
    PCM Polarization Energy =               0.0000000000000000
    EFP Energy =                            0.0000000000000000
    Total Energy =                       -173.3462623289564988
    Molecular point group: c1
  Basis Set: CC-PVTZ
  Basis Set:

  -Total Gradient:
     Atom            X                  Y                   Z
    ------   -----------------  -----------------  -----------------
       1       -0.000023544097     0.000004230477     0.000008508726
       2       -0.000012048783    -0.000020957991    -0.000050371491
       3       -0.000359762876     0.000521692400     0.000431939908
       4        0.000010104541    -0.000003762519    -0.000051413595
       5        0.000391737099    -0.000479888308    -0.000386609574
       6        0.000246168720    -0.000343697342    -0.000196747655
       7       -0.000003535541    -0.000003827652    -0.000012537100
       8        0.000029449528    -0.000015434967     0.000011370901
       9       -0.000267484352     0.000340441978     0.000245299233
      10        0.000011593184    -0.000015365431    -0.000006860262
      11       -0.000014559415     0.000008435108     0.000010470359
      12       -0.000005395779     0.000008548954    -0.000006949816
      13       -0.000002722230    -0.000000414708     0.000003900364

  **** Optimization is complete! (in 4 steps) ****
    Final optimized geometry and variables:
    Molecular point group: c1

    Geometry (in Angstrom), charge = 0, multiplicity = 1:

    H           -2.305305890693    -0.750109457557     0.922825210297
    N           -1.529773323263    -0.122255746701     0.890566111491
    C           -0.711891055650    -0.367005623596    -0.289858726057
    H           -1.000379548086    -0.268842791366     1.725054254382
    C            0.464961442181     0.622155667606    -0.374731873498
    H           -1.352109002295    -0.255176107330    -1.156136436224
    H           -0.326591044929    -1.385918178267    -0.324195859418
    C            1.835489743597    -0.046837248625    -0.323817904545
    H            0.387520813800     1.208384637123    -1.283502672528
    H            0.374123981142     1.328918098183     0.441753894065
    H            1.972156947365    -0.728187598216    -1.156881491660
    H            2.631516573101     0.687888937475    -0.364568319296
    H            1.959560231979    -0.618638140331     0.590624658039

  Mulliken Charges: (a.u.)
   Center  Symbol    Alpha    Beta     Spin     Total
       1     H     0.42987  0.42987  0.00000  0.14026
       2     N     3.68764  3.68764  0.00000 -0.37528
       3     C     3.03050  3.03050  0.00000 -0.06100
       4     H     0.43107  0.43107  0.00000  0.13787
       5     C     3.09039  3.09039  0.00000 -0.18078
       6     H     0.45457  0.45457  0.00000  0.09087
       7     H     0.46735  0.46735  0.00000  0.06530
       8     C     3.14704  3.14704  0.00000 -0.29409
       9     H     0.45084  0.45084  0.00000  0.09832
      10     H     0.44816  0.44816  0.00000  0.10368
      11     H     0.45577  0.45577  0.00000  0.08845
      12     H     0.44951  0.44951  0.00000  0.10097
      13     H     0.45729  0.45729  0.00000  0.08542

   Total alpha = 17.00000, Total beta = 17.00000, Total charge =  0.00000

*** Psi4 exiting successfully. Buy a developer a beer!
