                              Psi4 1.0.54 Driver

  ==> Input File <==

--------------------------------------------------------------------------
set {
	reference rhf
	basis cc-pvtz
}

set_num_threads( 4 )
memory 2 gb

molecule MOL {
0 1

H	 2.803323	 -0.590805	 -0.088592
O	 2.112021	 -0.031504	 -0.390815
C	 1.135873	 0.113391	 0.608264
C	 0.027642	 1.012027	 0.090274
H	 1.569481	 0.562137	 1.498420
H	 0.739304	 -0.856808	 0.894459
C	 -1.138737	 0.285728	 -0.581921
H	 0.464661	 1.708096	 -0.618252
H	 -0.340737	 1.603071	 0.925246
C	 -1.933983	 -0.631436	 0.343653
H	 -0.763151	 -0.285569	 -1.422081
H	 -1.808359	 1.035291	 -0.992333
H	 -2.789188	 -1.049673	 -0.174718
H	 -1.335629	 -1.461368	 0.700418
H	 -2.305435	 -0.092167	 1.209725

	symmetry c1
}
set optking {
	frozen_dihedral = ("
		2 3 4 8
	")
}

ee,wfn = optimize('scf', return_wfn=True)
oeprop( wfn, 'DIPOLE', 'QUADRUPOLE', 'MULLIKEN_CHARGES')
f=open( 'psi4out.xyz', 'w' )
f.write( "15  " )
f.write( str(ee) + "\n" )
f.write( MOL.save_string_xyz() )
f.close()
--------------------------------------------------------------------------

    Molecular point group: c1
  Charge       = 0
  Multiplicity = 1
  Basis Set: CC-PVTZ
  Basis Set:
  @DF-RHF Final Energy:  -232.23393278253695
    Total Energy =                       -232.2339327825372948
    Molecular point group: c1
  Basis Set: CC-PVTZ
  Basis Set:
  Basis Set: CC-PVTZ
  Basis Set:
  @DF-RHF Final Energy:  -232.22774638898449
    Total Energy =                       -232.2277463889843148
  Basis Set: CC-PVTZ
  Basis Set:
  Basis Set: CC-PVTZ
  Basis Set:
  @DF-RHF Final Energy:  -232.23447671015839
    Total Energy =                       -232.2344767101582761
  Basis Set: CC-PVTZ
  Basis Set:
  Basis Set: CC-PVTZ
  Basis Set:
  @DF-RHF Final Energy:  -232.23470984293004
    Total Energy =                       -232.2347098429301582
  Basis Set: CC-PVTZ
  Basis Set:
  Basis Set: CC-PVTZ
  Basis Set:
  @DF-RHF Final Energy:  -232.23474037803373
    Total Energy =                       -232.2347403780336208
  Basis Set: CC-PVTZ
  Basis Set:
  Basis Set: CC-PVTZ
  Basis Set:
  @DF-RHF Final Energy:  -232.23474914616529
    Total Energy =                       -232.2347491461654272
  Basis Set: CC-PVTZ
  Basis Set:
  Charge       = 0
  Multiplicity = 1
  Basis Set: CC-PVTZ
  Basis Set:

    Orbital Energies (a.u.)
    -----------------------

    Doubly Occupied:

       1A    -20.545787     2A    -11.265375     3A    -11.211226
       4A    -11.209958     5A    -11.206332     6A     -1.363025
       7A     -1.066988     8A     -0.971311     9A     -0.869176
      10A     -0.780567    11A     -0.707448    12A     -0.648099
      13A     -0.605704    14A     -0.583945    15A     -0.561847
      16A     -0.537206    17A     -0.509976    18A     -0.476911
      19A     -0.472438    20A     -0.454429    21A     -0.431461

  @DF-RHF Final Energy:  -232.23474995054963

   => Energetics <=

    Nuclear Repulsion Energy =            189.6603320046315559
    One-Electron Energy =                -690.8317443353107592
    Two-Electron Energy =                 268.9366623801296896
    DFT Exchange-Correlation Energy =       0.0000000000000000
    Empirical Dispersion Energy =           0.0000000000000000
    PCM Polarization Energy =               0.0000000000000000
    EFP Energy =                            0.0000000000000000
    Total Energy =                       -232.2347499505495421
    Molecular point group: c1
  Basis Set: CC-PVTZ
  Basis Set:

  -Total Gradient:
     Atom            X                  Y                   Z
    ------   -----------------  -----------------  -----------------
       1       -0.000016635220     0.000013785629    -0.000000726375
       2        0.001181474433     0.002979868649     0.001085150117
       3       -0.001522746752    -0.004509687534    -0.002021549102
       4        0.000494088255     0.004629110591     0.003911465098
       5        0.000001505852     0.000010550228     0.000008942943
       6       -0.000001976309     0.000004419554     0.000007583066
       7       -0.000022664538     0.000006837790     0.000017847485
       8       -0.000101246315    -0.003120246497    -0.003010996600
       9       -0.000004661841    -0.000004160944     0.000003775263
      10       -0.000004671928    -0.000045506045     0.000000744053
      11        0.000003065124    -0.000005191577     0.000012812760
      12       -0.000002227682     0.000023609537    -0.000019709966
      13        0.000015728902     0.000015049458     0.000016356947
      14       -0.000024906356     0.000009181464    -0.000004913848
      15        0.000005874377    -0.000007620304    -0.000006781840

  **** Optimization is complete! (in 7 steps) ****
    Final optimized geometry and variables:
    Molecular point group: c1

    Geometry (in Angstrom), charge = 0, multiplicity = 1:

    H            2.753582192835    -0.464252396762     0.185365059325
    O            2.062343901568     0.050569642478    -0.188053601589
    C            0.987750099076     0.143378749590     0.714236960747
    C           -0.165214102174     0.854012067047     0.014228963628
    H            1.294247887683     0.710840610564     1.589009035649
    H            0.690230090644    -0.843452779312     1.055322613585
    C           -1.115799235587    -0.080695128783    -0.740230980186
    H            0.278972076790     1.531753419352    -0.704802988959
    H           -0.725701838369     1.444687097610     0.731497767024
    C           -2.049180588611    -0.888024582111     0.158368981940
    H           -0.530142360488    -0.751510577305    -1.361354688496
    H           -1.718635790113     0.513299349061    -1.419881585093
    H           -2.698764586403    -1.524917159416    -0.431054737678
    H           -1.504274227069    -1.527519806785     0.843540420389
    H           -2.679330416706    -0.232886624886     0.751318395836

  Mulliken Charges: (a.u.)
   Center  Symbol    Alpha    Beta     Spin     Total
       1     H     0.39507  0.39507  0.00000  0.20986
       2     O     4.20052  4.20052  0.00000 -0.40104
       3     C     2.96687  2.96687  0.00000  0.06626
       4     C     3.09342  3.09342  0.00000 -0.18685
       5     H     0.46897  0.46897  0.00000  0.06205
       6     H     0.47426  0.47426  0.00000  0.05148
       7     C     3.09366  3.09366  0.00000 -0.18732
       8     H     0.44504  0.44504  0.00000  0.10993
       9     H     0.45270  0.45270  0.00000  0.09460
      10     C     3.15001  3.15001  0.00000 -0.30003
      11     H     0.44906  0.44906  0.00000  0.10187
      12     H     0.44974  0.44974  0.00000  0.10053
      13     H     0.44763  0.44763  0.00000  0.10474
      14     H     0.45709  0.45709  0.00000  0.08583
      15     H     0.45596  0.45596  0.00000  0.08808

   Total alpha = 21.00000, Total beta = 21.00000, Total charge =  0.00000

*** Psi4 exiting successfully. Buy a developer a beer!
