  ==> Input File <==

--------------------------------------------------------------------------
set {
	reference rhf
	basis 6-31G*
}

set_num_threads( 4 )
memory 2 gb

molecule MOL {
0 1

H	 -3.135461	 -1.215070	 0.001379
O	 -2.310168	 -0.871793	 -0.309793
C	 -2.026376	 0.340750	 0.341611
C	 -0.673256	 0.843270	 -0.132153
H	 -2.792215	 1.080697	 0.115987
H	 -2.013526	 0.200402	 1.421792
C	 0.486613	 -0.083066	 0.235839
H	 -0.715586	 0.970948	 -1.210718
H	 -0.508072	 1.829858	 0.297090
C	 1.840406	 0.433480	 -0.254303
H	 0.300215	 -1.068318	 -0.178947
H	 0.519509	 -0.203625	 1.318070
C	 1.757430	 1.829716	 -0.870185
H	 2.541867	 0.448052	 0.577236
H	 2.250266	 -0.259505	 -0.986580
H	 1.383454	 2.552693	 -0.150925
H	 2.731806	 2.170894	 -1.206540
H	 1.089154	 1.841351	 -1.726796

	symmetry c1
}
set optking {
	frozen_dihedral = ("
		14 10 7 11
	")
}

ee = optimize('scf')
oeprop('DIPOLE', 'QUADRUPOLE', 'MULLIKEN_CHARGES')
f=open( 'psi4out.xyz', 'w' )
f.write( "18  " )
f.write( str(ee) + "\n" )
f.write( MOL.save_string_xyz() )
f.close()
--------------------------------------------------------------------------

    Molecular point group: c1
  Charge       = 0
  Multiplicity = 1
  Basis Set: 6-31G*
  Basis Set:
  @DF-RHF Final Energy:  -271.16564788959454
    Total Energy =                       -271.1656478895945952
    Molecular point group: c1
  Basis Set: 6-31G*
  Basis Set:
  Basis Set: 6-31G*
  Basis Set:
  @DF-RHF Final Energy:  -271.16557695084862
    Total Energy =                       -271.1655769508485037
  Basis Set: 6-31G*
  Basis Set:
  Basis Set: 6-31G*
  Basis Set:
  @DF-RHF Final Energy:  -271.16949917756745
    Total Energy =                       -271.1694991775674453
  Basis Set: 6-31G*
  Basis Set:
  Basis Set: 6-31G*
  Basis Set:
  @DF-RHF Final Energy:  -271.17005906623876
    Total Energy =                       -271.1700590662388777
  Basis Set: 6-31G*
  Basis Set:
  @DF-RHF Final Energy:  -271.17012167292739
    Total Energy =                       -271.1701216729273938
  Basis Set: 6-31G*
  Basis Set:
  @DF-RHF Final Energy:  -271.17013808980562
    Total Energy =                       -271.1701380898056755
  Basis Set: 6-31G*
  Basis Set:
  Basis Set: 6-31G*
  Basis Set:
  @DF-RHF Final Energy:  -271.17013467743635
    Total Energy =                       -271.1701346774362946
  Basis Set: 6-31G*
  Basis Set:
  Basis Set: 6-31G*
  Basis Set:
  @DF-RHF Final Energy:  -271.17014033642613
    Total Energy =                       -271.1701403364259022
  Basis Set: 6-31G*
  Basis Set:
  Charge       = 0
  Multiplicity = 1
  Basis Set: 6-31G*
  Basis Set:

    Orbital Energies (a.u.)
    -----------------------

    Doubly Occupied:

       1A    -20.552983     2A    -11.267784     3A    -11.211351
       4A    -11.211272     5A    -11.206561     6A    -11.204923
       7A     -1.359674     8A     -1.070486     9A     -1.004656
      10A     -0.914514    11A     -0.833564    12A     -0.764325
      13A     -0.705243    14A     -0.637919    15A     -0.622579
      16A     -0.598876    17A     -0.560695    18A     -0.548617
      19A     -0.527367    20A     -0.509908    21A     -0.490246
      22A     -0.462621    23A     -0.449829    24A     -0.443167
      25A     -0.427425

  @DF-RHF Final Energy:  -271.17014037614888

   => Energetics <=

    Nuclear Repulsion Energy =            251.9021728528785786
    One-Electron Energy =                -866.9714550082602500
    Two-Electron Energy =                 343.8991417792326502
    DFT Exchange-Correlation Energy =       0.0000000000000000
    Empirical Dispersion Energy =           0.0000000000000000
    PCM Polarization Energy =               0.0000000000000000
    EFP Energy =                            0.0000000000000000
    Total Energy =                       -271.1701403761489928
    Molecular point group: c1
  Basis Set: 6-31G*
  Basis Set:

  -Total Gradient:
     Atom            X                  Y                   Z
    ------   -----------------  -----------------  -----------------
       1       -0.000000246281     0.000000271278     0.000000164856
       2        0.000000952459     0.000004217001    -0.000001870670
       3       -0.000003089824    -0.000000891069     0.000001513872
       4        0.000025360921     0.000002196707    -0.000011115571
       5       -0.000001444244    -0.000001747797    -0.000000642167
       6        0.000002009672     0.000003077141     0.000000414586
       7        0.001021489268    -0.000691649296     0.002200572112
       8        0.000003338743     0.000008768287    -0.000007762765
       9       -0.000001246529    -0.000001936740     0.000000480923
      10        0.000453688148    -0.002264539992    -0.000946502763
      11       -0.000929552202     0.000927089575    -0.001718107657
      12        0.000004129943    -0.000003786457     0.000003905276
      13       -0.000012497057     0.000001048204     0.000023508647
      14       -0.000553446061     0.002024922287     0.000469888320
      15        0.000007642865    -0.000003689842     0.000002978170
      16        0.000014679502     0.000002290803    -0.000006786524
      17       -0.000004228369    -0.000001751191    -0.000012055054
      18       -0.000027540954    -0.000003888893     0.000001416409

  **** Optimization is complete! (in 9 steps) ****
    Final optimized geometry and variables:
    Molecular point group: c1

    Geometry (in Angstrom), charge = 0, multiplicity = 1:

    H           -2.901124423437    -1.709865835952     0.210460723829
    O           -2.102406854514    -1.323891707570    -0.119444937147
    C           -1.855359799975    -0.108966281351     0.542706522162
    C           -0.540980674089     0.465705099250     0.040055019916
    H           -2.660389756189     0.597668578150     0.348795602176
    H           -1.806787012583    -0.263744091975     1.619940364926
    C            0.659353189187    -0.423885656695     0.383948473956
    H           -0.623084387977     0.596317074234    -1.034536117052
    H           -0.423648584826     1.455390972998     0.473412769881
    C            2.051963849798     0.066251840069    -0.102703491447
    H            0.461427031304    -1.401739281436    -0.037644413775
    H            0.683716683031    -0.554128799359     1.463103427322
    C            2.120458598132     1.463226778515    -0.729212172116
    H            2.736845708577     0.058226346823     0.740381590424
    H            2.448851938421    -0.645430691042    -0.820142283943
    H            1.803611134117     2.235406569561    -0.035227373373
    H            3.142919235159     1.687262071911    -1.018328637599
    H            1.506075637890     1.544025229110    -1.619511083653

  Mulliken Charges: (a.u.)
   Center  Symbol    Alpha    Beta     Spin     Total
       1     H     0.28054  0.28054  0.00000  0.43892
       2     O     4.36990  4.36990  0.00000 -0.73980
       3     C     2.99715  2.99715  0.00000  0.00569
       4     C     3.16273  3.16273  0.00000 -0.32547
       5     H     0.42904  0.42904  0.00000  0.14191
       6     H     0.43279  0.43279  0.00000  0.13442
       7     C     3.16003  3.16003  0.00000 -0.32006
       8     H     0.41409  0.41409  0.00000  0.17182
       9     H     0.42283  0.42283  0.00000  0.15434
      10     C     3.15512  3.15512  0.00000 -0.31024
      11     H     0.40413  0.40413  0.00000  0.19174
      12     H     0.42535  0.42535  0.00000  0.14930
      13     C     3.24234  3.24234  0.00000 -0.48469
      14     H     0.42166  0.42166  0.00000  0.15668
      15     H     0.41964  0.41964  0.00000  0.16073
      16     H     0.42268  0.42268  0.00000  0.15465
      17     H     0.41980  0.41980  0.00000  0.16039
      18     H     0.42016  0.42016  0.00000  0.15969

   Total alpha = 25.00000, Total beta = 25.00000, Total charge =  0.00000
