  ==> Input File <==

--------------------------------------------------------------------------
set {
	reference rhf
	basis 6-31G*
}

set_num_threads( 4 )
memory 2 gb

molecule MOL {
0 1

H	 0.508615	 3.206811	 0.974152
C	 0.367784	 2.412764	 1.717979
C	 -0.944169	 1.676269	 1.623296
O	 1.215674	 2.187988	 2.519421
C	 -1.220012	 1.144545	 0.209990
H	 -0.941895	 0.877774	 2.356173
H	 -1.727327	 2.381118	 1.899898
C	 -0.252658	 0.041456	 -0.226725
H	 -2.237296	 0.765913	 0.177490
H	 -1.181298	 1.969129	 -0.500165
C	 1.180775	 0.282413	 0.250794
H	 -0.266029	 -0.034465	 -1.312038
H	 -0.597733	 -0.921000	 0.146291
C	 2.148627	 -0.814315	 -0.201312
H	 1.516199	 1.249228	 -0.115937
H	 1.192670	 0.346017	 1.338083
C	 3.580890	 -0.659131	 0.322722
H	 2.166869	 -0.852443	 -1.289387
H	 1.762857	 -1.776509	 0.128956
C	 4.324889	 0.564933	 -0.213704
H	 4.142010	 -1.551473	 0.056605
H	 3.564836	 -0.624694	 1.410140
H	 4.342616	 0.565491	 -1.300421
H	 3.866655	 1.493402	 0.110242
H	 5.353900	 0.572371	 0.132816

	symmetry c1
}
set optking {
	frozen_dihedral = ("
		3 5 8 12
	")
}

ee = optimize('scf')
oeprop('DIPOLE', 'QUADRUPOLE', 'MULLIKEN_CHARGES')
f=open( 'psi4out.xyz', 'w' )
f.write( "25  " )
f.write( str(ee) + "\n" )
f.write( MOL.save_string_xyz() )
f.close()
--------------------------------------------------------------------------

    Molecular point group: c1
  Charge       = 0
  Multiplicity = 1
  Basis Set: 6-31G*
  Basis Set:
  @DF-RHF Final Energy:  -387.10622978608797
    Total Energy =                       -387.1062297860872832
    Molecular point group: c1
  Basis Set: 6-31G*
  Basis Set:
  Basis Set: 6-31G*
  Basis Set:
  @DF-RHF Final Energy:  -387.11268724090638
    Total Energy =                       -387.1126872409066664
  Basis Set: 6-31G*
  Basis Set:
  Basis Set: 6-31G*
  Basis Set:
  @DF-RHF Final Energy:  -387.11377037799565
    Total Energy =                       -387.1137703779954791
  Basis Set: 6-31G*
  Basis Set:
  Basis Set: 6-31G*
  Basis Set:
  @DF-RHF Final Energy:  -387.11511612532337
    Total Energy =                       -387.1151161253229702
  Basis Set: 6-31G*
  Basis Set:
  @DF-RHF Final Energy:  -387.11582042158102
    Total Energy =                       -387.1158204215812475
  @DF-RHF Final Energy:  -387.11617171129325
    Total Energy =                       -387.1161717112931910
  @DF-RHF Final Energy:  -387.11639789381371
    Total Energy =                       -387.1163978938137689
  @DF-RHF Final Energy:  -387.11655246980047
    Total Energy =                       -387.1165524698000127
  @DF-RHF Final Energy:  -387.11665354939566
    Total Energy =                       -387.1166535493961192
  @DF-RHF Final Energy:  -387.11667213429041
    Total Energy =                       -387.1166721342908659
  @DF-RHF Final Energy:  -387.11670886280251
    Total Energy =                       -387.1167088628017154
  Basis Set: 6-31G*
  Basis Set:
  @DF-RHF Final Energy:  -387.11672304782479
    Total Energy =                       -387.1167230478235979
  Basis Set: 6-31G*
  Basis Set:
  Basis Set: 6-31G*
  Basis Set:
  @DF-RHF Final Energy:  -387.11673626125150
    Total Energy =                       -387.1167362612511624
  Basis Set: 6-31G*
  Basis Set:
  Basis Set: 6-31G*
  Basis Set:
  @DF-RHF Final Energy:  -387.11674054046347
    Total Energy =                       -387.1167405404637520
  Basis Set: 6-31G*
  Basis Set:
  Charge       = 0
  Multiplicity = 1
  Basis Set: 6-31G*
  Basis Set:

    Orbital Energies (a.u.)
    -----------------------

    Doubly Occupied:

       1A    -20.560922     2A    -11.326957     3A    -11.235750
       4A    -11.235161     5A    -11.223922     6A    -11.216813
       7A    -11.215429     8A    -11.214111     9A    -11.206079
      10A     -1.401829    11A     -1.101835    12A     -1.065788
      13A     -1.008748    14A     -0.944142    15A     -0.880418
      16A     -0.812354    17A     -0.787783    18A     -0.777623
      19A     -0.662552    20A     -0.656857    21A     -0.634690
      22A     -0.625743    23A     -0.606960    24A     -0.589512
      25A     -0.561118    26A     -0.556152    27A     -0.537433
      28A     -0.526117    29A     -0.507524    30A     -0.502249
      31A     -0.480356    32A     -0.470738    33A     -0.460136
      34A     -0.453059    35A     -0.442343    36A     -0.409450

  @DF-RHF Final Energy:  -387.11674143518866

   => Energetics <=

    Nuclear Repulsion Energy =            457.0107870023373948
    One-Electron Energy =               -1430.4577474070497374
    Two-Electron Energy =                 586.3302189695235711
    DFT Exchange-Correlation Energy =       0.0000000000000000
    Empirical Dispersion Energy =           0.0000000000000000
    PCM Polarization Energy =               0.0000000000000000
    EFP Energy =                            0.0000000000000000
    Total Energy =                       -387.1167414351888283
    Molecular point group: c1
  Basis Set: 6-31G*
  Basis Set:

  -Total Gradient:
     Atom            X                  Y                   Z
    ------   -----------------  -----------------  -----------------
       1       -0.000048858302     0.000046608274     0.000040113908
       2       -0.000018948453     0.000021742808    -0.000009012131
       3        0.002616687130     0.002883125280    -0.001458713501
       4        0.000063625518    -0.000093927370    -0.000076094566
       5       -0.002895650220    -0.003434623946     0.002117472759
       6       -0.000012547492     0.000022536156     0.000025673462
       7       -0.000008940184     0.000000547767    -0.000050428526
       8       -0.003806571301    -0.003204557442    -0.000477743009
       9       -0.000001718392     0.000016656916    -0.000015445222
      10        0.000017248833     0.000006002900     0.000008030765
      11        0.000000485059     0.000032864426     0.000041764999
      12        0.004092436300     0.003701272383    -0.000150034260
      13        0.000000831148     0.000001569873     0.000009852949
      14        0.000000095472     0.000002740828    -0.000005455268
      15       -0.000004204391     0.000005647684     0.000003688093
      16        0.000005494972    -0.000006258630    -0.000003110853
      17       -0.000000346429    -0.000001733997     0.000000182010
      18        0.000002799565    -0.000001497033    -0.000001298674
      19       -0.000001571348    -0.000000063203    -0.000000502912
      20       -0.000000288398     0.000001703067     0.000001840012
      21        0.000000574109     0.000001147292    -0.000000779557
      22       -0.000000959842    -0.000000827252     0.000000179312
      23       -0.000000728029     0.000000364637    -0.000000005680
      24        0.000000687407    -0.000000706824     0.000000815694
      25        0.000000367267    -0.000000334592    -0.000000989809

  **** Optimization is complete! (in 15 steps) ****
    Final optimized geometry and variables:
    Molecular point group: c1

    Geometry (in Angstrom), charge = 0, multiplicity = 1:

    H           -1.002143594844     2.642185689427     0.297285150714
    C           -1.048075993664     1.893752499780     1.097963161136
    C           -2.152071204197     0.875358005557     0.957810240060
    O           -0.287115178658     1.945211886868     2.008874762273
    C           -2.316294330454     0.298162091067    -0.457599666331
    H           -2.008243667039     0.104944124399     1.706797017166
    H           -3.068877063673     1.405083429853     1.217289203334
    C           -1.328226586275    -0.809057997682    -0.870078958989
    H           -3.326185092677    -0.084495093729    -0.560854195557
    H           -2.241478543855     1.121704102229    -1.166469654125
    C            0.126026782864    -0.608069038509    -0.427424587543
    H           -1.324029001130    -0.858245140782    -1.956199293579
    H           -1.681925121453    -1.768510216061    -0.501773467251
    C            1.047489263724    -1.703762684002    -0.971746955292
    H            0.474600458993     0.363790762816    -0.769465419104
    H            0.194960120534    -0.595534689918     0.656534553226
    C            2.495318156116    -1.624993430098    -0.474564162633
    H            1.039762375495    -1.674181556586    -2.060308343382
    H            0.638956739937    -2.672899410035    -0.692096962558
    C            3.256334545169    -0.378211284742    -0.928870787645
    H            3.026395468218    -2.506429891948    -0.825679293697
    H            2.505052846725    -1.677065611252     0.611913533806
    H            3.244622424478    -0.286124667673    -2.011914819865
    H            2.832664130126     0.529539420466    -0.512745465063
    H            4.294086510402    -0.425460235843    -0.613757206372

  Mulliken Charges: (a.u.)
   Center  Symbol    Alpha    Beta     Spin     Total
       1     H     0.43171  0.43171  0.00000  0.13658
       2     C     2.82812  2.82812  0.00000  0.34375
       3     C     3.21098  3.21098  0.00000 -0.42196
       4     O     4.24154  4.24154  0.00000 -0.48308
       5     C     3.16693  3.16693  0.00000 -0.33386
       6     H     0.39893  0.39893  0.00000  0.20213
       7     H     0.40475  0.40475  0.00000  0.19049
       8     C     3.15008  3.15008  0.00000 -0.30015
       9     H     0.41159  0.41159  0.00000  0.17682
      10     H     0.42027  0.42027  0.00000  0.15945
      11     C     3.16724  3.16724  0.00000 -0.33447
      12     H     0.41940  0.41940  0.00000  0.16120
      13     H     0.41952  0.41952  0.00000  0.16096
      14     C     3.15182  3.15182  0.00000 -0.30364
      15     H     0.42250  0.42250  0.00000  0.15499
      16     H     0.41197  0.41197  0.00000  0.17605
      17     C     3.15243  3.15243  0.00000 -0.30487
      18     H     0.42468  0.42468  0.00000  0.15064
      19     H     0.42226  0.42226  0.00000  0.15547
      20     C     3.24228  3.24228  0.00000 -0.48457
      21     H     0.42139  0.42139  0.00000  0.15722
      22     H     0.42044  0.42044  0.00000  0.15912
      23     H     0.42387  0.42387  0.00000  0.15225
      24     H     0.41675  0.41675  0.00000  0.16650
      25     H     0.41853  0.41853  0.00000  0.16295

   Total alpha = 36.00000, Total beta = 36.00000, Total charge = -0.00000
