  ==> Input File <==

--------------------------------------------------------------------------
set {
	reference rhf
	basis 6-31G*
}

set_num_threads( 1 )
memory 2 gb

molecule MOL {
0 1

H	 -2.422912	 -0.277489	 -0.768510
N	 -1.852125	 0.165761	 -0.074816
C	 -0.563778	 -0.502042	 0.037919
H	 -2.353518	 0.110400	 0.791381
C	 0.575259	 0.508231	 -0.048326
H	 -0.482092	 -1.204004	 -0.786564
H	 -0.460411	 -1.085169	 0.956626
C	 1.954651	 -0.143624	 0.035137
H	 0.475158	 1.060484	 -0.977307
H	 0.469181	 1.234488	 0.755973
H	 2.103292	 -0.853109	 -0.774172
H	 2.742821	 0.599562	 -0.030094
H	 2.083613	 -0.679371	 0.971560

	symmetry c1
}
set optking {
	frozen_dihedral = ("
		6 3 5 9
	")
}

ee = energy('scf')
oeprop('DIPOLE', 'QUADRUPOLE', 'MULLIKEN_CHARGES')
f=open( 'psi4out.xyz', 'w' )
f.write( "13  " )
f.write( str(ee) + "\n" )
f.write( MOL.save_string_xyz() )
f.close()
--------------------------------------------------------------------------

    Molecular point group: c1

    Geometry (in Angstrom), charge = 0, multiplicity = 1:

       Center              X                  Y                   Z               Mass
    ------------   -----------------  -----------------  -----------------  -----------------
           H         -2.420036540342    -0.270195938513    -0.758168406056     1.007825032070
           N         -1.849249540342     0.173054061487    -0.064474406056    14.003074004780
           C         -0.560902540342    -0.494748938513     0.048260593944    12.000000000000
           H         -2.350642540342     0.117693061487     0.801722593944     1.007825032070
           C          0.578134459658     0.515524061487    -0.037984406056    12.000000000000
           H         -0.479216540342    -1.196710938513    -0.776222406056     1.007825032070
           H         -0.457535540342    -1.077875938513     0.966967593944     1.007825032070
           C          1.957526459658    -0.136330938513     0.045478593944    12.000000000000
           H          0.478033459658     1.067777061487    -0.966965406056     1.007825032070
           H          0.472056459658     1.241781061487     0.766314593944     1.007825032070
           H          2.106167459658    -0.845815938513    -0.763830406056     1.007825032070
           H          2.745696459658     0.606855061487    -0.019752406056     1.007825032070
           H          2.086488459658    -0.672077938513     0.981901593944     1.007825032070

  Charge       = 0
  Multiplicity = 1
  Basis Set: 6-31G*
  Basis Set:

    Orbital Energies (a.u.)
    -----------------------

    Doubly Occupied:

       1A    -15.532307     2A    -11.240382     3A    -11.205201
       4A    -11.204393     5A     -1.176568     6A     -1.031731
       7A     -0.897107     8A     -0.793040     9A     -0.675383
      10A     -0.613385    11A     -0.600251    12A     -0.573460
      13A     -0.516165    14A     -0.488640    15A     -0.484424
      16A     -0.462433    17A     -0.379565

  @DF-RHF Final Energy:  -173.27890939001242

   => Energetics <=

    Nuclear Repulsion Energy =            131.6286989456180549
    One-Electron Energy =                -494.0664539328276987
    Two-Electron Energy =                 189.1588455971968870
    DFT Exchange-Correlation Energy =       0.0000000000000000
    Empirical Dispersion Energy =           0.0000000000000000
    PCM Polarization Energy =               0.0000000000000000
    EFP Energy =                            0.0000000000000000
    Total Energy =                       -173.2789093900127568

  Mulliken Charges: (a.u.)
   Center  Symbol    Alpha    Beta     Spin     Total
       1     H     0.33138  0.33138  0.00000  0.33724
       2     N     3.92319  3.92319  0.00000 -0.84639
       3     C     3.06834  3.06834  0.00000 -0.13669
       4     H     0.33263  0.33263  0.00000  0.33474
       5     C     3.13821  3.13821  0.00000 -0.27642
       6     H     0.42593  0.42593  0.00000  0.14815
       7     H     0.42791  0.42791  0.00000  0.14418
       8     C     3.24599  3.24599  0.00000 -0.49198
       9     H     0.41846  0.41846  0.00000  0.16308
      10     H     0.42255  0.42255  0.00000  0.15491
      11     H     0.42348  0.42348  0.00000  0.15304
      12     H     0.41821  0.41821  0.00000  0.16358
      13     H     0.42372  0.42372  0.00000  0.15256

   Total alpha = 17.00000, Total beta = 17.00000, Total charge =  0.00000
