  ==> Input File <==

--------------------------------------------------------------------------
set {
	reference rhf
	basis 6-31G*
}

set_num_threads( 1 )
memory 2 gb

molecule MOL {
0 1

H	 -3.161837	 0.500524	 -0.000234
C	 -2.367097	 -0.232926	 -0.000000
O	 -1.158440	 0.455814	 -0.000122
H	 -2.468853	 -0.861886	 -0.882833
H	 -2.468942	 -0.861421	 0.883154
C	 -0.029776	 -0.365156	 0.000148
C	 1.212217	 0.508981	 0.000007
H	 -0.036772	 -1.013236	 -0.877259
H	 -0.036869	 -1.012778	 0.877897
C	 0.965430	 1.875107	 0.638503
H	 2.002046	 -0.015075	 0.529342
H	 1.548485	 0.629245	 -1.025254
H	 0.651052	 1.777799	 1.673936
H	 1.867406	 2.477676	 0.624511
H	 0.193663	 2.426521	 0.108672

	symmetry c1
}
set optking {
	frozen_dihedral = ("
		6 3 2 4,
		8 6 3 2
	")
}

ee = energy('scf')
oeprop('DIPOLE', 'QUADRUPOLE', 'MULLIKEN_CHARGES')
f=open( 'psi4out.xyz', 'w' )
f.write( "15  " )
f.write( str(ee) + "\n" )
f.write( MOL.save_string_xyz() )
f.close()
--------------------------------------------------------------------------

    Molecular point group: c1

    Geometry (in Angstrom), charge = 0, multiplicity = 1:

       Center              X                  Y                   Z               Mass
    ------------   -----------------  -----------------  -----------------  -----------------
           H         -2.850179835343     0.057694024650    -0.129684895711     1.007825032070
           C         -2.055439835343    -0.675755975350    -0.129450895711    12.000000000000
           O         -0.846782835343     0.012984024650    -0.129572895711    15.994914619560
           H         -2.157195835343    -1.304715975350    -1.012283895711     1.007825032070
           H         -2.157284835343    -1.304250975350     0.753703104289     1.007825032070
           C          0.281881164657    -0.807985975350    -0.129302895711    12.000000000000
           C          1.523874164657     0.066151024650    -0.129443895711    12.000000000000
           H          0.274885164657    -1.456065975350    -1.006709895711     1.007825032070
           H          0.274788164657    -1.455607975350     0.748446104289     1.007825032070
           C          1.277087164657     1.432277024650     0.509052104289    12.000000000000
           H          2.313703164657    -0.457904975350     0.399891104289     1.007825032070
           H          1.860142164657     0.186415024650    -1.154704895711     1.007825032070
           H          0.962709164657     1.334969024650     1.544485104289     1.007825032070
           H          2.179063164657     2.034846024650     0.495060104289     1.007825032070
           H          0.505320164657     1.983691024650    -0.020778895711     1.007825032070

  Charge       = 0
  Multiplicity = 1
  Basis Set: 6-31G*
  Basis Set:

    Orbital Energies (a.u.)
    -----------------------

    Doubly Occupied:

       1A    -20.554286     2A    -11.265933     3A    -11.264672
       4A    -11.213242     5A    -11.198843     6A     -1.380215
       7A     -1.052285     8A     -0.946331     9A     -0.890778
      10A     -0.792334    11A     -0.673377    12A     -0.660473
      13A     -0.634945    14A     -0.599931    15A     -0.548537
      16A     -0.541089    17A     -0.505750    18A     -0.480757
      19A     -0.473189    20A     -0.459526    21A     -0.410944

  @DF-RHF Final Energy:  -232.13354750473022

   => Energetics <=

    Nuclear Repulsion Energy =            194.7461170253890543
    One-Electron Energy =                -700.6646303341136672
    Two-Electron Energy =                 273.7849658039948508
    DFT Exchange-Correlation Energy =       0.0000000000000000
    Empirical Dispersion Energy =           0.0000000000000000
    PCM Polarization Energy =               0.0000000000000000
    EFP Energy =                            0.0000000000000000
    Total Energy =                       -232.1335475047297905

  Mulliken Charges: (a.u.)
   Center  Symbol    Alpha    Beta     Spin     Total
       1     H     0.41245  0.41245  0.00000  0.17509
       2     C     3.07848  3.07848  0.00000 -0.15696
       3     O     4.30459  4.30459  0.00000 -0.60917
       4     H     0.43039  0.43039  0.00000  0.13921
       5     H     0.43008  0.43008  0.00000  0.13984
       6     C     2.98545  2.98545  0.00000  0.02909
       7     C     3.16935  3.16935  0.00000 -0.33870
       8     H     0.42998  0.42998  0.00000  0.14004
       9     H     0.43227  0.43227  0.00000  0.13545
      10     C     3.23358  3.23358  0.00000 -0.46716
      11     H     0.42086  0.42086  0.00000  0.15828
      12     H     0.41878  0.41878  0.00000  0.16244
      13     H     0.42209  0.42209  0.00000  0.15581
      14     H     0.42493  0.42493  0.00000  0.15015
      15     H     0.40671  0.40671  0.00000  0.18657

   Total alpha = 21.00000, Total beta = 21.00000, Total charge =  0.00000
