  ==> Input File <==

--------------------------------------------------------------------------
set {
	reference rhf
	basis 6-31G*
}

set_num_threads( 4 )
memory 2 gb

molecule MOL {
0 1

H	 1.478244	 1.153511	 0.547504
C	 0.850167	 0.441173	 0.000644
C	 -0.623425	 0.760064	 0.000248
O	 1.341008	 -0.496807	 -0.538813
C	 -1.518387	 -0.473136	 -0.000101
H	 -0.818289	 1.390622	 -0.866171
H	 -0.818694	 1.390413	 0.866696
H	 -1.333417	 -1.085530	 -0.874338
H	 -2.563510	 -0.183466	 -0.000351
H	 -1.333864	 -1.085676	 0.874123

	symmetry c1
}
set optking {
	frozen_dihedral = ("
		4 2 3 6
	")
}

ee = optimize('scf')
oeprop('DIPOLE', 'QUADRUPOLE', 'MULLIKEN_CHARGES')
f=open( 'psi4out.xyz', 'w' )
f.write( "10  " )
f.write( str(ee) + "\n" )
f.write( MOL.save_string_xyz() )
f.close()
--------------------------------------------------------------------------

    Molecular point group: c1
  Charge       = 0
  Multiplicity = 1
  Basis Set: 6-31G*
  Basis Set:
  @DF-RHF Final Energy:  -191.95000702889507
    Total Energy =                       -191.9500070288950155
    Molecular point group: c1
  Basis Set: 6-31G*
  Basis Set:
  Basis Set: 6-31G*
  Basis Set:
  @DF-RHF Final Energy:  -191.94923993766400
    Total Energy =                       -191.9492399376640037
  Basis Set: 6-31G*
  Basis Set:
  Basis Set: 6-31G*
  Basis Set:
  @DF-RHF Final Energy:  -191.95016433696668
    Total Energy =                       -191.9501643369666226
  Basis Set: 6-31G*
  Basis Set:
  Basis Set: 6-31G*
  Basis Set:
  @DF-RHF Final Energy:  -191.95045257847116
    Total Energy =                       -191.9504525784711007
  Basis Set: 6-31G*
  Basis Set:
  Charge       = 0
  Multiplicity = 1
  Basis Set: 6-31G*
  Basis Set:

    Orbital Energies (a.u.)
    -----------------------

    Doubly Occupied:

       1A    -20.564464     2A    -11.329211     3A    -11.239960
       4A    -11.221064     5A     -1.404925     6A     -1.059449
       7A     -0.908206     8A     -0.776562     9A     -0.683278
      10A     -0.637469    11A     -0.622978    12A     -0.549394
      13A     -0.533357    14A     -0.515287    15A     -0.491785
      16A     -0.413593

  @DF-RHF Final Energy:  -191.95045312737733

   => Energetics <=

    Nuclear Repulsion Energy =            119.0046403227901806
    One-Electron Energy =                -496.0082226331284119
    Two-Electron Energy =                 185.0531291829609017
    DFT Exchange-Correlation Energy =       0.0000000000000000
    Empirical Dispersion Energy =           0.0000000000000000
    PCM Polarization Energy =               0.0000000000000000
    EFP Energy =                            0.0000000000000000
    Total Energy =                       -191.9504531273773296
    Molecular point group: c1
  Basis Set: 6-31G*
  Basis Set:

  -Total Gradient:
     Atom            X                  Y                   Z
    ------   -----------------  -----------------  -----------------
       1       -0.000041636055     0.000011765901     0.000010664627
       2       -0.000408472640    -0.002094377670     0.002613113175
       3        0.000584563417     0.002645764764     0.000545597581
       4        0.000190234795     0.001200770987    -0.001982716975
       5        0.000056054966     0.000032925440    -0.000015749085
       6       -0.000411185576    -0.001819217866    -0.001166343169
       7        0.000022949377     0.000014392186     0.000008343480
       8       -0.000004025409    -0.000021635354    -0.000020399890
       9        0.000001343482     0.000013436216     0.000004743580
      10        0.000010173642     0.000016175395     0.000002746674

  **** Optimization is complete! (in 5 steps) ****
    Final optimized geometry and variables:
    Molecular point group: c1

    Geometry (in Angstrom), charge = 0, multiplicity = 1:

    H            1.508676027136     1.137350363823     0.611456376033
    C            0.849024045117     0.403366099304     0.135943115850
    C           -0.626426867215     0.729616069492     0.162628507458
    O            1.309788723347    -0.552627370529    -0.398934292989
    C           -1.517155901314    -0.510819953590     0.126168356094
    H           -0.818050019720     1.341549265926    -0.718313737786
    H           -0.840404316235     1.350817102949     1.027115405050
    H           -1.297586642507    -1.113888442135    -0.745128742348
    H           -2.563009204365    -0.225770832598     0.093850868315
    H           -1.362834433430    -1.127438965805     1.005090390097

  Mulliken Charges: (a.u.)
   Center  Symbol    Alpha    Beta     Spin     Total
       1     H     0.42662  0.42662  0.00000  0.14675
       2     C     2.84037  2.84037  0.00000  0.31925
       3     C     3.20726  3.20726  0.00000 -0.41452
       4     O     4.23636  4.23636  0.00000 -0.47271
       5     C     3.23980  3.23980  0.00000 -0.47960
       6     H     0.40210  0.40210  0.00000  0.19579
       7     H     0.41245  0.41245  0.00000  0.17511
       8     H     0.40325  0.40325  0.00000  0.19350
       9     H     0.41677  0.41677  0.00000  0.16647
      10     H     0.41502  0.41502  0.00000  0.16996

   Total alpha = 16.00000, Total beta = 16.00000, Total charge = -0.00000
