  ==> Input File <==

--------------------------------------------------------------------------
set {
	reference rhf
	basis 6-31G*
}

set_num_threads( 4 )
memory 2 gb

molecule MOL {
0 1

O	 -1.276010	 1.052711	 -0.768302
C	 -1.204840	 0.067374	 -0.106123
C	 -2.388195	 -0.672128	 0.458071
O	 -0.067104	 -0.527208	 0.221609
H	 -2.388023	 -1.694060	 0.097175
H	 -3.300579	 -0.174919	 0.164318
H	 -2.315377	 -0.706351	 1.539059
C	 0.993960	 0.259437	 0.781306
C	 2.278468	 -0.483065	 0.458324
C	 0.768535	 0.437888	 2.274620
H	 0.985937	 1.222724	 0.292920
H	 2.392560	 -0.602661	 -0.613090
H	 3.133735	 0.068456	 0.834721
H	 2.277335	 -1.467429	 0.914043
H	 1.580348	 1.013038	 2.708416
H	 -0.157528	 0.966100	 2.462702
H	 0.730217	 -0.526945	 2.770237

	symmetry c1
}
set optking {
	frozen_dihedral = ("
		8 4 2 1
	")
}

ee = optimize('scf')
oeprop('DIPOLE', 'QUADRUPOLE', 'MULLIKEN_CHARGES')
f=open( 'psi4out.xyz', 'w' )
f.write( "17  " )
f.write( str(ee) + "\n" )
f.write( MOL.save_string_xyz() )
f.close()
--------------------------------------------------------------------------

    Molecular point group: c1
  Charge       = 0
  Multiplicity = 1
  Basis Set: 6-31G*
  Basis Set:
  @DF-RHF Final Energy:  -344.90351331655677
    Total Energy =                       -344.9035133165565412
    Molecular point group: c1
  Basis Set: 6-31G*
  Basis Set:
  Basis Set: 6-31G*
  Basis Set:
  @DF-RHF Final Energy:  -344.90122765121674
    Total Energy =                       -344.9012276512162885
  Basis Set: 6-31G*
  Basis Set:
  Basis Set: 6-31G*
  Basis Set:
  @DF-RHF Final Energy:  -344.90443312768230
    Total Energy =                       -344.9044331276824096
  Basis Set: 6-31G*
  Basis Set:
  Basis Set: 6-31G*
  Basis Set:
  @DF-RHF Final Energy:  -344.90444150369865
    Total Energy =                       -344.9044415036983651
  Basis Set: 6-31G*
  Basis Set:
  Basis Set: 6-31G*
  Basis Set:
  @DF-RHF Final Energy:  -344.90448244735023
    Total Energy =                       -344.9044824473504036
  Basis Set: 6-31G*
  Basis Set:
  Basis Set: 6-31G*
  Basis Set:
  @DF-RHF Final Energy:  -344.90451819010991
    Total Energy =                       -344.9045181901101387
  Basis Set: 6-31G*
  Basis Set:
  Basis Set: 6-31G*
  Basis Set:
  @DF-RHF Final Energy:  -344.90452087293761
    Total Energy =                       -344.9045208729376100
  Basis Set: 6-31G*
  Basis Set:
  Charge       = 0
  Multiplicity = 1
  Basis Set: 6-31G*
  Basis Set:

    Orbital Energies (a.u.)
    -----------------------

    Doubly Occupied:

       1A    -20.587985     2A    -20.548842     3A    -11.375148
       4A    -11.294411     5A    -11.233214     6A    -11.224814
       7A    -11.219981     8A     -1.459222     9A     -1.362627
      10A     -1.076832    11A     -1.008155    12A     -0.952801
      13A     -0.846900    14A     -0.763959    15A     -0.694612
      16A     -0.665244    17A     -0.660634    18A     -0.622372
      19A     -0.586807    20A     -0.580364    21A     -0.562891
      22A     -0.552080    23A     -0.539376    24A     -0.523985
      25A     -0.502769    26A     -0.485306    27A     -0.445950
      28A     -0.434369

  @DF-RHF Final Energy:  -344.90452130945272

   => Energetics <=

    Nuclear Repulsion Energy =            322.7714558217024319
    One-Electron Energy =               -1109.7286546788923260
    Two-Electron Energy =                 442.0526775477369483
    DFT Exchange-Correlation Energy =       0.0000000000000000
    Empirical Dispersion Energy =           0.0000000000000000
    PCM Polarization Energy =               0.0000000000000000
    EFP Energy =                            0.0000000000000000
    Total Energy =                       -344.9045213094530027
    Molecular point group: c1
  Basis Set: 6-31G*
  Basis Set:

  -Total Gradient:
     Atom            X                  Y                   Z
    ------   -----------------  -----------------  -----------------
       1       -0.000865984045    -0.004808145926    -0.008458590539
       2        0.000114821046     0.006118122541     0.016183708517
       3       -0.000004405235     0.000006223840     0.000057408205
       4        0.003020803729     0.000648071162    -0.014827359848
       5       -0.000006654890    -0.000002366956    -0.000022619640
       6       -0.000006404467    -0.000011014349    -0.000009875721
       7        0.000004481845    -0.000024598291    -0.000016015125
       8       -0.002303129621    -0.001965322889     0.007068962030
       9        0.000015286452     0.000016231438     0.000001027762
      10        0.000020578146     0.000012332780     0.000007576488
      11        0.000007457501     0.000000726995     0.000008609796
      12        0.000000848450    -0.000000393892    -0.000001487574
      13        0.000006906283    -0.000003670287    -0.000000497685
      14       -0.000006114028     0.000006443112    -0.000001274380
      15       -0.000001657215     0.000002377550     0.000007795925
      16        0.000004749958     0.000003195875     0.000002944245
      17       -0.000001583905     0.000001787293    -0.000000312452

  **** Optimization is complete! (in 8 steps) ****
    Final optimized geometry and variables:
    Molecular point group: c1

    Geometry (in Angstrom), charge = 0, multiplicity = 1:

    O           -1.196131566897     1.115329930460    -1.092058981051
    C           -1.097713641365     0.082104584198    -0.518857753377
    C           -2.261459672150    -0.755393069844    -0.063702815983
    O            0.074432174174    -0.530659847179    -0.307928555209
    H           -2.195109725249    -1.739377265693    -0.513765414821
    H           -3.190773305716    -0.280854346048    -0.342135712148
    H           -2.218244273403    -0.887273332271     1.012016968399
    C            1.154769737052     0.226251809672     0.250559116483
    C            2.418900076667    -0.563128743745    -0.035950987545
    C            0.913990348883     0.441644825836     1.737561346093
    H            1.193273750508     1.179231847352    -0.259475543241
    H            2.541171689308    -0.705861749354    -1.102985425657
    H            3.287181823830    -0.034576833891     0.343527313436
    H            2.374980100453    -1.538134332967     0.437557479036
    H            1.740094285899     0.992366290355     2.175283792583
    H            0.008424600859     1.014727948145     1.910265471242
    H            0.824484829332    -0.510109417413     2.250830614052

  Mulliken Charges: (a.u.)
   Center  Symbol    Alpha    Beta     Spin     Total
       1     O     4.26961  4.26961  0.00000 -0.53922
       2     C     2.61777  2.61777  0.00000  0.76445
       3     C     3.28375  3.28375  0.00000 -0.56750
       4     O     4.32091  4.32091  0.00000 -0.64181
       5     H     0.39850  0.39850  0.00000  0.20301
       6     H     0.39812  0.39812  0.00000  0.20375
       7     H     0.40464  0.40464  0.00000  0.19071
       8     C     2.92795  2.92795  0.00000  0.14411
       9     C     3.24307  3.24307  0.00000 -0.48614
      10     C     3.25192  3.25192  0.00000 -0.50384
      11     H     0.40144  0.40144  0.00000  0.19712
      12     H     0.40771  0.40771  0.00000  0.18459
      13     H     0.41826  0.41826  0.00000  0.16348
      14     H     0.41432  0.41432  0.00000  0.17135
      15     H     0.41458  0.41458  0.00000  0.17085
      16     H     0.41367  0.41367  0.00000  0.17266
      17     H     0.41378  0.41378  0.00000  0.17244

   Total alpha = 28.00000, Total beta = 28.00000, Total charge = -0.00000
