  ==> Input File <==

--------------------------------------------------------------------------
set {
	reference rhf
	basis cc-pvtz
}

set_num_threads( 4 )
memory 2 gb

molecule MOL {
0 1

H	 1.327213	 -1.574369	 -0.154043
O	 1.583947	 -0.677544	 -0.001533
C	 0.489979	 0.078084	 0.002623
C	 -0.763662	 -0.754014	 0.000816
O	 0.539051	 1.259395	 -0.000088
C	 -2.038001	 0.074705	 -0.000833
H	 -0.712945	 -1.405886	 -0.864342
H	 -0.715137	 -1.405770	 0.866182
H	 -2.087267	 0.710831	 -0.874232
H	 -2.903419	 -0.576199	 -0.001922
H	 -2.089467	 0.710909	 0.872389

	symmetry c1
}
set optking {
	frozen_dihedral = ("
		1 2 3 5
	")
}

ee = optimize('scf')
oeprop('DIPOLE', 'QUADRUPOLE', 'MULLIKEN_CHARGES')
f=open( 'psi4out.xyz', 'w' )
f.write( "11  " )
f.write( str(ee) + "\n" )
f.write( MOL.save_string_xyz() )
f.close()
--------------------------------------------------------------------------

    Molecular point group: c1
  Charge       = 0
  Multiplicity = 1
  Basis Set: CC-PVTZ
  Basis Set:
  @DF-RHF Final Energy:  -266.94216182119328
    Total Energy =                       -266.9421618211931104
    Molecular point group: c1
  Basis Set: CC-PVTZ
  Basis Set:
  Basis Set: CC-PVTZ
  Basis Set:
  @DF-RHF Final Energy:  -266.94344002853245
    Total Energy =                       -266.9434400285323363
  Basis Set: CC-PVTZ
  Basis Set:
  Basis Set: CC-PVTZ
  Basis Set:
  @DF-RHF Final Energy:  -266.94344374648819
    Total Energy =                       -266.9434437464881285
  Basis Set: CC-PVTZ
  Basis Set:
  Basis Set: CC-PVTZ
  Basis Set:
  @DF-RHF Final Energy:  -266.94360890265801
    Total Energy =                       -266.9436089026580703
  Basis Set: CC-PVTZ
  Basis Set:
  Basis Set: CC-PVTZ
  Basis Set:
  @DF-RHF Final Energy:  -266.94362621926314
    Total Energy =                       -266.9436262192632512
  Basis Set: CC-PVTZ
  Basis Set:
  Charge       = 0
  Multiplicity = 1
  Basis Set: CC-PVTZ
  Basis Set:

    Orbital Energies (a.u.)
    -----------------------

    Doubly Occupied:

       1A    -20.605225     2A    -20.537548     3A    -11.373638
       4A    -11.254147     5A    -11.224503     6A     -1.472442
       7A     -1.374524     8A     -1.070032     9A     -0.909476
      10A     -0.832506    11A     -0.720152    12A     -0.669509
      13A     -0.662358    14A     -0.612114    15A     -0.598504
      16A     -0.535334    17A     -0.529817    18A     -0.513922
      19A     -0.482624    20A     -0.445472

  @DF-RHF Final Energy:  -266.94362783878330

   => Energetics <=

    Nuclear Repulsion Energy =            180.0777699393094053
    One-Electron Energy =                -721.1950954513561101
    Two-Electron Energy =                 274.1736976732635185
    DFT Exchange-Correlation Energy =       0.0000000000000000
    Empirical Dispersion Energy =           0.0000000000000000
    PCM Polarization Energy =               0.0000000000000000
    EFP Energy =                            0.0000000000000000
    Total Energy =                       -266.9436278387831862
    Molecular point group: c1
  Basis Set: CC-PVTZ
  Basis Set:

  -Total Gradient:
     Atom            X                  Y                   Z
    ------   -----------------  -----------------  -----------------
       1        0.000235842672     0.000332461752    -0.002361177316
       2       -0.000283523594    -0.000468655283     0.002074655526
       3        0.000116145422     0.000066825859     0.002340105761
       4       -0.000012795561     0.000023361225     0.000019091049
       5       -0.000039841015     0.000055240890    -0.002060041747
       6       -0.000011093863    -0.000015661617    -0.000006236428
       7       -0.000000056647     0.000008064648    -0.000005627061
       8       -0.000002819794     0.000001706180    -0.000004873488
       9        0.000004299382    -0.000003383340     0.000001047537
      10       -0.000010908896     0.000004031094     0.000001394787
      11        0.000004751896    -0.000003991408     0.000001661382

  **** Optimization is complete! (in 6 steps) ****
    Final optimized geometry and variables:
    Molecular point group: c1

    Geometry (in Angstrom), charge = 0, multiplicity = 1:

    H            1.472327210436    -1.546015763881    -0.153638060124
    O            1.631443221169    -0.631074735791    -0.001201240988
    C            0.501135714656     0.080695237736     0.002732532462
    C           -0.770628797345    -0.738453031836     0.003320976430
    O            0.541296618791     1.255843240399     0.004396121834
    C           -2.033405846704     0.107704928329     0.001629005801
    H           -0.744291220186    -1.390819099102    -0.865826677809
    H           -0.740458482406    -1.388416696562     0.873034240940
    H           -2.070669781462     0.743389961529    -0.872200231880
    H           -2.909085410772    -0.529477442183     0.002381625397
    H           -2.070557266086     0.745194728442     0.874069639669

  Mulliken Charges: (a.u.)
   Center  Symbol    Alpha    Beta     Spin     Total
       1     H     0.38802  0.38802  0.00000  0.22395
       2     O     4.14548  4.14548  0.00000 -0.29095
       3     C     2.80509  2.80509  0.00000  0.38982
       4     C     3.11717  3.11717  0.00000 -0.23435
       5     O     4.17539  4.17539  0.00000 -0.35078
       6     C     3.14052  3.14052  0.00000 -0.28104
       7     H     0.44699  0.44699  0.00000  0.10603
       8     H     0.44087  0.44087  0.00000  0.11826
       9     H     0.44532  0.44532  0.00000  0.10937
      10     H     0.45046  0.45046  0.00000  0.09908
      11     H     0.44469  0.44469  0.00000  0.11063

   Total alpha = 20.00000, Total beta = 20.00000, Total charge = -0.00000
