                              Psi4 1.0.54 Driver

  ==> Input File <==

--------------------------------------------------------------------------
set {
	reference rhf
	basis cc-pvtz
}

set_num_threads( 4 )
memory 2 gb

molecule MOL {
0 1

H	 2.530730	 -0.737254	 0.382000
O	 2.063695	 -0.083403	 -0.105237
C	 0.742924	 0.005675	 0.350750
H	 0.731380	 0.039219	 1.440080
C	 -0.064076	 -1.193495	 -0.124425
C	 -0.047832	 1.190568	 -0.194462
H	 0.194729	 -1.376165	 -1.161308
H	 0.163013	 -2.094508	 0.429933
C	 -1.533112	 -0.752002	 0.006102
H	 0.148003	 1.266545	 -1.259275
H	 0.226235	 2.136493	 0.259722
C	 -1.506634	 0.799189	 0.067162
H	 -2.124360	 -1.110499	 -0.826089
H	 -1.983103	 -1.158030	 0.903403
H	 -2.183808	 1.252169	 -0.644677
H	 -1.813926	 1.138698	 1.049457

	symmetry c1
}
set optking {
	frozen_dihedral = ("
		1 2 3 6
	")
}

ee,wfn = optimize('scf', return_wfn=True)
oeprop( wfn, 'DIPOLE', 'QUADRUPOLE', 'MULLIKEN_CHARGES')
f=open( 'psi4out.xyz', 'w' )
f.write( "16  " )
f.write( str(ee) + "\n" )
f.write( MOL.save_string_xyz() )
f.close()
--------------------------------------------------------------------------

    Molecular point group: c1
  Charge       = 0
  Multiplicity = 1
  Basis Set: CC-PVTZ
  Basis Set:
  @DF-RHF Final Energy:  -270.11517055119555
    Total Energy =                       -270.1151705511955470
    Molecular point group: c1
  Basis Set: CC-PVTZ
  Basis Set:
  Basis Set: CC-PVTZ
  Basis Set:
  @DF-RHF Final Energy:  -270.11655295097796
    Total Energy =                       -270.1165529509780754
  Basis Set: CC-PVTZ
  Basis Set:
  Basis Set: CC-PVTZ
  Basis Set:
  @DF-RHF Final Energy:  -270.11680282183659
    Total Energy =                       -270.1168028218366999
  Basis Set: CC-PVTZ
  Basis Set:
  Basis Set: CC-PVTZ
  Basis Set:
  @DF-RHF Final Energy:  -270.11681184120937
    Total Energy =                       -270.1168118412097101
  Basis Set: CC-PVTZ
  Basis Set:
  @DF-RHF Final Energy:  -270.11681469090331
    Total Energy =                       -270.1168146909034249
  @DF-RHF Final Energy:  -270.11681977261810
    Total Energy =                       -270.1168197726182711
  @DF-RHF Final Energy:  -270.11682653872896
    Total Energy =                       -270.1168265387290148
  Basis Set: CC-PVTZ
  Basis Set:
  @DF-RHF Final Energy:  -270.11682981667320
    Total Energy =                       -270.1168298166732598
  Basis Set: CC-PVTZ
  Basis Set:
  Basis Set: CC-PVTZ
  Basis Set:
  @DF-RHF Final Energy:  -270.11683164742362
    Total Energy =                       -270.1168316474236235
  Basis Set: CC-PVTZ
  Basis Set:
  Basis Set: CC-PVTZ
  Basis Set:
  @DF-RHF Final Energy:  -270.11683332713056
    Total Energy =                       -270.1168333271308484
  Basis Set: CC-PVTZ
  Basis Set:
  Charge       = 0
  Multiplicity = 1
  Basis Set: CC-PVTZ
  Basis Set:

    Orbital Energies (a.u.)
    -----------------------

    Doubly Occupied:

       1A    -20.545936     2A    -11.267390     3A    -11.214371
       4A    -11.213043     5A    -11.209152     6A    -11.206836
       7A     -1.365838     8A     -1.114470     9A     -0.966217
      10A     -0.949190    11A     -0.786920    12A     -0.778927
      13A     -0.708301    14A     -0.657319    15A     -0.621338
      16A     -0.586849    17A     -0.564906    18A     -0.525779
      19A     -0.511146    20A     -0.481028    21A     -0.470591
      22A     -0.455560    23A     -0.451637    24A     -0.420058

  @DF-RHF Final Energy:  -270.11683374389838

   => Energetics <=

    Nuclear Repulsion Energy =            255.5302730420724799
    One-Electron Energy =                -873.1486097077854538
    Two-Electron Energy =                 347.5015029218144491
    DFT Exchange-Correlation Energy =       0.0000000000000000
    Empirical Dispersion Energy =           0.0000000000000000
    PCM Polarization Energy =               0.0000000000000000
    EFP Energy =                            0.0000000000000000
    Total Energy =                       -270.1168337438984963
    Molecular point group: c1
  Basis Set: CC-PVTZ
  Basis Set:

  -Total Gradient:
     Atom            X                  Y                   Z
    ------   -----------------  -----------------  -----------------
       1        0.000131780654     0.000439853175     0.000372952094
       2       -0.000128690787    -0.000450514940    -0.000356630734
       3       -0.000102944120    -0.000204313893    -0.000289311675
       4        0.000000403195    -0.000003731092     0.000001548410
       5        0.000000713782     0.000008046523     0.000001349960
       6        0.000094367457     0.000227011121     0.000271910604
       7        0.000000502258    -0.000016646292     0.000003156026
       8        0.000000390932     0.000009077232     0.000012381759
       9        0.000003997498    -0.000000585279     0.000007530110
      10       -0.000000521663    -0.000015375394    -0.000001058195
      11       -0.000001270008     0.000005848970    -0.000015308571
      12        0.000001027989     0.000001467629    -0.000010549617
      13        0.000017466701     0.000008945221    -0.000020141465
      14       -0.000022817816    -0.000012265883    -0.000012704135
      15       -0.000016700894     0.000014507911     0.000020086588
      16        0.000022294824    -0.000011325012     0.000014788841

  **** Optimization is complete! (in 11 steps) ****
    Final optimized geometry and variables:
    Molecular point group: c1

    Geometry (in Angstrom), charge = 0, multiplicity = 1:

    H            2.583870180177    -0.566945418784     0.397661926443
    O            2.064844306550     0.024781189926    -0.115305943250
    C            0.742901102875     0.034045700986     0.346663501122
    H            0.731869730362     0.173019340535     1.427493487165
    C           -0.067102847617    -1.208827181009    -0.012703537314
    C           -0.045086399685     1.157976222378    -0.306204125483
    H            0.165602940811    -1.472421036382    -1.038822890948
    H            0.168804739846    -2.066772735631     0.606794015445
    C           -1.531070528800    -0.758246570516     0.118510499058
    H            0.173355385854     1.145696952060    -1.368793428212
    H            0.226033260647     2.134973850910     0.071883727989
    C           -1.510580579663     0.786860518682    -0.042106338206
    H           -2.159774961297    -1.235405429009    -0.621487829252
    H           -1.931580693231    -1.030381543962     1.087388737953
    H           -2.160286680299     1.123424764822    -0.838950850715
    H           -1.861830817453     1.260911733040     0.866606833065

  Mulliken Charges: (a.u.)
   Center  Symbol    Alpha    Beta     Spin     Total
       1     H     0.39569  0.39569  0.00000  0.20863
       2     O     4.19965  4.19965  0.00000 -0.39931
       3     C     2.92225  2.92225  0.00000  0.15551
       4     H     0.46727  0.46727  0.00000  0.06546
       5     C     3.10452  3.10452  0.00000 -0.20904
       6     C     3.09821  3.09821  0.00000 -0.19642
       7     H     0.45290  0.45290  0.00000  0.09421
       8     H     0.44961  0.44961  0.00000  0.10077
       9     C     3.11381  3.11381  0.00000 -0.22763
      10     H     0.45221  0.45221  0.00000  0.09557
      11     H     0.44479  0.44479  0.00000  0.11042
      12     C     3.11104  3.11104  0.00000 -0.22207
      13     H     0.44446  0.44446  0.00000  0.11107
      14     H     0.44923  0.44923  0.00000  0.10155
      15     H     0.44426  0.44426  0.00000  0.11147
      16     H     0.45010  0.45010  0.00000  0.09980

   Total alpha = 24.00000, Total beta = 24.00000, Total charge =  0.00000

*** Psi4 exiting successfully. Buy a developer a beer!
