                              Psi4 1.0.54 Driver

  ==> Input File <==

--------------------------------------------------------------------------
set {
	reference rhf
	basis cc-pvtz
}

set_num_threads( 4 )
memory 2 gb

molecule MOL {
0 1

H	 -3.401682	 -1.036167	 0.000000
O	 -3.113760	 -0.140926	 0.000000
C	 -1.775087	 -0.058754	 0.000000
C	 -0.983196	 -0.913614	 -0.756676
C	 -1.193869	 0.919558	 0.789478
H	 -1.441463	 -1.670111	 -1.366701
C	 0.385022	 -0.785833	 -0.719996
H	 -1.822687	 1.568455	 1.365272
C	 0.177698	 1.034331	 0.815092
H	 1.007013	 -1.439152	 -1.299143
C	 0.982596	 0.189525	 0.066167
H	 0.629683	 1.792961	 1.427226
C	 2.449846	 0.331478	 0.109625
O	 3.216408	 -0.342339	 -0.494121
H	 2.813529	 1.132709	 0.761978

	symmetry c1
}
set optking {
	frozen_dihedral = ("
		5 3 2 1
	")
}

ee,wfn = optimize('scf', return_wfn=True)
oeprop( wfn, 'DIPOLE', 'QUADRUPOLE', 'MULLIKEN_CHARGES')
f=open( 'psi4out.xyz', 'w' )
f.write( "15  " )
f.write( str(ee) + "\n" )
f.write( MOL.save_string_xyz() )
f.close()
--------------------------------------------------------------------------

    Molecular point group: c1
  Charge       = 0
  Multiplicity = 1
  Basis Set: CC-PVTZ
  Basis Set:
  @DF-RHF Final Energy:  -418.43994049031579
    Total Energy =                       -418.4399404903158484
    Molecular point group: c1
  Basis Set: CC-PVTZ
  Basis Set:
  Basis Set: CC-PVTZ
  Basis Set:
  @DF-RHF Final Energy:  -418.44006517408070
    Total Energy =                       -418.4400651740805870
  Basis Set: CC-PVTZ
  Basis Set:
  Basis Set: CC-PVTZ
  Basis Set:
  @DF-RHF Final Energy:  -418.44007829906639
    Total Energy =                       -418.4400782990666130
  Basis Set: CC-PVTZ
  Basis Set:
  Basis Set: CC-PVTZ
  Basis Set:
  @DF-RHF Final Energy:  -418.43987785162085
    Total Energy =                       -418.4398778516208495
  Basis Set: CC-PVTZ
  Basis Set:
  Charge       = 0
  Multiplicity = 1
  Basis Set: CC-PVTZ
  Basis Set:

    Orbital Energies (a.u.)
    -----------------------

    Doubly Occupied:

       1A    -20.597272     2A    -20.547829     3A    -11.324339
       4A    -11.318309     5A    -11.258157     6A    -11.253662
       7A    -11.242015     8A    -11.239686     9A    -11.238089
      10A     -1.428754    11A     -1.404039    12A     -1.175520
      13A     -1.044995    14A     -1.041890    15A     -0.890847
      16A     -0.867622    17A     -0.798140    18A     -0.759971
      19A     -0.716249    20A     -0.670595    21A     -0.651107
      22A     -0.632904    23A     -0.622064    24A     -0.610271
      25A     -0.570365    26A     -0.559315    27A     -0.553474
      28A     -0.507032    29A     -0.489944    30A     -0.423226
      31A     -0.361494    32A     -0.337298

  @DF-RHF Final Energy:  -418.44008554287166

   => Energetics <=

    Nuclear Repulsion Energy =            402.0532085229137920
    One-Electron Energy =               -1366.7136442829048519
    Two-Electron Energy =                 546.2203502171194032
    DFT Exchange-Correlation Energy =       0.0000000000000000
    Empirical Dispersion Energy =           0.0000000000000000
    PCM Polarization Energy =               0.0000000000000000
    EFP Energy =                            0.0000000000000000
    Total Energy =                       -418.4400855428716568
    Molecular point group: c1
  Basis Set: CC-PVTZ
  Basis Set:

  -Total Gradient:
     Atom            X                  Y                   Z
    ------   -----------------  -----------------  -----------------
       1       -0.000002788425    -0.000022699658     0.003566823485
       2       -0.000056547876    -0.000705642851    -0.003493673317
       3        0.000121446073     0.002304386518    -0.002057380966
       4       -0.000166132834     0.000093858087     0.000006519321
       5        0.000149991981    -0.001624627422     0.001957282851
       6        0.000009661742    -0.000008236002    -0.000000162380
       7        0.000206332881     0.000086710321     0.000075995588
       8       -0.000025957717     0.000011462496     0.000026520234
       9       -0.000169164238     0.000082595587     0.000065216874
      10       -0.000018907721    -0.000017012635     0.000003020868
      11       -0.000095473869    -0.000212772627    -0.000140201247
      12       -0.000015979820    -0.000009953793    -0.000011291588
      13       -0.000033995168    -0.000008656543    -0.000021991168
      14        0.000033157964     0.000046984928     0.000043798255
      15        0.000064357029    -0.000016396407    -0.000020476811

  **** Optimization is complete! (in 5 steps) ****
    Final optimized geometry and variables:
    Molecular point group: c1

    Geometry (in Angstrom), charge = 0, multiplicity = 1:

    H           -3.407967453908    -1.028883015657    -0.017346259411
    O           -3.120590254004    -0.133090351503    -0.006626478166
    C           -1.772651711405    -0.055537539380     0.019346943394
    C           -0.983443228651    -0.913505820233    -0.736565491605
    C           -1.191514584702     0.909344390910     0.819635918615
    H           -1.449108699975    -1.653750342850    -1.359520666129
    C            0.385118655040    -0.798467011773    -0.689900637888
    H           -1.819141201984     1.554591571108     1.401032855387
    C            0.182954200406     1.023115668301     0.847006130666
    H            1.006911599685    -1.453318133072    -1.267515599625
    C            0.983013302971     0.174509121778     0.101022832825
    H            0.636996348385     1.775215407934     1.465553413614
    C            2.452836955777     0.308538298083     0.153098871437
    O            3.217926654582    -0.372211427409    -0.443442874962
    H            2.816993833353     1.110059883596     0.804845628734

  Mulliken Charges: (a.u.)
   Center  Symbol    Alpha    Beta     Spin     Total
       1     H     0.38345  0.38345  0.00000  0.23310
       2     O     4.17609  4.17609  0.00000 -0.35218
       3     C     2.85615  2.85615  0.00000  0.28769
       4     C     3.12438  3.12438  0.00000 -0.24877
       5     C     3.10776  3.10776  0.00000 -0.21551
       6     H     0.42296  0.42296  0.00000  0.15409
       7     C     3.06842  3.06842  0.00000 -0.13684
       8     H     0.41464  0.41464  0.00000  0.17072
       9     C     3.06989  3.06989  0.00000 -0.13978
      10     H     0.40709  0.40709  0.00000  0.18582
      11     C     3.00028  3.00028  0.00000 -0.00056
      12     H     0.42109  0.42109  0.00000  0.15783
      13     C     2.91051  2.91051  0.00000  0.17898
      14     O     4.17737  4.17737  0.00000 -0.35474
      15     H     0.45993  0.45993  0.00000  0.08014

   Total alpha = 32.00000, Total beta = 32.00000, Total charge =  0.00000

*** Psi4 exiting successfully. Buy a developer a beer!
