                              Psi4 1.0.54 Driver

  ==> Input File <==

--------------------------------------------------------------------------
set {
	reference rhf
	basis cc-pvtz
}

set_num_threads( 4 )
memory 2 gb

molecule MOL {
0 1

H	 2.737634	 -1.021297	 1.810569
C	 2.096784	 -0.997396	 0.935626
C	 0.917263	 -0.064144	 1.172850
H	 1.745771	 -2.002843	 0.738686
H	 2.703721	 -0.686134	 0.094509
N	 0.000297	 0.000045	 0.046090
H	 0.373750	 -0.424527	 2.035307
H	 1.279939	 0.932630	 1.439004
C	 -1.359159	 0.315706	 0.454404
C	 0.479819	 0.876571	 -1.010454
C	 -2.416729	 -0.286720	 -0.460525
H	 -1.478729	 1.390261	 0.442008
H	 -1.539692	 0.003361	 1.486761
C	 -0.027123	 0.485611	 -2.391974
H	 1.560098	 0.833926	 -1.025894
H	 0.221398	 1.918385	 -0.801277
H	 -2.285276	 0.073129	 -1.473515
H	 -2.371743	 -1.368476	 -0.483209
H	 -3.408658	 -0.007405	 -0.121593
H	 0.284869	 -0.522748	 -2.634422
H	 -1.107278	 0.524903	 -2.459035
H	 0.372122	 1.159703	 -3.142318

	symmetry c1
}
set optking {
	frozen_dihedral = ("
		3 6 9 11
	")
}

ee,wfn = optimize('scf', return_wfn=True)
oeprop( wfn, 'DIPOLE', 'QUADRUPOLE', 'MULLIKEN_CHARGES')
f=open( 'psi4out.xyz', 'w' )
f.write( "22  " )
f.write( str(ee) + "\n" )
f.write( MOL.save_string_xyz() )
f.close()
--------------------------------------------------------------------------

    Molecular point group: c1
  Charge       = 0
  Multiplicity = 1
  Basis Set: CC-PVTZ
  Basis Set:
  @DF-RHF Final Energy:  -290.46470373150845
    Total Energy =                       -290.4647037315088483
    Molecular point group: c1
  Basis Set: CC-PVTZ
  Basis Set:
  Basis Set: CC-PVTZ
  Basis Set:
  @DF-RHF Final Energy:  -290.47053769313010
    Total Energy =                       -290.4705376931302112
  Basis Set: CC-PVTZ
  Basis Set:
  Basis Set: CC-PVTZ
  Basis Set:
  @DF-RHF Final Energy:  -290.47150399862733
    Total Energy =                       -290.4715039986270995
  Basis Set: CC-PVTZ
  Basis Set:
  Basis Set: CC-PVTZ
  Basis Set:
  @DF-RHF Final Energy:  -290.47172564156989
    Total Energy =                       -290.4717256415698330
  Basis Set: CC-PVTZ
  Basis Set:
  @DF-RHF Final Energy:  -290.47198439961926
    Total Energy =                       -290.4719843996193731
  @DF-RHF Final Energy:  -290.47218812099788
    Total Energy =                       -290.4721881209982257
  @DF-RHF Final Energy:  -290.47240363449913
    Total Energy =                       -290.4724036344990168
  @DF-RHF Final Energy:  -290.47262491556216
    Total Energy =                       -290.4726249155618234
  @DF-RHF Final Energy:  -290.47284620726555
    Total Energy =                       -290.4728462072658886
  @DF-RHF Final Energy:  -290.47326781170648
    Total Energy =                       -290.4732678117063074
  @DF-RHF Final Energy:  -290.47336750909227
    Total Energy =                       -290.4733675090919860
  @DF-RHF Final Energy:  -290.47171711897522
    Total Energy =                       -290.4717171189753344
  @DF-RHF Final Energy:  -290.47323020763486
    Total Energy =                       -290.4732302076347992
  @DF-RHF Final Energy:  -290.47379508610032
    Total Energy =                       -290.4737950861002673
  @DF-RHF Final Energy:  -290.47401668625179
    Total Energy =                       -290.4740166862518436
  @DF-RHF Final Energy:  -290.47409090206656
    Total Energy =                       -290.4740909020665640
  @DF-RHF Final Energy:  -290.47415507240044
    Total Energy =                       -290.4741550724003787
  Basis Set: CC-PVTZ
  Basis Set:
  @DF-RHF Final Energy:  -290.47418402998983
    Total Energy =                       -290.4741840299894307
  Basis Set: CC-PVTZ
  Basis Set:
  Basis Set: CC-PVTZ
  Basis Set:
  @DF-RHF Final Energy:  -290.47419924476702
    Total Energy =                       -290.4741992447667940
  Basis Set: CC-PVTZ
  Basis Set:
  Basis Set: CC-PVTZ
  Basis Set:
  @DF-RHF Final Energy:  -290.47420712450418
    Total Energy =                       -290.4742071245043462
  Basis Set: CC-PVTZ
  Basis Set:
  Charge       = 0
  Multiplicity = 1
  Basis Set: CC-PVTZ
  Basis Set:

    Orbital Energies (a.u.)
    -----------------------

    Doubly Occupied:

       1A    -15.530968     2A    -11.239780     3A    -11.238944
       4A    -11.238845     5A    -11.204862     6A    -11.203321
       7A    -11.200879     8A     -1.223848     9A     -1.028246
      10A     -1.019936    11A     -0.958733    12A     -0.854864
      13A     -0.834664    14A     -0.774644    15A     -0.660695
      16A     -0.643263    17A     -0.608518    18A     -0.598366
      19A     -0.570050    20A     -0.560688    21A     -0.539293
      22A     -0.531203    23A     -0.514423    24A     -0.497735
      25A     -0.494416    26A     -0.472692    27A     -0.468861
      28A     -0.464242    29A     -0.338404

  @DF-RHF Final Energy:  -290.47420747949303

   => Energetics <=

    Nuclear Repulsion Energy =            339.0310170552502882
    One-Electron Energy =               -1063.9796869351121131
    Two-Electron Energy =                 434.4744624003687363
    DFT Exchange-Correlation Energy =       0.0000000000000000
    Empirical Dispersion Energy =           0.0000000000000000
    PCM Polarization Energy =               0.0000000000000000
    EFP Energy =                            0.0000000000000000
    Total Energy =                       -290.4742074794931455
    Molecular point group: c1
  Basis Set: CC-PVTZ
  Basis Set:

  -Total Gradient:
     Atom            X                  Y                   Z
    ------   -----------------  -----------------  -----------------
       1       -0.000002131582     0.000005723528    -0.000001562767
       2        0.000002505177    -0.000002135089    -0.000009441245
       3       -0.000402614598    -0.001975439389    -0.000164779831
       4        0.000001327324    -0.000002335095     0.000010891954
       5        0.000005260618     0.000005430800    -0.000009410771
       6        0.000556964520     0.002009930549     0.000544274622
       7       -0.000020348979     0.000003896935    -0.000006616059
       8       -0.000003947869    -0.000003565019     0.000000726125
       9       -0.000202400878     0.001731743799    -0.001075973022
      10        0.000013023729     0.000005180892    -0.000018624889
      11        0.000031770047    -0.001773585515     0.000733697529
      12       -0.000008075424    -0.000000971769     0.000001181351
      13        0.000005447498    -0.000005531005    -0.000001233392
      14        0.000011855773    -0.000000857865    -0.000027474090
      15        0.000023541487     0.000009451015     0.000018452950
      16       -0.000009250729     0.000002569928     0.000005726443
      17       -0.000004773147    -0.000002781556     0.000002010639
      18        0.000006238817    -0.000003559564    -0.000001740361
      19        0.000002768291     0.000000734481     0.000003326153
      20        0.000009198660    -0.000003498114     0.000000700362
      21       -0.000012938521    -0.000000027185    -0.000001984164
      22       -0.000003420213    -0.000000374764    -0.000002147537

  **** Optimization is complete! (in 21 steps) ****
    Final optimized geometry and variables:
    Molecular point group: c1

    Geometry (in Angstrom), charge = 0, multiplicity = 1:

    H            2.878833974932    -1.190374945817     1.485915448273
    C            2.198001091619    -0.938718431960     0.680281403811
    C            0.927895579489    -0.327042392333     1.255013734844
    H            1.969776620397    -1.842886764303     0.129098236559
    H            2.718009027925    -0.259375441146     0.016611362991
    N           -0.085754224682    -0.037374660107     0.259375220915
    H            0.505951216078    -1.033318661752     1.958051724616
    H            1.192720208079     0.565957959033     1.831660343103
    C           -1.405046886137     0.175386585377     0.825795033289
    C            0.297997241321     0.969494384286    -0.723281984575
    C           -2.527655068968    -0.235784364829    -0.117304054366
    H           -1.547166745511     1.213061684374     1.138442957638
    H           -1.486805251059    -0.424976270150     1.722713208827
    C            0.575508525839     0.400167635751    -2.110195645044
    H            1.171463619603     1.516515139587    -0.376056761704
    H           -0.493133516626     1.706899739936    -0.806486622262
    H           -2.520921531654     0.345733691923    -1.031936161228
    H           -2.428992526352    -1.280639049303    -0.384339687306
    H           -3.491752417704    -0.088432337094     0.357785081078
    H            1.385350519423    -0.317189033102    -2.088814756842
    H           -0.300878213982    -0.104152735143    -2.498207279165
    H            0.844853025026     1.194485916701    -2.799662928281

  Mulliken Charges: (a.u.)
   Center  Symbol    Alpha    Beta     Spin     Total
       1     H     0.44703  0.44703  0.00000  0.10595
       2     C     3.15315  3.15315  0.00000 -0.30631
       3     C     3.03719  3.03719  0.00000 -0.07438
       4     H     0.44999  0.44999  0.00000  0.10002
       5     H     0.45323  0.45323  0.00000  0.09354
       6     N     3.61517  3.61517  0.00000 -0.23035
       7     H     0.45478  0.45478  0.00000  0.09044
       8     H     0.46945  0.46945  0.00000  0.06110
       9     C     3.04086  3.04086  0.00000 -0.08172
      10     C     3.06600  3.06600  0.00000 -0.13201
      11     C     3.14297  3.14297  0.00000 -0.28595
      12     H     0.46591  0.46591  0.00000  0.06818
      13     H     0.45442  0.45442  0.00000  0.09117
      14     C     3.13024  3.13024  0.00000 -0.26049
      15     H     0.45128  0.45128  0.00000  0.09745
      16     H     0.44808  0.44808  0.00000  0.10384
      17     H     0.45521  0.45521  0.00000  0.08959
      18     H     0.45157  0.45157  0.00000  0.09687
      19     H     0.45112  0.45112  0.00000  0.09776
      20     H     0.45301  0.45301  0.00000  0.09397
      21     H     0.45277  0.45277  0.00000  0.09446
      22     H     0.45658  0.45658  0.00000  0.08684

   Total alpha = 29.00000, Total beta = 29.00000, Total charge = -0.00000

*** Psi4 exiting successfully. Buy a developer a beer!
