  ==> Input File <==

--------------------------------------------------------------------------
set {
	reference rhf
	basis 6-31G*
}

set_num_threads( 4 )
memory 2 gb

molecule MOL {
0 1

O	 -1.276010	 1.052711	 -0.768302
C	 -1.204840	 0.067374	 -0.106123
C	 -2.388195	 -0.672128	 0.458071
O	 -0.067104	 -0.527208	 0.221609
H	 -2.388023	 -1.694060	 0.097175
H	 -3.300579	 -0.174919	 0.164318
H	 -2.315377	 -0.706351	 1.539059
C	 1.170111	 0.034140	 -0.238951
C	 1.300499	 -0.381266	 -1.693608
C	 2.315233	 -0.465467	 0.628074
H	 1.095707	 1.108886	 -0.162198
H	 0.458092	 -0.019442	 -2.272125
H	 2.210293	 0.029022	 -2.119366
H	 1.337142	 -1.461771	 -1.782028
H	 3.257384	 -0.062386	 0.270450
H	 2.182966	 -0.153169	 1.656155
H	 2.371941	 -1.548808	 0.593925

	symmetry c1
}
set optking {
	frozen_dihedral = ("
		11 8 4 2
	")
}

ee = optimize('scf')
oeprop('DIPOLE', 'QUADRUPOLE', 'MULLIKEN_CHARGES')
f=open( 'psi4out.xyz', 'w' )
f.write( "17  " )
f.write( str(ee) + "\n" )
f.write( MOL.save_string_xyz() )
f.close()
--------------------------------------------------------------------------

    Molecular point group: c1
  Charge       = 0
  Multiplicity = 1
  Basis Set: 6-31G*
  Basis Set:
  @DF-RHF Final Energy:  -344.91276610451888
    Total Energy =                       -344.9127661045190507
    Molecular point group: c1
  Basis Set: 6-31G*
  Basis Set:
  Basis Set: 6-31G*
  Basis Set:
  @DF-RHF Final Energy:  -344.91430791879742
    Total Energy =                       -344.9143079187972489
  Basis Set: 6-31G*
  Basis Set:
  Basis Set: 6-31G*
  Basis Set:
  @DF-RHF Final Energy:  -344.91413492346391
    Total Energy =                       -344.9141349234639051
  Basis Set: 6-31G*
  Basis Set:
  Basis Set: 6-31G*
  Basis Set:
  @DF-RHF Final Energy:  -344.91455485470163
    Total Energy =                       -344.9145548547020894
  Basis Set: 6-31G*
  Basis Set:
  Basis Set: 6-31G*
  Basis Set:
  @DF-RHF Final Energy:  -344.91463234123813
    Total Energy =                       -344.9146323412380184
  Basis Set: 6-31G*
  Basis Set:
  Basis Set: 6-31G*
  Basis Set:
  @DF-RHF Final Energy:  -344.91463430794323
    Total Energy =                       -344.9146343079429471
  Basis Set: 6-31G*
  Basis Set:
  Charge       = 0
  Multiplicity = 1
  Basis Set: 6-31G*
  Basis Set:

    Orbital Energies (a.u.)
    -----------------------

    Doubly Occupied:

       1A    -20.598991     2A    -20.543101     3A    -11.374706
       4A    -11.290330     5A    -11.232433     6A    -11.219395
       7A    -11.215175     8A     -1.465518     9A     -1.361588
      10A     -1.078438    11A     -1.005010    12A     -0.947736
      13A     -0.848564    14A     -0.764650    15A     -0.691857
      16A     -0.670745    17A     -0.658662    18A     -0.613271
      19A     -0.585830    20A     -0.578394    21A     -0.561549
      22A     -0.550379    23A     -0.537705    24A     -0.519722
      25A     -0.501729    26A     -0.482672    27A     -0.447144
      28A     -0.435509

  @DF-RHF Final Energy:  -344.91463464181408

   => Energetics <=

    Nuclear Repulsion Energy =            323.2667671289327131
    One-Electron Energy =               -1110.8011939142184019
    Two-Electron Energy =                 442.6197921434719547
    DFT Exchange-Correlation Energy =       0.0000000000000000
    Empirical Dispersion Energy =           0.0000000000000000
    PCM Polarization Energy =               0.0000000000000000
    EFP Energy =                            0.0000000000000000
    Total Energy =                       -344.9146346418136773
    Molecular point group: c1
  Basis Set: 6-31G*
  Basis Set:

  -Total Gradient:
     Atom            X                  Y                   Z
    ------   -----------------  -----------------  -----------------
       1       -0.000002398193     0.000004831492     0.000001822615
       2       -0.000029581721    -0.000326195757    -0.000443497210
       3       -0.000010711978    -0.000025193362    -0.000046996343
       4        0.000111057638     0.000458288782     0.000830874804
       5        0.000004979010     0.000004346488     0.000018161697
       6       -0.000004042475     0.000002427832     0.000006457903
       7       -0.000000321293     0.000018096664     0.000008019319
       8       -0.000320271848    -0.000124631196    -0.000966645466
       9        0.000010357809     0.000018913182    -0.000007197700
      10       -0.000014877928    -0.000001525533     0.000002527262
      11        0.000253028163    -0.000030050918     0.000595623930
      12        0.000004962669     0.000000725213     0.000003873568
      13       -0.000001376323    -0.000001510278    -0.000011566249
      14        0.000000658374    -0.000002157204     0.000005419470
      15       -0.000001263747     0.000002021617     0.000000277102
      16        0.000001293699    -0.000002691028     0.000002923365
      17       -0.000001491855     0.000004304004    -0.000000078063

  **** Optimization is complete! (in 7 steps) ****
    Final optimized geometry and variables:
    Molecular point group: c1

    Geometry (in Angstrom), charge = 0, multiplicity = 1:

    O           -1.279194308361     1.181571811980    -0.528597953029
    C           -1.186907269995     0.194757735766     0.128595559448
    C           -2.350906947317    -0.542536706795     0.734745074475
    O           -0.038148951521    -0.394351365892     0.426632139023
    H           -2.368840659428    -1.562340667056     0.368010098232
    H           -3.271715406349    -0.040273284765     0.478264051631
    H           -2.237121599261    -0.583336992111     1.811869493340
    C            1.183525005192     0.166868562503    -0.073402491031
    C            1.391490770409    -0.243762349367    -1.522851350793
    C            2.278496570196    -0.340862044814     0.848513121002
    H            1.107996301703     1.242257739642    -0.001387261984
    H            0.593173092856     0.132510459295    -2.149127512264
    H            2.329795090985     0.158016977291    -1.891863497543
    H            1.426445415989    -1.325297798229    -1.608021296259
    H            3.238556976452     0.065616060873     0.548016720388
    H            2.085284782651    -0.042417610130     1.872565364212
    H            2.337827295847    -1.423402888798     0.813516942147

  Mulliken Charges: (a.u.)
   Center  Symbol    Alpha    Beta     Spin     Total
       1     O     4.28549  4.28549  0.00000 -0.57097
       2     C     2.61761  2.61761  0.00000  0.76477
       3     C     3.28141  3.28141  0.00000 -0.56281
       4     O     4.31388  4.31388  0.00000 -0.62776
       5     H     0.40090  0.40090  0.00000  0.19819
       6     H     0.39733  0.39733  0.00000  0.20533
       7     H     0.40072  0.40072  0.00000  0.19855
       8     C     2.92660  2.92660  0.00000  0.14680
       9     C     3.25209  3.25209  0.00000 -0.50419
      10     C     3.24176  3.24176  0.00000 -0.48352
      11     H     0.40263  0.40263  0.00000  0.19475
      12     H     0.40045  0.40045  0.00000  0.19910
      13     H     0.41816  0.41816  0.00000  0.16367
      14     H     0.41724  0.41724  0.00000  0.16552
      15     H     0.41762  0.41762  0.00000  0.16476
      16     H     0.41200  0.41200  0.00000  0.17600
      17     H     0.41410  0.41410  0.00000  0.17181

   Total alpha = 28.00000, Total beta = 28.00000, Total charge =  0.00000
