  ==> Input File <==

--------------------------------------------------------------------------
set {
	reference rhf
	basis 6-31G*
}

set_num_threads( 1 )
memory 2 gb

molecule MOL {
0 1

O	 2.674549	 1.653035	 -1.076257
C	 2.554492	 0.619754	 -1.659930
C	 1.260892	 -0.174734	 -1.641835
C	 3.695671	 0.030041	 -2.463114
C	 0.148889	 0.466473	 -0.816889
H	 0.942169	 -0.315944	 -2.673758
H	 1.488296	 -1.173387	 -1.271184
C	 -1.137242	 -0.361533	 -0.822544
H	 -0.050898	 1.461542	 -1.201665
H	 0.495695	 0.602948	 0.202546
C	 -2.259874	 0.272531	 0.000494
H	 -1.477547	 -0.497476	 -1.848097
H	 -0.929388	 -1.358649	 -0.437025
C	 -3.549786	 -0.549746	 -0.000374
H	 -2.468983	 1.269077	 -0.384459
H	 -1.921111	 0.408105	 1.026094
C	 -4.809590	 0.315458	 -0.000369
H	 -3.560515	 -1.202009	 -0.871156
H	 -3.561123	 -1.202955	 0.869711
H	 -4.844746	 0.956611	 -0.876632
H	 -5.706986	 -0.295590	 -0.001609
H	 -4.845960	 0.954827	 0.877144
H	 3.404354	 -0.092035	 -3.502273
H	 4.557577	 0.679993	 -2.403827
H	 3.956795	 -0.953706	 -2.084051

	symmetry c1
}
set optking {
	frozen_dihedral = ("
		9 5 8 12,
		15 11 8 12,
		1 2 3 6,
		9 5 3 6
	")
}

ee = energy('scf')
oeprop('DIPOLE', 'QUADRUPOLE', 'MULLIKEN_CHARGES')
f=open( 'psi4out.xyz', 'w' )
f.write( "25  " )
f.write( str(ee) + "\n" )
f.write( MOL.save_string_xyz() )
f.close()
--------------------------------------------------------------------------

    Molecular point group: c1

    Geometry (in Angstrom), charge = 0, multiplicity = 1:

       Center              X                  Y                   Z               Mass
    ------------   -----------------  -----------------  -----------------  -----------------
           O          2.838577904409     1.394726636720    -0.133675091202    15.994914619560
           C          2.718520904409     0.361445636720    -0.717348091202    12.000000000000
           C          1.424920904409    -0.433042363280    -0.699253091202    12.000000000000
           C          3.859699904409    -0.228267363280    -1.520532091202    12.000000000000
           C          0.312917904409     0.208164636720     0.125692908798    12.000000000000
           H          1.106197904409    -0.574252363280    -1.731176091202     1.007825032070
           H          1.652324904409    -1.431695363280    -0.328602091202     1.007825032070
           C         -0.973213095591    -0.619841363280     0.120037908798    12.000000000000
           H          0.113130904409     1.203233636720    -0.259083091202     1.007825032070
           H          0.659723904409     0.344639636720     1.145127908798     1.007825032070
           C         -2.095845095591     0.014222636720     0.943075908798    12.000000000000
           H         -1.313518095591    -0.755784363280    -0.905515091202     1.007825032070
           H         -0.765359095591    -1.616957363280     0.505556908798     1.007825032070
           C         -3.385757095591    -0.808054363280     0.942207908798    12.000000000000
           H         -2.304954095591     1.010768636720     0.558122908798     1.007825032070
           H         -1.757082095591     0.149796636720     1.968675908798     1.007825032070
           C         -4.645561095591     0.057149636720     0.942212908798    12.000000000000
           H         -3.396486095591    -1.460317363280     0.071425908798     1.007825032070
           H         -3.397094095591    -1.461263363280     1.812292908798     1.007825032070
           H         -4.680717095591     0.698302636720     0.065949908798     1.007825032070
           H         -5.542957095591    -0.553898363280     0.940972908798     1.007825032070
           H         -4.681931095591     0.696518636720     1.819725908798     1.007825032070
           H          3.568382904409    -0.350343363280    -2.559691091202     1.007825032070
           H          4.721605904409     0.421684636720    -1.461245091202     1.007825032070
           H          4.120823904409    -1.212014363280    -1.141469091202     1.007825032070

  Charge       = 0
  Multiplicity = 1
  Basis Set: 6-31G*
  Basis Set:

    Orbital Energies (a.u.)
    -----------------------

    Doubly Occupied:

       1A    -20.550430     2A    -11.326262     3A    -11.231843
       4A    -11.228330     5A    -11.217217     6A    -11.216344
       7A    -11.214266     8A    -11.212436     9A    -11.208521
      10A     -1.395726    11A     -1.093625    12A     -1.056259
      13A     -1.014354    14A     -0.968940    15A     -0.890916
      16A     -0.814877    17A     -0.790421    18A     -0.729846
      19A     -0.660158    20A     -0.652258    21A     -0.629548
      22A     -0.623820    23A     -0.598099    24A     -0.585712
      25A     -0.568604    26A     -0.558703    27A     -0.537118
      28A     -0.527880    29A     -0.514073    30A     -0.490239
      31A     -0.486173    32A     -0.475464    33A     -0.463609
      34A     -0.458009    35A     -0.449664    36A     -0.399306

  @DF-RHF Final Energy:  -387.13275556471194

   => Energetics <=

    Nuclear Repulsion Energy =            438.9090187698562886
    One-Electron Energy =               -1394.4050687011449554
    Two-Electron Energy =                 568.3632943665766106
    DFT Exchange-Correlation Energy =       0.0000000000000000
    Empirical Dispersion Energy =           0.0000000000000000
    PCM Polarization Energy =               0.0000000000000000
    EFP Energy =                            0.0000000000000000
    Total Energy =                       -387.1327555647120562

  Mulliken Charges: (a.u.)
   Center  Symbol    Alpha    Beta     Spin     Total
       1     O     4.26115  4.26115  0.00000 -0.52229
       2     C     2.73569  2.73569  0.00000  0.52861
       3     C     3.21085  3.21085  0.00000 -0.42171
       4     C     3.28663  3.28663  0.00000 -0.57327
       5     C     3.14843  3.14843  0.00000 -0.29686
       6     H     0.41007  0.41007  0.00000  0.17985
       7     H     0.41003  0.41003  0.00000  0.17994
       8     C     3.15567  3.15567  0.00000 -0.31133
       9     H     0.41208  0.41208  0.00000  0.17584
      10     H     0.41220  0.41220  0.00000  0.17559
      11     C     3.15291  3.15291  0.00000 -0.30581
      12     H     0.42458  0.42458  0.00000  0.15085
      13     H     0.42452  0.42452  0.00000  0.15097
      14     C     3.15315  3.15315  0.00000 -0.30629
      15     H     0.42097  0.42097  0.00000  0.15806
      16     H     0.42041  0.42041  0.00000  0.15918
      17     C     3.24014  3.24014  0.00000 -0.48028
      18     H     0.42238  0.42238  0.00000  0.15523
      19     H     0.42119  0.42119  0.00000  0.15762
      20     H     0.42167  0.42167  0.00000  0.15667
      21     H     0.42040  0.42040  0.00000  0.15920
      22     H     0.42097  0.42097  0.00000  0.15805
      23     H     0.40875  0.40875  0.00000  0.18251
      24     H     0.39646  0.39646  0.00000  0.20707
      25     H     0.40870  0.40870  0.00000  0.18260

   Total alpha = 36.00000, Total beta = 36.00000, Total charge = -0.00000
