  ==> Input File <==

--------------------------------------------------------------------------
set {
	reference rhf
	basis 6-31G*
}

set_num_threads( 1 )
memory 2 gb

molecule MOL {
0 1

H	 -1.630889	 -0.432258	 -1.109060
O	 -1.422729	 -0.573567	 -0.196946
C	 -0.731407	 0.539437	 0.309156
C	 0.680193	 0.672443	 -0.251532
H	 -1.319765	 1.404033	 0.030086
H	 -0.700012	 0.506517	 1.397677
C	 1.599139	 -0.492137	 0.118598
H	 0.616402	 0.758534	 -1.332349
H	 1.107032	 1.602637	 0.117369
H	 1.239738	 -1.428634	 -0.297334
H	 2.601428	 -0.335055	 -0.265730
H	 1.674954	 -0.608418	 1.197020

	symmetry c1
}
set optking {
	frozen_dihedral = ("
		8 4 3 2
	")
}

ee = energy('scf')
oeprop('DIPOLE', 'QUADRUPOLE', 'MULLIKEN_CHARGES')
f=open( 'psi4out.xyz', 'w' )
f.write( "12  " )
f.write( str(ee) + "\n" )
f.write( MOL.save_string_xyz() )
f.close()
--------------------------------------------------------------------------

    Molecular point group: c1

    Geometry (in Angstrom), charge = 0, multiplicity = 1:

       Center              X                  Y                   Z               Mass
    ------------   -----------------  -----------------  -----------------  -----------------
           H         -1.621492045776    -0.447936286324    -1.087416678135     1.007825032070
           O         -1.413332045776    -0.589245286324    -0.175302678135    15.994914619560
           C         -0.722010045776     0.523758713676     0.330799321865    12.000000000000
           C          0.689589954224     0.656764713676    -0.229888678135    12.000000000000
           H         -1.310368045776     1.388354713676     0.051729321865     1.007825032070
           H         -0.690615045776     0.490838713676     1.419320321865     1.007825032070
           C          1.608535954224    -0.507815286324     0.140241321865    12.000000000000
           H          0.625798954224     0.742855713676    -1.310705678135     1.007825032070
           H          1.116428954224     1.586958713676     0.139012321865     1.007825032070
           H          1.249134954224    -1.444312286324    -0.275690678135     1.007825032070
           H          2.610824954224    -0.350733286324    -0.244086678135     1.007825032070
           H          1.684350954224    -0.624096286324     1.218663321865     1.007825032070

  Charge       = 0
  Multiplicity = 1
  Basis Set: 6-31G*
  Basis Set:

    Orbital Energies (a.u.)
    -----------------------

    Doubly Occupied:

       1A    -20.552088     2A    -11.268790     3A    -11.219317
       4A    -11.208078     5A     -1.360046     6A     -1.048311
       7A     -0.920983     8A     -0.812070     9A     -0.681539
      10A     -0.641376    11A     -0.621437    12A     -0.567921
      13A     -0.525756    14A     -0.521464    15A     -0.485831
      16A     -0.464566    17A     -0.427794

  @DF-RHF Final Energy:  -193.10846524931344

   => Energetics <=

    Nuclear Repulsion Energy =            132.8189221470171901
    One-Electron Energy =                -525.2001834895703496
    Two-Electron Energy =                 199.2727960932397195
    DFT Exchange-Correlation Energy =       0.0000000000000000
    Empirical Dispersion Energy =           0.0000000000000000
    PCM Polarization Energy =               0.0000000000000000
    EFP Energy =                            0.0000000000000000
    Total Energy =                       -193.1084652493134399

  Mulliken Charges: (a.u.)
   Center  Symbol    Alpha    Beta     Spin     Total
       1     H     0.28183  0.28183  0.00000  0.43633
       2     O     4.36956  4.36956  0.00000 -0.73912
       3     C     2.99653  2.99653  0.00000  0.00694
       4     C     3.16380  3.16380  0.00000 -0.32760
       5     H     0.42944  0.42944  0.00000  0.14112
       6     H     0.41648  0.41648  0.00000  0.16703
       7     C     3.23978  3.23978  0.00000 -0.47955
       8     H     0.42685  0.42685  0.00000  0.14630
       9     H     0.42251  0.42251  0.00000  0.15498
      10     H     0.41134  0.41134  0.00000  0.17732
      11     H     0.42036  0.42036  0.00000  0.15929
      12     H     0.42152  0.42152  0.00000  0.15696

   Total alpha = 17.00000, Total beta = 17.00000, Total charge =  0.00000
