  ==> Input File <==

--------------------------------------------------------------------------
set {
	reference rhf
	basis cc-pvtz
}

set_num_threads( 4 )
memory 2 gb

molecule MOL {
0 1

H	 3.459101	 0.139266	 -0.762951
C	 2.749156	 -0.051729	 0.031265
C	 1.322304	 0.099773	 -0.484271
H	 2.929445	 -1.053887	 0.403481
H	 2.954281	 0.646699	 0.834672
C	 0.308557	 -0.162619	 0.622645
H	 1.143368	 -0.594400	 -1.295960
H	 1.169532	 1.100095	 -0.870217
N	 -1.069352	 -0.004081	 0.085342
H	 0.371632	 -1.172932	 0.991288
H	 0.400391	 0.548875	 1.426218
O	 -1.839743	 -0.878372	 0.301421
O	 -1.296183	 0.972182	 -0.547429

	symmetry c1
}
set optking {
	frozen_dihedral = ("
		12 9 6 3
	")
}

ee = optimize('scf')
oeprop('DIPOLE', 'QUADRUPOLE', 'MULLIKEN_CHARGES')
f=open( 'psi4out.xyz', 'w' )
f.write( "13  " )
f.write( str(ee) + "\n" )
f.write( MOL.save_string_xyz() )
f.close()
--------------------------------------------------------------------------

    Molecular point group: c1
  Charge       = 0
  Multiplicity = 1
  Basis Set: CC-PVTZ
  Basis Set:
  @DF-RHF Final Energy:  -321.86047934625572
    Total Energy =                       -321.8604793462558291
    Molecular point group: c1
  Basis Set: CC-PVTZ
  Basis Set:
  Basis Set: CC-PVTZ
  Basis Set:
  @DF-RHF Final Energy:  -321.85665718084880
    Total Energy =                       -321.8566571808486287
  Basis Set: CC-PVTZ
  Basis Set:
  Basis Set: CC-PVTZ
  Basis Set:
  @DF-RHF Final Energy:  -321.86055138444590
    Total Energy =                       -321.8605513844460688
  Basis Set: CC-PVTZ
  Basis Set:
  Basis Set: CC-PVTZ
  Basis Set:
  @DF-RHF Final Energy:  -321.86107575532236
    Total Energy =                       -321.8610757553224175
  Basis Set: CC-PVTZ
  Basis Set:
  Basis Set: CC-PVTZ
  Basis Set:
  @DF-RHF Final Energy:  -321.86108208977237
    Total Energy =                       -321.8610820897723102
  Basis Set: CC-PVTZ
  Basis Set:
  Charge       = 0
  Multiplicity = 1
  Basis Set: CC-PVTZ
  Basis Set:

    Orbital Energies (a.u.)
    -----------------------

    Doubly Occupied:

       1A    -20.592293     2A    -20.589448     3A    -15.837689
       4A    -11.298062     5A    -11.250661     6A    -11.236036
       7A     -1.636678     8A     -1.420827     9A     -1.132803
      10A     -1.027381    11A     -0.884510    12A     -0.831063
      13A     -0.763211    14A     -0.743207    15A     -0.729582
      16A     -0.667133    17A     -0.605131    18A     -0.583786
      19A     -0.551488    20A     -0.522024    21A     -0.510981
      22A     -0.487707    23A     -0.474465    24A     -0.454263

  @DF-RHF Final Energy:  -321.86108470431225

   => Energetics <=

    Nuclear Repulsion Energy =            247.7417561242442332
    One-Electron Energy =                -929.5448251291682027
    Two-Electron Energy =                 359.9419843006115798
    DFT Exchange-Correlation Energy =       0.0000000000000000
    Empirical Dispersion Energy =           0.0000000000000000
    PCM Polarization Energy =               0.0000000000000000
    EFP Energy =                            0.0000000000000000
    Total Energy =                       -321.8610847043123613
    Molecular point group: c1
  Basis Set: CC-PVTZ
  Basis Set:

  -Total Gradient:
     Atom            X                  Y                   Z
    ------   -----------------  -----------------  -----------------
       1        0.000017321120    -0.000004614010     0.000006655653
       2        0.000016198557    -0.000018630168    -0.000019139846
       3        0.000009949526     0.000428624469     0.000098085086
       4        0.000007398417    -0.000000098779     0.000005445607
       5       -0.000005333203     0.000001753488    -0.000007047705
       6       -0.000058189104    -0.000450884181     0.000019136961
       7        0.000004565534     0.000005060479     0.000011235548
       8       -0.000004718334    -0.000009167786    -0.000001664816
       9        0.000167999180    -0.000074921561    -0.000585827547
      10       -0.000030030979     0.000003937692    -0.000007231618
      11       -0.000002482647     0.000005362944    -0.000011153863
      12       -0.000167501080     0.000162830682     0.000466992579
      13        0.000044823010    -0.000049253268     0.000024513962

  **** Optimization is complete! (in 6 steps) ****
    Final optimized geometry and variables:
    Molecular point group: c1

    Geometry (in Angstrom), charge = 0, multiplicity = 1:

    H            3.487092734460     0.131511843761    -0.753681726161
    C            2.763862396406    -0.053922744624     0.029743490144
    C            1.345738197260     0.114806404061    -0.506204145190
    H            2.930994126098    -1.057631295439     0.404109990546
    H            2.964885429440     0.641786786150     0.836943253415
    C            0.320951158346    -0.148552090509     0.584781383871
    H            1.176476065300    -0.574386148517    -1.326085559370
    H            1.205126672015     1.113610466785    -0.892892950466
    N           -1.074865996951    -0.009335720564     0.079627633207
    H            0.386560091748    -1.143897201295     0.988537806626
    H            0.400739325183     0.575490859731     1.383526151732
    O           -1.829186903014    -0.891872461952     0.314463889950
    O           -1.344652244951     0.985572112483    -0.505796511720

  Mulliken Charges: (a.u.)
   Center  Symbol    Alpha    Beta     Spin     Total
       1     H     0.44150  0.44150  0.00000  0.11700
       2     C     3.15157  3.15157  0.00000 -0.30313
       3     C     3.09565  3.09565  0.00000 -0.19130
       4     H     0.45221  0.45221  0.00000  0.09558
       5     H     0.45231  0.45231  0.00000  0.09539
       6     C     3.04109  3.04109  0.00000 -0.08217
       7     H     0.44358  0.44358  0.00000  0.11283
       8     H     0.43320  0.43320  0.00000  0.13360
       9     N     3.27659  3.27659  0.00000  0.44682
      10     H     0.43210  0.43210  0.00000  0.13580
      11     H     0.43747  0.43747  0.00000  0.12506
      12     O     4.16912  4.16912  0.00000 -0.33824
      13     O     4.17362  4.17362  0.00000 -0.34724

   Total alpha = 24.00000, Total beta = 24.00000, Total charge = -0.00000
