                              Psi4 1.0.54 Driver

  ==> Input File <==

--------------------------------------------------------------------------
set {
	reference rhf
	basis cc-pvtz
}

set_num_threads( 4 )
memory 2 gb

molecule MOL {
0 1

O	 0.719624	 -0.042586	 0.636593
C	 1.704209	 0.119472	 -0.000093
C	 1.979684	 1.294609	 -0.902759
O	 2.715427	 -0.733672	 0.000025
C	 0.849949	 2.313531	 -0.945420
H	 2.905689	 1.748352	 -0.564997
H	 2.188816	 0.897975	 -1.890882
C	 1.162109	 3.488145	 -1.867839
H	 0.656505	 2.674765	 0.058255
H	 -0.061276	 1.823327	 -1.268929
C	 0.040043	 4.520750	 -1.924087
H	 2.078351	 3.973820	 -1.539405
H	 1.358243	 3.118733	 -2.871983
C	 0.352176	 5.694975	 -2.845595
H	 -0.156044	 4.891102	 -0.921816
H	 -0.875207	 4.037102	 -2.253577
H	 1.244273	 6.220780	 -2.521673
H	 -0.463661	 6.408325	 -2.862214
H	 0.519035	 5.360079	 -3.864044
C	 4.020999	 -0.192556	 0.000019
H	 4.182809	 0.412891	 -0.879449
H	 4.692590	 -1.035653	 0.000152
H	 4.182726	 0.413087	 0.879368

	symmetry c1
}
set optking {
	frozen_dihedral = ("
		1 2 4 20
	")
}

ee,wfn = optimize('scf', return_wfn=True)
oeprop( wfn, 'DIPOLE', 'QUADRUPOLE', 'MULLIKEN_CHARGES')
f=open( 'psi4out.xyz', 'w' )
f.write( "23  " )
f.write( str(ee) + "\n" )
f.write( MOL.save_string_xyz() )
f.close()
--------------------------------------------------------------------------

    Molecular point group: c1
  Charge       = 0
  Multiplicity = 1
  Basis Set: CC-PVTZ
  Basis Set:
  @DF-RHF Final Energy:  -423.10658022639166
    Total Energy =                       -423.1065802263913156
    Molecular point group: c1
  Basis Set: CC-PVTZ
  Basis Set:
  Basis Set: CC-PVTZ
  Basis Set:
  @DF-RHF Final Energy:  -422.97827732972797
    Total Energy =                       -422.9782773297280301
  Basis Set: CC-PVTZ
  Basis Set:
  Basis Set: CC-PVTZ
  Basis Set:
  @DF-RHF Final Energy:  -423.08013289101297
    Total Energy =                       -423.0801328910131360
  Basis Set: CC-PVTZ
  Basis Set:
  Basis Set: CC-PVTZ
  Basis Set:
  @DF-RHF Final Energy:  -423.11140355822232
    Total Energy =                       -423.1114035582219230
  Basis Set: CC-PVTZ
  Basis Set:
  @DF-RHF Final Energy:  -423.11171528109975
    Total Energy =                       -423.1117152810995776
  @DF-RHF Final Energy:  -423.11381330417220
    Total Energy =                       -423.1138133041725951
  Basis Set: CC-PVTZ
  Basis Set:
  @DF-RHF Final Energy:  -423.11402058624986
    Total Energy =                       -423.1140205862495804
  Basis Set: CC-PVTZ
  Basis Set:
  Basis Set: CC-PVTZ
  Basis Set:
  @DF-RHF Final Energy:  -423.11403273303921
    Total Energy =                       -423.1140327330390392
  Basis Set: CC-PVTZ
  Basis Set:
  Basis Set: CC-PVTZ
  Basis Set:
  @DF-RHF Final Energy:  -423.11403373570528
    Total Energy =                       -423.1140337357053340
  Basis Set: CC-PVTZ
  Basis Set:
  Charge       = 0
  Multiplicity = 1
  Basis Set: CC-PVTZ
  Basis Set:

    Orbital Energies (a.u.)
    -----------------------

    Doubly Occupied:

       1A    -20.587858     2A    -20.535024     3A    -11.366543
       4A    -11.292487     5A    -11.241869     6A    -11.221266
       7A    -11.219582     8A    -11.217217     9A    -11.210152
      10A     -1.463492    11A     -1.369169    12A     -1.097363
      13A     -1.042639    14A     -0.984088    15A     -0.951825
      16A     -0.854344    17A     -0.799447    18A     -0.766938
      19A     -0.700560    20A     -0.687432    21A     -0.676122
      22A     -0.655426    23A     -0.616756    24A     -0.606860
      25A     -0.581084    26A     -0.569982    27A     -0.559782
      28A     -0.540325    29A     -0.513374    30A     -0.507858
      31A     -0.489029    32A     -0.475012    33A     -0.470417
      34A     -0.468747    35A     -0.452261    36A     -0.433474

  @DF-RHF Final Energy:  -423.11403380801238

   => Energetics <=

    Nuclear Repulsion Energy =            455.1000425009377182
    One-Electron Energy =               -1477.9765446092537786
    Two-Electron Energy =                 599.7624683003036807
    DFT Exchange-Correlation Energy =       0.0000000000000000
    Empirical Dispersion Energy =           0.0000000000000000
    PCM Polarization Energy =               0.0000000000000000
    EFP Energy =                            0.0000000000000000
    Total Energy =                       -423.1140338080124366
    Molecular point group: c1
  Basis Set: CC-PVTZ
  Basis Set:

  -Total Gradient:
     Atom            X                  Y                   Z
    ------   -----------------  -----------------  -----------------
       1        0.002007393024     0.002512500829     0.002159788534
       2       -0.002764742079    -0.003070261598    -0.001386739589
       3        0.000004986020     0.000032071190     0.000000344865
       4        0.000445001997    -0.000481656123    -0.003901315619
       5        0.000002614312    -0.000006606466    -0.000005804544
       6       -0.000013616504    -0.000006146183    -0.000017590937
       7       -0.000009173552    -0.000004347359     0.000000565688
       8        0.000006375878    -0.000000047959     0.000007951325
       9       -0.000005822897     0.000003060729    -0.000005313625
      10        0.000002896306     0.000009267182     0.000000718807
      11       -0.000010503083    -0.000004094802    -0.000012371408
      12        0.000002545079    -0.000005194002    -0.000002916545
      13       -0.000002212312     0.000000912443     0.000009085518
      14        0.000002171433     0.000004755442     0.000006851854
      15       -0.000000123184    -0.000000441072    -0.000011544281
      16       -0.000000692813     0.000003981644     0.000000687268
      17        0.000000759000    -0.000000086980    -0.000002088927
      18       -0.000003865925     0.000005418209    -0.000002608593
      19       -0.000002396911     0.000000157736     0.000013057120
      20        0.000313424219     0.001001325129     0.003139851980
      21        0.000002453934    -0.000005573660     0.000035713938
      22        0.000016529617     0.000023043921    -0.000014463929
      23        0.000005998442    -0.000012038252    -0.000011858900

  **** Optimization is complete! (in 10 steps) ****
    Final optimized geometry and variables:
    Molecular point group: c1

    Geometry (in Angstrom), charge = 0, multiplicity = 1:

    O           -0.625694470838    -1.130799086999     2.067293356840
    C            0.290727423933    -1.254224982040     1.338670967983
    C            0.499066417922    -0.414086838775     0.098139670769
    O            1.204779937631    -2.202350442817     1.579862086997
    C           -0.685167080009     0.487214649131    -0.225473062166
    H            1.395177523067     0.182805755410     0.238439684250
    H            0.712469271177    -1.086378942635    -0.727029348583
    C           -0.451334156419     1.324920121185    -1.479151708133
    H           -0.880985841220     1.134040270945     0.621074533658
    H           -1.572733868431    -0.122518167746    -0.349533682341
    C           -1.629771060128     2.232315859494    -1.820579437220
    H            0.441108823219     1.933333261565    -1.348398342018
    H           -0.250163433809     0.668711183158    -2.323132977746
    C           -1.396591922508     3.071242687828    -3.072402323214
    H           -1.831501784909     2.888550367101    -0.978806721493
    H           -2.521187048677     1.625989457504    -1.953515178750
    H           -0.530787117928     3.714967122449    -2.957122637951
    H           -2.251128066983     3.702719963526    -3.285917884379
    H           -1.226008487061     2.441908823347    -3.939615822751
    C            2.576129435815    -1.957277577021     1.387139517470
    H            2.826710350469    -1.844583983930     0.340295833226
    H            3.092518029069    -2.818116368916     1.779340174366
    H            2.895044322249    -1.077996357947     1.933198763743

  Mulliken Charges: (a.u.)
   Center  Symbol    Alpha    Beta     Spin     Total
       1     O     4.17324  4.17324  0.00000 -0.34648
       2     C     2.80015  2.80015  0.00000  0.39970
       3     C     3.13527  3.13527  0.00000 -0.27053
       4     O     4.14080  4.14080  0.00000 -0.28161
       5     C     3.08364  3.08364  0.00000 -0.16728
       6     H     0.44297  0.44297  0.00000  0.11407
       7     H     0.43729  0.43729  0.00000  0.12541
       8     C     3.08778  3.08778  0.00000 -0.17555
       9     H     0.44291  0.44291  0.00000  0.11417
      10     H     0.44471  0.44471  0.00000  0.11057
      11     C     3.08513  3.08513  0.00000 -0.17026
      12     H     0.45657  0.45657  0.00000  0.08685
      13     H     0.45599  0.45599  0.00000  0.08802
      14     C     3.15021  3.15021  0.00000 -0.30042
      15     H     0.45258  0.45258  0.00000  0.09483
      16     H     0.45248  0.45248  0.00000  0.09505
      17     H     0.45549  0.45549  0.00000  0.08901
      18     H     0.44718  0.44718  0.00000  0.10563
      19     H     0.45532  0.45532  0.00000  0.08937
      20     C     3.04694  3.04694  0.00000 -0.09388
      21     H     0.46080  0.46080  0.00000  0.07840
      22     H     0.43459  0.43459  0.00000  0.13082
      23     H     0.45795  0.45795  0.00000  0.08409

   Total alpha = 36.00000, Total beta = 36.00000, Total charge = -0.00000

*** Psi4 exiting successfully. Buy a developer a beer!
