                              Psi4 1.0.54 Driver

  ==> Input File <==

--------------------------------------------------------------------------
set {
	reference rhf
	basis cc-pvtz
}

set_num_threads( 4 )
memory 2 gb

molecule MOL {
0 1

H	 -2.335011	 -0.519671	 0.053400
O	 -1.432053	 -0.565244	 -0.200812
C	 -0.727158	 0.534527	 0.310686
C	 0.680222	 0.664433	 -0.252229
H	 -1.306802	 1.408001	 0.044211
H	 -0.690821	 0.490158	 1.397609
C	 1.605391	 -0.489360	 0.123098
H	 0.615089	 0.745647	 -1.332226
H	 1.101414	 1.597893	 0.110950
H	 1.247627	 -1.432485	 -0.275204
H	 2.601435	 -0.332816	 -0.273062
H	 1.691776	 -0.589902	 1.200774

	symmetry c1
}
set optking {
	frozen_dihedral = ("
		1 2 3 4
	")
}

ee,wfn = optimize('scf', return_wfn=True)
oeprop( wfn, 'DIPOLE', 'QUADRUPOLE', 'MULLIKEN_CHARGES')
f=open( 'psi4out.xyz', 'w' )
f.write( "12  " )
f.write( str(ee) + "\n" )
f.write( MOL.save_string_xyz() )
f.close()
--------------------------------------------------------------------------

    Molecular point group: c1
  Charge       = 0
  Multiplicity = 1
  Basis Set: CC-PVTZ
  Basis Set:
  @DF-RHF Final Energy:  -193.18939677965076
    Total Energy =                       -193.1893967796507923
    Molecular point group: c1
  Basis Set: CC-PVTZ
  Basis Set:
  Basis Set: CC-PVTZ
  Basis Set:
  @DF-RHF Final Energy:  -192.97547702214746
    Total Energy =                       -192.9754770221474587
  Basis Set: CC-PVTZ
  Basis Set:
  Basis Set: CC-PVTZ
  Basis Set:
  @DF-RHF Final Energy:  -193.09886365796268
    Total Energy =                       -193.0988636579628519
  Basis Set: CC-PVTZ
  Basis Set:
  Basis Set: CC-PVTZ
  Basis Set:
  @DF-RHF Final Energy:  -193.18032767947946
    Total Energy =                       -193.1803276794794897
  Basis Set: CC-PVTZ
  Basis Set:
  @DF-RHF Final Energy:  -193.18954010958751
    Total Energy =                       -193.1895401095874263
  Basis Set: CC-PVTZ
  Basis Set:
  @DF-RHF Final Energy:  -193.19102184537923
    Total Energy =                       -193.1910218453792822
  Basis Set: CC-PVTZ
  Basis Set:
  Basis Set: CC-PVTZ
  Basis Set:
  @DF-RHF Final Energy:  -193.19116997934324
    Total Energy =                       -193.1911699793433570
  Basis Set: CC-PVTZ
  Basis Set:
  Basis Set: CC-PVTZ
  Basis Set:
  @DF-RHF Final Energy:  -193.19117781298473
    Total Energy =                       -193.1911778129846766
  Basis Set: CC-PVTZ
  Basis Set:
  Charge       = 0
  Multiplicity = 1
  Basis Set: CC-PVTZ
  Basis Set:

    Orbital Energies (a.u.)
    -----------------------

    Doubly Occupied:

       1A    -20.546330     2A    -11.266163     3A    -11.212952
       4A    -11.201234     5A     -1.364395     6A     -1.047941
       7A     -0.919088     8A     -0.798800     9A     -0.708175
      10A     -0.644049    11A     -0.586116    12A     -0.580860
      13A     -0.539930    14A     -0.499160    15A     -0.481919
      16A     -0.465116    17A     -0.436413

  @DF-RHF Final Energy:  -193.19117808631688

   => Energetics <=

    Nuclear Repulsion Energy =            133.4139888365680235
    One-Electron Energy =                -526.6130504974446467
    Two-Electron Energy =                 200.0078835745598838
    DFT Exchange-Correlation Energy =       0.0000000000000000
    Empirical Dispersion Energy =           0.0000000000000000
    PCM Polarization Energy =               0.0000000000000000
    EFP Energy =                            0.0000000000000000
    Total Energy =                       -193.1911780863167394
    Molecular point group: c1
  Basis Set: CC-PVTZ
  Basis Set:

  -Total Gradient:
     Atom            X                  Y                   Z
    ------   -----------------  -----------------  -----------------
       1       -0.000445623057     0.000161113798    -0.000730355237
       2        0.000406106304    -0.000076817889     0.000733302486
       3        0.000360758249    -0.000272794903     0.000434720863
       4       -0.000336845747     0.000174610691    -0.000420912370
       5       -0.000026573565    -0.000019276164    -0.000001124685
       6        0.000010286742     0.000030123690     0.000010934395
       7        0.000013209374     0.000011876802    -0.000000774388
       8        0.000006564276    -0.000014624718    -0.000009456822
       9        0.000014052096     0.000003343173    -0.000005892248
      10        0.000000614800     0.000004630170    -0.000008161780
      11        0.000001916470    -0.000003791804     0.000002592625
      12       -0.000004465940     0.000001607153    -0.000004872838

  **** Optimization is complete! (in 9 steps) ****
    Final optimized geometry and variables:
    Molecular point group: c1

    Geometry (in Angstrom), charge = 0, multiplicity = 1:

    H           -1.962868432186     0.385859152790     1.204638222553
    O           -1.325218907367    -0.048671877586     0.669724776370
    C           -0.334263352522     0.859337698942     0.263673230189
    C            0.538218145098     0.203967672166    -0.789564510609
    H           -0.789607514272     1.754890813073    -0.151209286466
    H            0.273501063836     1.162113090258     1.114359700634
    C            1.297918609907    -1.015416295732    -0.277840338531
    H           -0.089954649500    -0.077860075968    -1.628085126267
    H            1.239819369931     0.948353159624    -1.155058878656
    H            0.615365122605    -1.774201638946     0.080755103828
    H            1.904075447739    -1.449861380293    -1.064376912464
    H            1.959306031460    -0.747042119259     0.539853663078

  Mulliken Charges: (a.u.)
   Center  Symbol    Alpha    Beta     Spin     Total
       1     H     0.39476  0.39476  0.00000  0.21049
       2     O     4.19960  4.19960  0.00000 -0.39921
       3     C     2.96839  2.96839  0.00000  0.06322
       4     C     3.08252  3.08252  0.00000 -0.16504
       5     H     0.46738  0.46738  0.00000  0.06524
       6     H     0.47486  0.47486  0.00000  0.05027
       7     C     3.14795  3.14795  0.00000 -0.29590
       8     H     0.45347  0.45347  0.00000  0.09306
       9     H     0.45587  0.45587  0.00000  0.08826
      10     H     0.44498  0.44498  0.00000  0.11004
      11     H     0.45112  0.45112  0.00000  0.09776
      12     H     0.45910  0.45910  0.00000  0.08181

   Total alpha = 17.00000, Total beta = 17.00000, Total charge =  0.00000

*** Psi4 exiting successfully. Buy a developer a beer!
