  ==> Input File <==

--------------------------------------------------------------------------
set {
	reference rhf
	basis 6-31G*
}

set_num_threads( 4 )
memory 2 gb

molecule MOL {
0 1

H	 -0.868180	 2.591242	 2.521300
O	 -0.648557	 3.017393	 1.704875
C	 -0.379700	 2.050486	 0.725184
C	 0.975534	 1.402697	 0.947396
H	 -1.150142	 1.285074	 0.694834
H	 -0.384222	 2.559756	 -0.228269
O	 1.171513	 0.459272	 -0.058250
H	 1.007210	 0.927967	 1.930050
H	 1.752252	 2.164891	 0.928581
C	 2.397842	 -0.198080	 -0.002151
H	 2.508049	 -0.905315	 -0.822092
H	 3.173794	 0.550865	 -0.078850
H	 2.517602	 -0.735921	 0.936026

	symmetry c1
}
set optking {
	frozen_dihedral = ("
		4 7 10 13
	")
}

ee = optimize('scf')
oeprop('DIPOLE', 'QUADRUPOLE', 'MULLIKEN_CHARGES')
f=open( 'psi4out.xyz', 'w' )
f.write( "13  " )
f.write( str(ee) + "\n" )
f.write( MOL.save_string_xyz() )
f.close()
--------------------------------------------------------------------------

    Molecular point group: c1
  Charge       = 0
  Multiplicity = 1
  Basis Set: 6-31G*
  Basis Set:
  @DF-RHF Final Energy:  -267.94949041043344
    Total Energy =                       -267.9494904104334410
    Molecular point group: c1
  Basis Set: 6-31G*
  Basis Set:
  Basis Set: 6-31G*
  Basis Set:
  @DF-RHF Final Energy:  -267.95038072881835
    Total Energy =                       -267.9503807288181747
  Basis Set: 6-31G*
  Basis Set:
  Basis Set: 6-31G*
  Basis Set:
  @DF-RHF Final Energy:  -267.95063902819101
    Total Energy =                       -267.9506390281910626
  Basis Set: 6-31G*
  Basis Set:
  Basis Set: 6-31G*
  Basis Set:
  @DF-RHF Final Energy:  -267.95064027775311
    Total Energy =                       -267.9506402777534504
  Basis Set: 6-31G*
  Basis Set:
  Charge       = 0
  Multiplicity = 1
  Basis Set: 6-31G*
  Basis Set:

    Orbital Energies (a.u.)
    -----------------------

    Doubly Occupied:

       1A    -20.562487     2A    -20.560204     3A    -11.270925
       4A    -11.270347     5A    -11.269037     6A     -1.388848
       7A     -1.365211     8A     -1.018588     9A     -0.913389
      10A     -0.841947    11A     -0.709559    12A     -0.674218
      13A     -0.660684    14A     -0.637219    15A     -0.596027
      16A     -0.569453    17A     -0.545494    18A     -0.489346
      19A     -0.482049    20A     -0.438507    21A     -0.422223

  @DF-RHF Final Energy:  -267.95064065104839

   => Energetics <=

    Nuclear Repulsion Energy =            190.2317457216512651
    One-Electron Energy =                -742.9932582482690577
    Two-Electron Energy =                 284.8108718755694326
    DFT Exchange-Correlation Energy =       0.0000000000000000
    Empirical Dispersion Energy =           0.0000000000000000
    PCM Polarization Energy =               0.0000000000000000
    EFP Energy =                            0.0000000000000000
    Total Energy =                       -267.9506406510483885
    Molecular point group: c1
  Basis Set: 6-31G*
  Basis Set:

  -Total Gradient:
     Atom            X                  Y                   Z
    ------   -----------------  -----------------  -----------------
       1       -0.000001550066     0.000003652704     0.000003742727
       2       -0.000004087399     0.000001717130     0.000008396929
       3        0.000000557038    -0.000001982828     0.000000255707
       4       -0.000034691043    -0.000065326300     0.000046667656
       5       -0.000003752690     0.000000844511    -0.000003116444
       6        0.000005071665    -0.000005572302     0.000000749685
       7        0.000073649830     0.000121221189    -0.000059736735
       8       -0.000001838522    -0.000002605397    -0.000004255685
       9        0.000000686247    -0.000001192978    -0.000001560081
      10       -0.000066735386    -0.000159482713    -0.000041317796
      11       -0.000005744520     0.000001242996     0.000000501929
      12       -0.000003358273     0.000001570240     0.000000299226
      13        0.000041793118     0.000105913750     0.000049372880

  **** Optimization is complete! (in 5 steps) ****
    Final optimized geometry and variables:
    Molecular point group: c1

    Geometry (in Angstrom), charge = 0, multiplicity = 1:

    H           -1.577173771514     1.224429958141     1.830306134578
    O           -1.355471908416     1.653451598848     1.015950087330
    C           -1.078070396286     0.690128288551     0.034954037536
    C            0.279029281692     0.047503944914     0.261017172400
    H           -1.844858280807    -0.078669117802    -0.000144228849
    H           -1.081028216650     1.201406830277    -0.917407519046
    O            0.482859191798    -0.893432749891    -0.745801281858
    H            0.309273476149    -0.429084856752     1.242746826415
    H            1.052412385191     0.813072467882     0.246106931709
    C            1.712236436642    -1.545024802018    -0.686339498525
    H            1.747599942257    -2.251478061752    -1.504019348472
    H            2.538252175513    -0.844244409109    -0.788684172584
    H            1.831259087650    -2.083998481673     0.251686127038

  Mulliken Charges: (a.u.)
   Center  Symbol    Alpha    Beta     Spin     Total
       1     H     0.28125  0.28125  0.00000  0.43750
       2     O     4.37088  4.37088  0.00000 -0.74176
       3     C     3.00465  3.00465  0.00000 -0.00930
       4     C     2.99660  2.99660  0.00000  0.00679
       5     H     0.42227  0.42227  0.00000  0.15545
       6     H     0.40841  0.40841  0.00000  0.18318
       7     O     4.30752  4.30752  0.00000 -0.61504
       8     H     0.43749  0.43749  0.00000  0.12501
       9     H     0.42330  0.42330  0.00000  0.15341
      10     C     3.07999  3.07999  0.00000 -0.15998
      11     H     0.41070  0.41070  0.00000  0.17861
      12     H     0.42762  0.42762  0.00000  0.14477
      13     H     0.42932  0.42932  0.00000  0.14136

   Total alpha = 21.00000, Total beta = 21.00000, Total charge =  0.00000
