  ==> Input File <==

--------------------------------------------------------------------------
set {
	reference rhf
	basis 6-31G*
}

set_num_threads( 4 )
memory 2 gb

molecule MOL {
0 1

O	 -1.080905	 1.071153	 2.571979
C	 -0.541975	 1.609179	 1.653003
C	 0.718282	 1.025070	 1.039103
C	 -1.098495	 2.872496	 1.035192
C	 0.379448	 -0.143569	 0.099626
H	 1.343941	 0.667883	 1.849827
H	 1.269268	 1.788911	 0.497820
C	 1.631333	 -0.777471	 -0.511575
H	 -0.184059	 -0.878298	 0.663557
H	 -0.271797	 0.206092	 -0.699976
C	 2.915987	 -0.544314	 0.291766
H	 1.766672	 -0.399098	 -1.523130
H	 1.471257	 -1.849544	 -0.605828
C	 3.373361	 0.914346	 0.347591
H	 3.708709	 -1.142521	 -0.150311
H	 2.780642	 -0.921148	 1.303579
H	 3.506512	 1.320010	 -0.651625
H	 4.322697	 0.999599	 0.867103
H	 2.660624	 1.545032	 0.868198
H	 -0.411955	 3.697030	 1.208601
H	 -2.058782	 3.106856	 1.473038
H	 -1.200437	 2.761768	 -0.040518

	symmetry c1
}
set optking {
	frozen_dihedral = ("
		3 5 8 12
	")
}

ee = optimize('scf')
oeprop('DIPOLE', 'QUADRUPOLE', 'MULLIKEN_CHARGES')
f=open( 'psi4out.xyz', 'w' )
f.write( "22  " )
f.write( str(ee) + "\n" )
f.write( MOL.save_string_xyz() )
f.close()
--------------------------------------------------------------------------

    Molecular point group: c1
  Charge       = 0
  Multiplicity = 1
  Basis Set: 6-31G*
  Basis Set:
  @DF-RHF Final Energy:  -348.06112868507813
    Total Energy =                       -348.0611286850779607
    Molecular point group: c1
  Basis Set: 6-31G*
  Basis Set:
  Basis Set: 6-31G*
  Basis Set:
  @DF-RHF Final Energy:  -348.08086230960294
    Total Energy =                       -348.0808623096025940
  Basis Set: 6-31G*
  Basis Set:
  Basis Set: 6-31G*
  Basis Set:
  @DF-RHF Final Energy:  -348.08626304563478
    Total Energy =                       -348.0862630456349507
  Basis Set: 6-31G*
  Basis Set:
  Basis Set: 6-31G*
  Basis Set:
  @DF-RHF Final Energy:  -348.08741162091468
    Total Energy =                       -348.0874116209148497
  Basis Set: 6-31G*
  Basis Set:
  @DF-RHF Final Energy:  -348.08600256766982
    Total Energy =                       -348.0860025676701071
  @DF-RHF Final Energy:  -348.08828064195080
    Total Energy =                       -348.0882806419508029
  @DF-RHF Final Energy:  -348.08689749177819
    Total Energy =                       -348.0868974917783021
  @DF-RHF Final Energy:  -348.08825522920409
    Total Energy =                       -348.0882552292040373
  Basis Set: 6-31G*
  Basis Set:
  @DF-RHF Final Energy:  -348.08848361049002
    Total Energy =                       -348.0884836104897886
  Basis Set: 6-31G*
  Basis Set:
  Basis Set: 6-31G*
  Basis Set:
  @DF-RHF Final Energy:  -348.08841346445405
    Total Energy =                       -348.0884134644544474
  Basis Set: 6-31G*
  Basis Set:
  Basis Set: 6-31G*
  Basis Set:
  @DF-RHF Final Energy:  -348.08849452997748
    Total Energy =                       -348.0884945299776518
  Basis Set: 6-31G*
  Basis Set:
  Charge       = 0
  Multiplicity = 1
  Basis Set: 6-31G*
  Basis Set:

    Orbital Energies (a.u.)
    -----------------------

    Doubly Occupied:

       1A    -20.547467     2A    -11.324406     3A    -11.230710
       4A    -11.228687     5A    -11.228205     6A    -11.222933
       7A    -11.221966     8A    -11.213255     9A     -1.393250
      10A     -1.092198    11A     -1.041957    12A     -0.998733
      13A     -0.945572    14A     -0.858836    15A     -0.781742
      16A     -0.734429    17A     -0.657153    18A     -0.654529
      19A     -0.620064    20A     -0.607055    21A     -0.602196
      22A     -0.589442    23A     -0.558323    24A     -0.549378
      25A     -0.536926    26A     -0.520864    27A     -0.503636
      28A     -0.488558    29A     -0.465326    30A     -0.458611
      31A     -0.455824    32A     -0.396466

  @DF-RHF Final Energy:  -348.08849478245196

   => Energetics <=

    Nuclear Repulsion Energy =            378.9856380779482947
    One-Electron Energy =               -1222.6908744496179224
    Two-Electron Energy =                 495.6167415892177246
    DFT Exchange-Correlation Energy =       0.0000000000000000
    Empirical Dispersion Energy =           0.0000000000000000
    PCM Polarization Energy =               0.0000000000000000
    EFP Energy =                            0.0000000000000000
    Total Energy =                       -348.0884947824518463
    Molecular point group: c1
  Basis Set: 6-31G*
  Basis Set:

  -Total Gradient:
     Atom            X                  Y                   Z
    ------   -----------------  -----------------  -----------------
       1       -0.000002726352     0.000003880678     0.000006621310
       2       -0.000009815274    -0.000010346538    -0.000025005503
       3        0.000102795615    -0.002950805806     0.003411717053
       4        0.000004636219     0.000010060133     0.000020130503
       5       -0.000996399840     0.003265464566    -0.005520327304
       6       -0.000000474922     0.000010385565     0.000000427114
       7        0.000012401667    -0.000013857150     0.000001581401
       8        0.004224961236     0.004104214610     0.004392032184
       9        0.000000092145     0.000017456833     0.000014371130
      10       -0.000005264207    -0.000000261816     0.000005033563
      11        0.000008370507    -0.000026509376     0.000014388918
      12       -0.003340537836    -0.004414154761    -0.002302795706
      13        0.000004499831     0.000009541140     0.000006274070
      14        0.000009296590     0.000006124262    -0.000009183029
      15       -0.000005268483     0.000005461044    -0.000003120166
      16        0.000010107768    -0.000007532591     0.000000262161
      17        0.000003568925     0.000005526600    -0.000000273699
      18       -0.000013829932     0.000005796397     0.000003180309
      19       -0.000004959644    -0.000012923056    -0.000009565782
      20       -0.000000244887    -0.000001854023    -0.000003810199
      21       -0.000001184571    -0.000000302123    -0.000000878580
      22       -0.000000024551    -0.000005364586    -0.000001059749

  **** Optimization is complete! (in 12 steps) ****
    Final optimized geometry and variables:
    Molecular point group: c1

    Geometry (in Angstrom), charge = 0, multiplicity = 1:

    O           -2.005488094712     0.222957701431     1.753094500527
    C           -1.503746017665     0.835734054268     0.860300398159
    C           -0.161310310682     0.417005617746     0.284934005690
    C           -2.181522120896     2.040091532525     0.245218175576
    C           -0.357303556172    -0.742337718070    -0.708178012033
    H            0.459435608089     0.099438877446     1.112841563630
    H            0.316304466551     1.263178762021    -0.198331017755
    C            0.912306402133    -1.389523279296    -1.314781982488
    H           -0.907698670526    -1.509123620956    -0.172500964690
    H           -1.003045297680    -0.419529633402    -1.520428991529
    C            2.217613939191    -1.365471113017    -0.505340425782
    H            1.083816786159    -0.997515626049    -2.314788437902
    H            0.656900714806    -2.432386207027    -1.484956655361
    C            3.053273594185    -0.090202384913    -0.641071394763
    H            2.828177112977    -2.197566578200    -0.845406983776
    H            2.008842327910    -1.564376525296     0.542723676696
    H            3.296951361715     0.099323291525    -1.682728189288
    H            3.988198705774    -0.187485254625    -0.097573370716
    H            2.544869598874     0.786230646158    -0.257802061417
    H           -1.607091215883     2.935248034565     0.468717618672
    H           -3.180422739017     2.146416632797     0.644777000989
    H           -2.224015413045     1.948628278456    -0.836138519336

  Mulliken Charges: (a.u.)
   Center  Symbol    Alpha    Beta     Spin     Total
       1     O     4.26228  4.26228  0.00000 -0.52455
       2     C     2.73718  2.73718  0.00000  0.52564
       3     C     3.20280  3.20280  0.00000 -0.40560
       4     C     3.28932  3.28932  0.00000 -0.57864
       5     C     3.16515  3.16515  0.00000 -0.33029
       6     H     0.39942  0.39942  0.00000  0.20117
       7     H     0.41638  0.41638  0.00000  0.16723
       8     C     3.15631  3.15631  0.00000 -0.31263
       9     H     0.40550  0.40550  0.00000  0.18899
      10     H     0.41833  0.41833  0.00000  0.16334
      11     C     3.15881  3.15881  0.00000 -0.31762
      12     H     0.42103  0.42103  0.00000  0.15794
      13     H     0.41654  0.41654  0.00000  0.16692
      14     C     3.24089  3.24089  0.00000 -0.48179
      15     H     0.41800  0.41800  0.00000  0.16401
      16     H     0.41852  0.41852  0.00000  0.16296
      17     H     0.42143  0.42143  0.00000  0.15714
      18     H     0.41829  0.41829  0.00000  0.16342
      19     H     0.42023  0.42023  0.00000  0.15955
      20     H     0.40676  0.40676  0.00000  0.18648
      21     H     0.39705  0.39705  0.00000  0.20590
      22     H     0.40977  0.40977  0.00000  0.18045

   Total alpha = 32.00000, Total beta = 32.00000, Total charge = -0.00000
