                              Psi4 1.0.54 Driver

  ==> Input File <==

--------------------------------------------------------------------------
set {
	reference rhf
	basis cc-pvtz
}

set_num_threads( 4 )
memory 2 gb

molecule MOL {
0 1

H	 -2.486665	 0.281495	 0.795193
O	 -2.313989	 -0.142475	 -0.025864
C	 -0.943808	 -0.065018	 -0.330000
H	 -0.812293	 -0.225641	 -1.398673
C	 -0.231030	 -1.182113	 0.407592
C	 -0.353797	 1.300461	 0.050970
H	 -0.312800	 -0.992012	 1.473041
H	 -0.738841	 -2.119564	 0.220514
C	 1.246176	 -1.268044	 -0.015480
H	 -0.539537	 2.008579	 -0.751815
H	 -0.889989	 1.662858	 0.920677
C	 1.153605	 1.231851	 0.356834
H	 1.823096	 -1.684665	 0.802361
H	 1.352335	 -1.958223	 -0.845114
C	 1.826409	 0.100723	 -0.416008
H	 1.622968	 2.181508	 0.128734
H	 1.301983	 1.066493	 1.419367
H	 2.897299	 0.112407	 -0.249665
H	 1.683458	 0.265621	 -1.480024

	symmetry c1
}
set optking {
	frozen_dihedral = ("
		1 2 3 4
	")
}

ee,wfn = optimize('scf', return_wfn=True)
oeprop( wfn, 'DIPOLE', 'QUADRUPOLE', 'MULLIKEN_CHARGES')
f=open( 'psi4out.xyz', 'w' )
f.write( "19  " )
f.write( str(ee) + "\n" )
f.write( MOL.save_string_xyz() )
f.close()
--------------------------------------------------------------------------

    Molecular point group: c1
  Charge       = 0
  Multiplicity = 1
  Basis Set: CC-PVTZ
  Basis Set:
  @DF-RHF Final Energy:  -309.16120863701246
    Total Energy =                       -309.1612086370126917
    Molecular point group: c1
  Basis Set: CC-PVTZ
  Basis Set:
  Basis Set: CC-PVTZ
  Basis Set:
  @DF-RHF Final Energy:  -309.16259766804239
    Total Energy =                       -309.1625976680426220
  Basis Set: CC-PVTZ
  Basis Set:
  Basis Set: CC-PVTZ
  Basis Set:
  @DF-RHF Final Energy:  -309.16285551864235
    Total Energy =                       -309.1628555186421181
  Basis Set: CC-PVTZ
  Basis Set:
  Basis Set: CC-PVTZ
  Basis Set:
  @DF-RHF Final Energy:  -309.16285964218213
    Total Energy =                       -309.1628596421820703
  Basis Set: CC-PVTZ
  Basis Set:
  Charge       = 0
  Multiplicity = 1
  Basis Set: CC-PVTZ
  Basis Set:

    Orbital Energies (a.u.)
    -----------------------

    Doubly Occupied:

       1A    -20.542363     2A    -11.267338     3A    -11.217521
       4A    -11.216412     5A    -11.215574     6A    -11.214998
       7A    -11.208988     8A     -1.362994     9A     -1.111653
      10A     -1.005432    11A     -0.989834    12A     -0.846667
      13A     -0.843054    14A     -0.752653    15A     -0.675318
      16A     -0.664997    17A     -0.615445    18A     -0.605964
      19A     -0.580364    20A     -0.562117    21A     -0.531771
      22A     -0.521619    23A     -0.502619    24A     -0.491688
      25A     -0.468198    26A     -0.450854    27A     -0.431560
      28A     -0.409868

  @DF-RHF Final Energy:  -309.16286015649354

   => Energetics <=

    Nuclear Repulsion Energy =            331.8360520712137145
    One-Electron Energy =               -1077.3820972022663227
    Two-Electron Energy =                 436.3831849745589011
    DFT Exchange-Correlation Energy =       0.0000000000000000
    Empirical Dispersion Energy =           0.0000000000000000
    PCM Polarization Energy =               0.0000000000000000
    EFP Energy =                            0.0000000000000000
    Total Energy =                       -309.1628601564936503
    Molecular point group: c1
  Basis Set: CC-PVTZ
  Basis Set:

  -Total Gradient:
     Atom            X                  Y                   Z
    ------   -----------------  -----------------  -----------------
       1       -0.000138139212     0.001212308480    -0.000698533195
       2        0.000173000479    -0.001304035288     0.000804756862
       3        0.000047829235    -0.001097768758     0.000115448950
       4       -0.000058509785     0.001152479589    -0.000187570051
       5       -0.000035007734    -0.000009386214    -0.000028288657
       6        0.000041490529    -0.000006963485     0.000014470573
       7        0.000002245213    -0.000002811106    -0.000018618024
       8        0.000001891992    -0.000011958871     0.000009170580
       9       -0.000019153138    -0.000009133780     0.000047607412
      10        0.000012135256     0.000023700881    -0.000006523678
      11        0.000013107100    -0.000002383849    -0.000007959552
      12       -0.000013433073     0.000034455279    -0.000026155441
      13        0.000011758328    -0.000023183825     0.000000346075
      14       -0.000012028031     0.000003689773     0.000002061996
      15       -0.000013444461     0.000021935903    -0.000030022438
      16        0.000001578066     0.000014365969     0.000014675414
      17       -0.000011038542     0.000000989364     0.000000425881
      18       -0.000014232623    -0.000003527542     0.000003129455
      19        0.000009950398     0.000007227478    -0.000008422162

  **** Optimization is complete! (in 5 steps) ****
    Final optimized geometry and variables:
    Molecular point group: c1

    Geometry (in Angstrom), charge = 0, multiplicity = 1:

    H           -2.526094338742     0.312886474996     0.799139784212
    O           -2.337699980265    -0.118969241831    -0.014094325634
    C           -0.957651138339    -0.078808352587    -0.273659584937
    H           -0.875656299744    -0.253011981769    -1.340098996303
    C           -0.201555992731    -1.178775873568     0.455885671523
    C           -0.357178853571     1.296165600526     0.046939386712
    H           -0.228147604998    -0.970368637310     1.523020901658
    H           -0.712615741616    -2.122225546564     0.312563545461
    C            1.255778882629    -1.267324386553    -0.033696816012
    H           -0.603115133265     1.984844614213    -0.753215991719
    H           -0.835241196271     1.685041843655     0.942834663765
    C            1.165614793374     1.241783398190     0.269033482967
    H            1.877475529704    -1.650625981302     0.767564020685
    H            1.327483817217    -1.984293609003    -0.843897305845
    C            1.800326179829     0.092133750681    -0.508651948010
    H            1.614965869492     2.186871565387    -0.011816737888
    H            1.377001004938     1.106796057417     1.325427219224
    H            2.878894112813     0.115601278567    -0.405575425524
    H            1.594098157892     0.224321695920    -1.566574304527

  Mulliken Charges: (a.u.)
   Center  Symbol    Alpha    Beta     Spin     Total
       1     H     0.39555  0.39555  0.00000  0.20890
       2     O     4.20718  4.20718  0.00000 -0.41436
       3     C     2.93416  2.93416  0.00000  0.13168
       4     H     0.44336  0.44336  0.00000  0.11328
       5     C     3.10110  3.10110  0.00000 -0.20220
       6     C     3.11533  3.11533  0.00000 -0.23066
       7     H     0.46118  0.46118  0.00000  0.07764
       8     H     0.44024  0.44024  0.00000  0.11953
       9     C     3.11289  3.11289  0.00000 -0.22578
      10     H     0.44438  0.44438  0.00000  0.11123
      11     H     0.45720  0.45720  0.00000  0.08560
      12     C     3.09995  3.09995  0.00000 -0.19990
      13     H     0.44766  0.44766  0.00000  0.10468
      14     H     0.44623  0.44623  0.00000  0.10755
      15     C     3.10239  3.10239  0.00000 -0.20479
      16     H     0.44162  0.44162  0.00000  0.11676
      17     H     0.45397  0.45397  0.00000  0.09206
      18     H     0.44261  0.44261  0.00000  0.11477
      19     H     0.45300  0.45300  0.00000  0.09401

   Total alpha = 28.00000, Total beta = 28.00000, Total charge = -0.00000

*** Psi4 exiting successfully. Buy a developer a beer!
