  ==> Input File <==

--------------------------------------------------------------------------
set {
	reference rhf
	basis cc-pvtz
}

set_num_threads( 4 )
memory 2 gb

molecule MOL {
0 1

H	 -3.270000	 -0.877000	 0.468000
C	 -2.810000	 0.000000	 0.026000
N	 -1.392000	 0.000000	 0.301000
H	 -3.038000	 -0.000000	 -1.044000
H	 -3.269000	 0.877000	 0.468000
C	 -0.735000	 1.193000	 -0.196000
C	 -0.735000	 -1.193000	 -0.196000
H	 -0.814000	 1.272000	 -1.285000
H	 -1.220000	 2.064000	 0.233000
C	 0.735000	 1.193000	 0.196000
H	 -1.220000	 -2.064000	 0.233000
H	 -0.814000	 -1.272000	 -1.285000
C	 0.735000	 -1.193000	 0.196000
H	 1.220000	 2.064000	 -0.233000
H	 0.814000	 1.272000	 1.285000
N	 1.392000	 -0.000000	 -0.301000
H	 1.220000	 -2.064000	 -0.233000
H	 0.814000	 -1.272000	 1.285000
C	 2.810000	 -0.000000	 -0.026000
H	 3.270000	 0.877000	 -0.468000
H	 3.269000	 -0.877000	 -0.468000
H	 3.038000	 0.000000	 1.044000

	symmetry c1
}
ee = optimize('scf')
oeprop('DIPOLE', 'QUADRUPOLE', 'MULLIKEN_CHARGES')
f=open( 'psi4out.xyz', 'w' )
f.write( "22  " )
f.write( str(ee) + "\n" )
f.write( MOL.save_string_xyz() )
f.close()
--------------------------------------------------------------------------

    Molecular point group: c1
  Charge       = 0
  Multiplicity = 1
  Basis Set: CC-PVTZ
  Basis Set:
  @DF-RHF Final Energy:  -344.35063308853461
    Total Energy =                       -344.3506330885350053
    Molecular point group: c1
  Basis Set: CC-PVTZ
  Basis Set:
  Basis Set: CC-PVTZ
  Basis Set:
  @DF-RHF Final Energy:  -344.35071755592230
    Total Energy =                       -344.3507175559221878
  Basis Set: CC-PVTZ
  Basis Set:
  Charge       = 0
  Multiplicity = 1
  Basis Set: CC-PVTZ
  Basis Set:

    Orbital Energies (a.u.)
    -----------------------

    Doubly Occupied:

       1A    -15.537682     2A    -15.537679     3A    -11.237600
       4A    -11.237581     5A    -11.236947     6A    -11.236937
       7A    -11.234308     8A    -11.234308     9A     -1.257571
      10A     -1.206611    11A     -1.026015    12A     -0.993085
      13A     -0.912219    14A     -0.868241    15A     -0.836356
      16A     -0.755537    17A     -0.667037    18A     -0.638455
      19A     -0.632397    20A     -0.627469    21A     -0.623469
      22A     -0.582579    23A     -0.549991    24A     -0.546636
      25A     -0.542597    26A     -0.517714    27A     -0.496814
      28A     -0.491287    29A     -0.466480    30A     -0.457411
      31A     -0.352933    32A     -0.347852

  @DF-RHF Final Energy:  -344.35072039267015

   => Energetics <=

    Nuclear Repulsion Energy =            422.0316800820452272
    One-Electron Energy =               -1302.9852070095382714
    Two-Electron Energy =                 536.6028065348224345
    DFT Exchange-Correlation Energy =       0.0000000000000000
    Empirical Dispersion Energy =           0.0000000000000000
    PCM Polarization Energy =               0.0000000000000000
    EFP Energy =                            0.0000000000000000
    Total Energy =                       -344.3507203926706097
    Molecular point group: c1
  Basis Set: CC-PVTZ
  Basis Set:

  -Total Gradient:
     Atom            X                  Y                   Z
    ------   -----------------  -----------------  -----------------
       1        0.000014374687     0.000034678718    -0.000008236741
       2       -0.000165381468    -0.000019060633    -0.000055124903
       3        0.000076452873     0.000007388497     0.000082450756
       4        0.000030337364     0.000001989810     0.000042138618
       5        0.000025921068    -0.000033453555    -0.000006516193
       6        0.000054129534     0.000110084632    -0.000088331405
       7        0.000038222359    -0.000118700338    -0.000087496711
       8       -0.000014089892    -0.000012216054     0.000038588759
       9        0.000032620777    -0.000055809011    -0.000005062273
      10       -0.000038222158     0.000118698540     0.000087495618
      11        0.000027402168     0.000054854503    -0.000005329514
      12       -0.000013836622     0.000013630074     0.000039545263
      13       -0.000054130620    -0.000110086245     0.000088334084
      14       -0.000027401316    -0.000054851862     0.000005328732
      15        0.000013837744    -0.000013629847    -0.000039542672
      16       -0.000076454525    -0.000007391148    -0.000082450869
      17       -0.000032620977     0.000055810360     0.000005062463
      18        0.000014089676     0.000012216499    -0.000038592171
      19        0.000165381506     0.000019060692     0.000055124806
      20       -0.000014373964    -0.000034677368     0.000008236125
      21       -0.000025920841     0.000033453125     0.000006515930
      22       -0.000030337376    -0.000001989390    -0.000042137701

  **** Optimization is complete! (in 3 steps) ****
    Final optimized geometry and variables:
    Molecular point group: c1

    Geometry (in Angstrom), charge = 0, multiplicity = 1:

    H           -3.268213859241    -0.875720488420     0.463106646190
    C           -2.806014795819     0.000006982819     0.024886322434
    N           -1.391133104208     0.000016428489     0.301321143208
    H           -3.029447502123     0.000055119319    -1.045737837969
    H           -3.268125954338     0.875758003673     0.463149697727
    C           -0.734069200723     1.191305074751    -0.191298492436
    C           -0.734142077369    -1.191299748716    -0.191285450811
    H           -0.818578110151     1.272514465431    -1.279008066809
    H           -1.215480644544     2.061015451324     0.239899602273
    C            0.734142074411     1.191299746010     0.191285464950
    H           -1.215597876316    -2.060985470556     0.239919564470
    H           -0.818651734273    -1.272508721242    -1.278994429310
    C            0.734069204759    -1.191305077749     0.191298489783
    H            1.215597873527     2.060985471085    -0.239919535964
    H            0.818651727374     1.272508699149     1.278994442409
    N            1.391133101818    -0.000016424787    -0.301321142179
    H            1.215480646153    -2.061015451449    -0.239899619924
    H            0.818578124342    -1.272514482242     1.279008060478
    C            2.806014796716    -0.000006978914    -0.024886333002
    H            3.268213855242     0.875720498445    -0.463106650045
    H            3.268125952246    -0.875757994675    -0.463149724295
    H            3.029447511796    -0.000055129842     1.045737825534

  Mulliken Charges: (a.u.)
   Center  Symbol    Alpha    Beta     Spin     Total
       1     H     0.45193  0.45193  0.00000  0.09615
       2     C     3.09843  3.09843  0.00000 -0.19687
       3     N     3.61317  3.61317  0.00000 -0.22634
       4     H     0.47002  0.47002  0.00000  0.05996
       5     H     0.45193  0.45193  0.00000  0.09614
       6     C     3.03548  3.03548  0.00000 -0.07095
       7     C     3.03548  3.03548  0.00000 -0.07096
       8     H     0.46801  0.46801  0.00000  0.06399
       9     H     0.45377  0.45377  0.00000  0.09245
      10     C     3.03548  3.03548  0.00000 -0.07096
      11     H     0.45377  0.45377  0.00000  0.09245
      12     H     0.46801  0.46801  0.00000  0.06398
      13     C     3.03548  3.03548  0.00000 -0.07095
      14     H     0.45377  0.45377  0.00000  0.09245
      15     H     0.46801  0.46801  0.00000  0.06398
      16     N     3.61317  3.61317  0.00000 -0.22634
      17     H     0.45377  0.45377  0.00000  0.09245
      18     H     0.46801  0.46801  0.00000  0.06399
      19     C     3.09843  3.09843  0.00000 -0.19687
      20     H     0.45193  0.45193  0.00000  0.09615
      21     H     0.45193  0.45193  0.00000  0.09614
      22     H     0.47002  0.47002  0.00000  0.05996

   Total alpha = 32.00000, Total beta = 32.00000, Total charge = -0.00000
