  ==> Input File <==

--------------------------------------------------------------------------
set {
	reference rhf
	basis cc-pvtz
}

set_num_threads( 4 )
memory 2 gb

molecule MOL {
0 1

H	 2.462485	 -2.216993	 0.000000
O	 2.777472	 -1.330706	 0.000000
C	 1.763288	 -0.447523	 0.000000
C	 1.140158	 -0.188332	 -1.212291
C	 1.337321	 0.191139	 1.144998
H	 1.487163	 -0.695843	 -2.090457
C	 0.096477	 0.706305	 -1.273161
H	 1.799541	 0.010310	 2.093129
C	 0.287325	 1.082572	 1.046901
H	 -0.379060	 0.900338	 -2.214417
C	 -0.349316	 1.360240	 -0.136683
N	 -0.160751	 1.758650	 2.269582
H	 -1.158102	 2.057060	 -0.168742
O	 0.406622	 1.500537	 3.278809
O	 -1.061864	 2.521507	 2.176083

	symmetry c1
}
set optking {
	frozen_dihedral = ("
		4 3 2 1
	")
}

ee = optimize('scf')
oeprop('DIPOLE', 'QUADRUPOLE', 'MULLIKEN_CHARGES')
f=open( 'psi4out.xyz', 'w' )
f.write( "15  " )
f.write( str(ee) + "\n" )
f.write( MOL.save_string_xyz() )
f.close()
--------------------------------------------------------------------------

    Molecular point group: c1
  Charge       = 0
  Multiplicity = 1
  Basis Set: CC-PVTZ
  Basis Set:
  @DF-RHF Final Energy:  -509.21350385067399
    Total Energy =                       -509.2135038506737601
    Molecular point group: c1
  Basis Set: CC-PVTZ
  Basis Set:
  Basis Set: CC-PVTZ
  Basis Set:
  @DF-RHF Final Energy:  -509.21451406189664
    Total Energy =                       -509.2145140618962387
  Basis Set: CC-PVTZ
  Basis Set:
  Basis Set: CC-PVTZ
  Basis Set:
  @DF-RHF Final Energy:  -509.19912407091908
    Total Energy =                       -509.1991240709190834
  Basis Set: CC-PVTZ
  Basis Set:
  Basis Set: CC-PVTZ
  Basis Set:
  @DF-RHF Final Energy:  -509.21422211480660
    Total Energy =                       -509.2142221148069439
  Basis Set: CC-PVTZ
  Basis Set:
  Basis Set: CC-PVTZ
  Basis Set:
  @DF-RHF Final Energy:  -509.21471452274579
    Total Energy =                       -509.2147145227462488
  Basis Set: CC-PVTZ
  Basis Set:
  Basis Set: CC-PVTZ
  Basis Set:
  @DF-RHF Final Energy:  -509.21472390003385
    Total Energy =                       -509.2147239000337322
  Basis Set: CC-PVTZ
  Basis Set:
  Charge       = 0
  Multiplicity = 1
  Basis Set: CC-PVTZ
  Basis Set:

    Orbital Energies (a.u.)
    -----------------------

    Doubly Occupied:

       1A    -20.594744     2A    -20.593428     3A    -20.593222
       4A    -15.849422     5A    -11.319113     6A    -11.307004
       7A    -11.264652     8A    -11.263149     9A    -11.263085
      10A    -11.261617    11A     -1.643068    12A     -1.425456
      13A     -1.423676    14A     -1.202946    15A     -1.095136
      16A     -1.048726    17A     -0.964804    18A     -0.869022
      19A     -0.838597    20A     -0.797815    21A     -0.742625
      22A     -0.739612    23A     -0.723734    24A     -0.712352
      25A     -0.685526    26A     -0.645156    27A     -0.628112
      28A     -0.570230    29A     -0.559283    30A     -0.532740
      31A     -0.515876    32A     -0.493636    33A     -0.487989
      34A     -0.458932    35A     -0.380266    36A     -0.360870

  @DF-RHF Final Energy:  -509.21472677286664

   => Energetics <=

    Nuclear Repulsion Energy =            504.0210928685779095
    One-Electron Energy =               -1694.7603881569450550
    Two-Electron Energy =                 681.5245685155008459
    DFT Exchange-Correlation Energy =       0.0000000000000000
    Empirical Dispersion Energy =           0.0000000000000000
    PCM Polarization Energy =               0.0000000000000000
    EFP Energy =                            0.0000000000000000
    Total Energy =                       -509.2147267728663564
    Molecular point group: c1
  Basis Set: CC-PVTZ
  Basis Set:

  -Total Gradient:
     Atom            X                  Y                   Z
    ------   -----------------  -----------------  -----------------
       1       -0.000037535524     0.000008382695     0.000635051384
       2        0.000242033190     0.000151770847    -0.000860452300
       3       -0.000476180566    -0.000476523275     0.000612406123
       4        0.000103221864     0.000499321974    -0.000228257315
       5        0.000194415930    -0.000218753873    -0.000137475769
       6        0.000009393308     0.000006698018     0.000019244926
       7        0.000139480371    -0.000200820512    -0.000132952113
       8       -0.000002201139     0.000005654009    -0.000004709796
       9       -0.000217530539     0.000135682951    -0.000165944009
      10       -0.000016976459     0.000026102291     0.000001829381
      11        0.000054974471     0.000042512093     0.000245152990
      12        0.000076017412     0.000022706395    -0.000071462630
      13        0.000003112910    -0.000013395991    -0.000032374743
      14       -0.000124534024     0.000067848841    -0.000015469981
      15        0.000052308795    -0.000057186464     0.000135413845

  **** Optimization is complete! (in 7 steps) ****
    Final optimized geometry and variables:
    Molecular point group: c1

    Geometry (in Angstrom), charge = 0, multiplicity = 1:

    H            1.882879564505    -2.934818117336    -0.765050902487
    O            2.172034926823    -2.038764483369    -0.755848729430
    C            1.113664621546    -1.183092375483    -0.814753166120
    C            0.497942925697    -0.910463032729    -2.023184059314
    C            0.700378935630    -0.543156017881     0.334127293743
    H            0.847759789692    -1.403175625256    -2.909549549254
    C           -0.544499253368    -0.007078125447    -2.082958444072
    H            1.181469232570    -0.737853662180     1.268106320366
    C           -0.339375068353     0.357907064416     0.243512327483
    H           -1.018440625342     0.199033022139    -3.022308323901
    C           -0.977034299298     0.641412546399    -0.942960113544
    N           -0.781764960767     1.038581857934     1.464557606540
    H           -1.778593443327     1.347260787141    -0.969706094060
    O           -0.224062653442     0.770805756578     2.475433503809
    O           -1.672235994029     1.814849619657     1.367325262440

  Mulliken Charges: (a.u.)
   Center  Symbol    Alpha    Beta     Spin     Total
       1     H     0.38578  0.38578  0.00000  0.22844
       2     O     4.18522  4.18522  0.00000 -0.37045
       3     C     2.86782  2.86782  0.00000  0.26437
       4     C     3.10057  3.10057  0.00000 -0.20115
       5     C     3.10861  3.10861  0.00000 -0.21723
       6     H     0.41254  0.41254  0.00000  0.17492
       7     C     3.06679  3.06679  0.00000 -0.13359
       8     H     0.39135  0.39135  0.00000  0.21730
       9     C     2.97911  2.97911  0.00000  0.04177
      10     H     0.41523  0.41523  0.00000  0.16954
      11     C     3.08582  3.08582  0.00000 -0.17165
      12     N     3.25038  3.25038  0.00000  0.49924
      13     H     0.39866  0.39866  0.00000  0.20268
      14     O     4.17552  4.17552  0.00000 -0.35104
      15     O     4.17658  4.17658  0.00000 -0.35316

   Total alpha = 36.00000, Total beta = 36.00000, Total charge = -0.00000
