  ==> Input File <==

--------------------------------------------------------------------------
set {
	reference rhf
	basis 6-31G*
}

set_num_threads( 1 )
memory 2 gb

molecule MOL {
0 1

O	 1.093699	 1.434558	 -0.289579
C	 -0.046919	 1.321761	 0.024333
C	 -1.004892	 2.465356	 0.221371
O	 -0.632575	 0.154573	 0.251549
H	 -1.387302	 2.452177	 1.235539
H	 -0.498779	 3.399523	 0.028975
H	 -1.849247	 2.355319	 -0.449235
C	 0.160891	 -1.019931	 0.106212
C	 1.589627	 -0.672828	 0.480843
H	 0.089836	 -1.367806	 -0.916050
H	 -0.238459	 -1.792301	 0.749618
C	 2.246377	 0.346236	 -0.452210
H	 2.163194	 -1.597435	 0.473358
H	 1.604769	 -0.303424	 1.502885
C	 3.691736	 0.652107	 -0.061850
H	 2.219579	 -0.032311	 -1.472055
H	 1.666466	 1.263317	 -0.447249
H	 4.134505	 1.377213	 -0.737283
H	 4.305508	 -0.243868	 -0.089969
H	 3.748266	 1.059562	 0.943567

	symmetry c1
}
set optking {
	frozen_dihedral = ("
		16 12 9 8,
		12 9 8 10,
		1 2 4 8
	")
}

ee = energy('scf')
oeprop('DIPOLE', 'QUADRUPOLE', 'MULLIKEN_CHARGES')
f=open( 'psi4out.xyz', 'w' )
f.write( "20  " )
f.write( str(ee) + "\n" )
f.write( MOL.save_string_xyz() )
f.close()
--------------------------------------------------------------------------

    Molecular point group: c1

    Geometry (in Angstrom), charge = 0, multiplicity = 1:

       Center              X                  Y                   Z               Mass
    ------------   -----------------  -----------------  -----------------  -----------------
           O          0.205541031317     0.838851753457    -0.324421396749    15.994914619560
           C         -0.935076968683     0.726054753457    -0.010509396749    12.000000000000
           C         -1.893049968683     1.869649753457     0.186528603251    12.000000000000
           O         -1.520732968683    -0.441133246543     0.216706603251    15.994914619560
           H         -2.275459968683     1.856470753457     1.200696603251     1.007825032070
           H         -1.386936968683     2.803816753457    -0.005867396749     1.007825032070
           H         -2.737404968683     1.759612753457    -0.484077396749     1.007825032070
           C         -0.727266968683    -1.615637246543     0.071369603251    12.000000000000
           C          0.701469031317    -1.268534246543     0.446000603251    12.000000000000
           H         -0.798321968683    -1.963512246543    -0.950892396749     1.007825032070
           H         -1.126616968683    -2.388007246543     0.714775603251     1.007825032070
           C          1.358219031317    -0.249470246543    -0.487052396749    12.000000000000
           H          1.275036031317    -2.193141246543     0.438515603251     1.007825032070
           H          0.716611031317    -0.899130246543     1.468042603251     1.007825032070
           C          2.803578031317     0.056400753457    -0.096692396749    12.000000000000
           H          1.331421031317    -0.628017246543    -1.506897396749     1.007825032070
           H          0.778308031317     0.667610753457    -0.482091396749     1.007825032070
           H          3.246347031317     0.781506753457    -0.772125396749     1.007825032070
           H          3.417350031317    -0.839574246543    -0.124811396749     1.007825032070
           H          2.860108031317     0.463855753457     0.908724603251     1.007825032070

  Charge       = 0
  Multiplicity = 1
  Basis Set: 6-31G*
  Basis Set:

    Orbital Energies (a.u.)
    -----------------------

    Doubly Occupied:

       1A    -20.614413     2A    -20.606034     3A    -11.399019
       4A    -11.287893     5A    -11.248273     6A    -11.206819
       7A    -11.172348     8A    -11.128071     9A     -1.657505
      10A     -1.448110    11A     -1.197929    12A     -1.047323
      13A     -1.011016    14A     -0.951138    15A     -0.885500
      16A     -0.767618    17A     -0.747997    18A     -0.727340
      19A     -0.698872    20A     -0.640249    21A     -0.626585
      22A     -0.598000    23A     -0.579185    24A     -0.573200
      25A     -0.546178    26A     -0.529244    27A     -0.513913
      28A     -0.499470    29A     -0.479681    30A     -0.441855
      31A     -0.428832    32A     -0.123126

  @DF-RHF Final Energy:  -383.06918061369339

   => Energetics <=

    Nuclear Repulsion Energy =            428.9492026989691453
    One-Electron Energy =               -1371.2713911643595566
    Two-Electron Energy =                 559.2530078516963385
    DFT Exchange-Correlation Energy =       0.0000000000000000
    Empirical Dispersion Energy =           0.0000000000000000
    PCM Polarization Energy =               0.0000000000000000
    EFP Energy =                            0.0000000000000000
    Total Energy =                       -383.0691806136940158

  Mulliken Charges: (a.u.)
   Center  Symbol    Alpha    Beta     Spin     Total
       1     O     4.02884  4.02884  0.00000 -0.05767
       2     C     2.67212  2.67212  0.00000  0.65576
       3     C     3.26425  3.26425  0.00000 -0.52851
       4     O     4.30142  4.30142  0.00000 -0.60284
       5     H     0.40523  0.40523  0.00000  0.18953
       6     H     0.40169  0.40169  0.00000  0.19662
       7     H     0.39345  0.39345  0.00000  0.21310
       8     C     3.00744  3.00744  0.00000 -0.01488
       9     C     3.18657  3.18657  0.00000 -0.37314
      10     H     0.41212  0.41212  0.00000  0.17576
      11     H     0.40405  0.40405  0.00000  0.19190
      12     C     3.29065  3.29065  0.00000 -0.58130
      13     H     0.41737  0.41737  0.00000  0.16526
      14     H     0.42186  0.42186  0.00000  0.15628
      15     C     3.21071  3.21071  0.00000 -0.42142
      16     H     0.42371  0.42371  0.00000  0.15258
      17     H     0.43973  0.43973  0.00000  0.12054
      18     H     0.43341  0.43341  0.00000  0.13317
      19     H     0.44607  0.44607  0.00000  0.10786
      20     H     0.43930  0.43930  0.00000  0.12139

   Total alpha = 32.00000, Total beta = 32.00000, Total charge =  0.00000
