  ==> Input File <==

--------------------------------------------------------------------------
set {
	reference rhf
	basis cc-pvtz
}

set_num_threads( 4 )
memory 2 gb

molecule MOL {
0 1

H	 2.363916	 -1.175128	 -0.162137
O	 1.675515	 -0.612943	 -0.465627
C	 1.135873	 0.113391	 0.608264
C	 0.027642	 1.012027	 0.090274
H	 1.902972	 0.727968	 1.072615
H	 0.756163	 -0.561896	 1.370018
C	 -1.138737	 0.285728	 -0.581921
H	 0.464661	 1.708096	 -0.618252
H	 -0.340737	 1.603071	 0.925246
C	 -1.933983	 -0.631436	 0.343653
H	 -0.763151	 -0.285569	 -1.422081
H	 -1.808359	 1.035291	 -0.992333
H	 -2.789188	 -1.049673	 -0.174718
H	 -1.335629	 -1.461368	 0.700418
H	 -2.305435	 -0.092167	 1.209725

	symmetry c1
}
set optking {
	frozen_dihedral = ("
		1 2 3 4
	")
}

ee = optimize('scf')
oeprop('DIPOLE', 'QUADRUPOLE', 'MULLIKEN_CHARGES')
f=open( 'psi4out.xyz', 'w' )
f.write( "15  " )
f.write( str(ee) + "\n" )
f.write( MOL.save_string_xyz() )
f.close()
--------------------------------------------------------------------------

    Molecular point group: c1
  Charge       = 0
  Multiplicity = 1
  Basis Set: CC-PVTZ
  Basis Set:
  @DF-RHF Final Energy:  -232.23763935001358
    Total Energy =                       -232.2376393500136373
    Molecular point group: c1
  Basis Set: CC-PVTZ
  Basis Set:
  Charge       = 0
  Multiplicity = 1
  Basis Set: CC-PVTZ
  Basis Set:

    Orbital Energies (a.u.)
    -----------------------

    Doubly Occupied:

       1A    -20.546562     2A    -11.265376     3A    -11.210956
       4A    -11.207338     5A    -11.203090     6A     -1.364355
       7A     -1.065400     8A     -0.971635     9A     -0.869480
      10A     -0.775351    11A     -0.707098    12A     -0.650230
      13A     -0.609309    14A     -0.574665    15A     -0.566228
      16A     -0.533311    17A     -0.511079    18A     -0.475818
      19A     -0.467663    20A     -0.453099    21A     -0.433458

  @DF-RHF Final Energy:  -232.23763936049562

   => Energetics <=

    Nuclear Repulsion Energy =            191.9175004864432026
    One-Electron Energy =                -695.3872798292240986
    Two-Electron Energy =                 271.2321399822850481
    DFT Exchange-Correlation Energy =       0.0000000000000000
    Empirical Dispersion Energy =           0.0000000000000000
    PCM Polarization Energy =               0.0000000000000000
    EFP Energy =                            0.0000000000000000
    Total Energy =                       -232.2376393604958480
    Molecular point group: c1
  Basis Set: CC-PVTZ
  Basis Set:

  -Total Gradient:
     Atom            X                  Y                   Z
    ------   -----------------  -----------------  -----------------
       1        0.000018541379     0.000024917646    -0.000004822328
       2       -0.000038914001    -0.000043501252    -0.000012111937
       3        0.000005749846     0.000025114090     0.000007912130
       4        0.000013598610    -0.000004776704     0.000016189312
       5       -0.000003440315     0.000003926030     0.000004563816
       6        0.000002291074     0.000007598244    -0.000011336301
       7        0.000007176566     0.000002687429     0.000008710998
       8        0.000003264487    -0.000002889878     0.000004196580
       9       -0.000004431761    -0.000004960913     0.000003394423
      10       -0.000003701524    -0.000005785169    -0.000005153940
      11       -0.000000066534    -0.000013158728    -0.000001311061
      12        0.000005437300     0.000001666948    -0.000004164226
      13        0.000000938064     0.000001546001    -0.000000567089
      14       -0.000003686065     0.000004733643    -0.000005335315
      15       -0.000002757128     0.000002882611    -0.000000165063

  **** Optimization is complete! (in 2 steps) ****
    Final optimized geometry and variables:
    Molecular point group: c1

    Geometry (in Angstrom), charge = 0, multiplicity = 1:

    H            2.363910171353    -1.174842190655    -0.164032055794
    O            1.675010364383    -0.612911447179    -0.466608864837
    C            1.136671186290     0.113379104070     0.607922219109
    C            0.027532934599     1.011665954894     0.091418851261
    H            1.904085071302     0.728205874690     1.071410054317
    H            0.758057820116    -0.562043539854     1.370072810237
    C           -1.138234801499     0.285168461437    -0.581545800557
    H            0.463839511742     1.708972752455    -0.616288649846
    H           -0.341246929257     1.601262927881     0.927209413925
    C           -1.934903240615    -0.630908441412     0.343764661693
    H           -0.761827617993    -0.287071952550    -1.420664368664
    H           -1.807064386362     1.034573193904    -0.993483997049
    H           -2.788471972613    -1.050829708478    -0.175892814191
    H           -1.336652661765    -1.459608828414     0.703478061860
    H           -2.308909845831    -0.090321151226     1.207897808168

  Mulliken Charges: (a.u.)
   Center  Symbol    Alpha    Beta     Spin     Total
       1     H     0.39555  0.39555  0.00000  0.20890
       2     O     4.19919  4.19919  0.00000 -0.39838
       3     C     2.97592  2.97592  0.00000  0.04817
       4     C     3.09480  3.09480  0.00000 -0.18959
       5     H     0.46322  0.46322  0.00000  0.07355
       6     H     0.47235  0.47235  0.00000  0.05530
       7     C     3.08593  3.08593  0.00000 -0.17187
       8     H     0.44852  0.44852  0.00000  0.10295
       9     H     0.45466  0.45466  0.00000  0.09068
      10     C     3.15498  3.15498  0.00000 -0.30996
      11     H     0.44650  0.44650  0.00000  0.10701
      12     H     0.45100  0.45100  0.00000  0.09800
      13     H     0.44668  0.44668  0.00000  0.10664
      14     H     0.45365  0.45365  0.00000  0.09269
      15     H     0.45705  0.45705  0.00000  0.08590

   Total alpha = 21.00000, Total beta = 21.00000, Total charge = -0.00000
