                              Psi4 1.0.54 Driver

  ==> Input File <==

--------------------------------------------------------------------------
set {
	reference rhf
	basis cc-pvtz
}

set_num_threads( 4 )
memory 2 gb

molecule MOL {
0 1

H	 -3.436473	 1.252944	 -1.023892
O	 -3.458596	 0.315260	 -0.960865
C	 -3.176635	 -0.080824	 0.355601
C	 -1.763371	 0.265266	 0.799691
H	 -3.321825	 -1.153438	 0.379502
H	 -3.895468	 0.357385	 1.043382
C	 -1.184805	 -0.701880	 1.828385
H	 -1.116655	 0.300793	 -0.075729
H	 -1.775349	 1.272818	 1.208449
C	 0.245096	 -0.359033	 2.238034
H	 -1.217370	 -1.709673	 1.429377
H	 -1.821590	 -0.702788	 2.709867
C	 0.816420	 -1.327847	 3.271493
H	 0.872562	 -0.349568	 1.351983
H	 0.272710	 0.650789	 2.642205
C	 2.218575	 -0.979776	 3.774140
H	 0.825241	 -2.332332	 2.854623
H	 0.143959	 -1.361134	 4.124316
C	 3.318264	 -1.081999	 2.719920
H	 2.463085	 -1.645425	 4.596272
H	 2.211131	 0.024246	 4.190439
H	 3.345712	 -2.074453	 2.281334
H	 4.290595	 -0.889098	 3.158787
H	 3.177696	 -0.369286	 1.916250

	symmetry c1
}
set optking {
	frozen_dihedral = ("
		7 4 3 2
	")
}

ee,wfn = optimize('scf', return_wfn=True)
oeprop( wfn, 'DIPOLE', 'QUADRUPOLE', 'MULLIKEN_CHARGES')
f=open( 'psi4out.xyz', 'w' )
f.write( "24  " )
f.write( str(ee) + "\n" )
f.write( MOL.save_string_xyz() )
f.close()
--------------------------------------------------------------------------

    Molecular point group: c1
  Charge       = 0
  Multiplicity = 1
  Basis Set: CC-PVTZ
  Basis Set:
  @DF-RHF Final Energy:  -349.37754306705568
    Total Energy =                       -349.3775430670559672
    Molecular point group: c1
  Basis Set: CC-PVTZ
  Basis Set:
  Basis Set: CC-PVTZ
  Basis Set:
  @DF-RHF Final Energy:  -349.37789959544637
    Total Energy =                       -349.3778995954459106
  Basis Set: CC-PVTZ
  Basis Set:
  Basis Set: CC-PVTZ
  Basis Set:
  @DF-RHF Final Energy:  -349.37805081043030
    Total Energy =                       -349.3780508104304658
  Basis Set: CC-PVTZ
  Basis Set:
  Basis Set: CC-PVTZ
  Basis Set:
  @DF-RHF Final Energy:  -349.37805262157610
    Total Energy =                       -349.3780526215761597
  Basis Set: CC-PVTZ
  Basis Set:
  Charge       = 0
  Multiplicity = 1
  Basis Set: CC-PVTZ
  Basis Set:

    Orbital Energies (a.u.)
    -----------------------

    Doubly Occupied:

       1A    -20.545382     2A    -11.264515     3A    -11.215986
       4A    -11.213830     5A    -11.213042     6A    -11.212789
       7A    -11.211922     8A    -11.206384     9A     -1.362787
      10A     -1.092878    11A     -1.051314    12A     -0.986587
      13A     -0.914805    14A     -0.851374    15A     -0.805280
      16A     -0.778841    17A     -0.694455    18A     -0.648576
      19A     -0.627336    20A     -0.610841    21A     -0.601999
      22A     -0.589629    23A     -0.563567    24A     -0.532864
      25A     -0.522102    26A     -0.518033    27A     -0.487432
      28A     -0.481001    29A     -0.467533    30A     -0.462767
      31A     -0.461034    32A     -0.454166    33A     -0.421149

  @DF-RHF Final Energy:  -349.37805356749629

   => Energetics <=

    Nuclear Repulsion Energy =            380.4733869500574883
    One-Electron Energy =               -1227.5584823033973407
    Two-Electron Energy =                 497.7070417858437850
    DFT Exchange-Correlation Energy =       0.0000000000000000
    Empirical Dispersion Energy =           0.0000000000000000
    PCM Polarization Energy =               0.0000000000000000
    EFP Energy =                            0.0000000000000000
    Total Energy =                       -349.3780535674960674
    Molecular point group: c1
  Basis Set: CC-PVTZ
  Basis Set:

  -Total Gradient:
     Atom            X                  Y                   Z
    ------   -----------------  -----------------  -----------------
       1       -0.000001128786    -0.000010457552    -0.000005781078
       2        0.001149203870    -0.003181751243    -0.001279311745
       3       -0.001088693875     0.003629468675     0.000816318210
       4       -0.001169918292     0.001468067768     0.003042212174
       5        0.000003334174    -0.000009073535    -0.000002296937
       6       -0.000021320028    -0.000004070545    -0.000024575734
       7        0.001159451676    -0.001840759277    -0.002523887164
       8       -0.000008438876    -0.000007196146     0.000025352695
       9       -0.000012881598    -0.000035717287    -0.000016517653
      10        0.000023915641     0.000014551834    -0.000013382240
      11       -0.000019877960    -0.000008695264    -0.000003740890
      12        0.000012782938    -0.000007778092     0.000003430299
      13        0.000004496559    -0.000035340300    -0.000006714313
      14       -0.000040244619    -0.000007582066     0.000002335787
      15        0.000006014257     0.000011721486    -0.000007469877
      16       -0.000027803340     0.000073228005     0.000004169657
      17        0.000007142421     0.000005785066    -0.000011544239
      18        0.000007639968    -0.000025554708     0.000007040057
      19        0.000017072915    -0.000018504145    -0.000029949593
      20       -0.000034716893     0.000007920876     0.000009462429
      21       -0.000004663795     0.000004624725     0.000002175577
      22        0.000010712237     0.000005404697    -0.000013269328
      23       -0.000005844190    -0.000014037708     0.000001265894
      24        0.000033765593    -0.000014255264     0.000024678008

  **** Optimization is complete! (in 5 steps) ****
    Final optimized geometry and variables:
    Molecular point group: c1

    Geometry (in Angstrom), charge = 0, multiplicity = 1:

    H           -3.065943989649     1.758444597386    -2.674068530121
    O           -3.077844267600     0.819691085783    -2.625162626262
    C           -2.765262001625     0.398869013965    -1.323880953149
    C           -1.336247544614     0.740776334331    -0.907325221726
    H           -2.891298945730    -0.675923910078    -1.337035279052
    H           -3.480704976619     0.795125820192    -0.607623815966
    C           -0.748911571169    -0.255970489529     0.088528205888
    H           -0.726278653100     0.740724258706    -1.805054365261
    H           -1.293846861686     1.747641680611    -0.499314411471
    C            0.660694610467     0.107885823696     0.546779518160
    H           -0.736252064758    -1.241224720020    -0.369438449818
    H           -1.398347921401    -0.333147320861     0.958196126657
    C            1.252800178560    -0.909737563155     1.519883853038
    H            1.298940605109     0.203671792051    -0.325944959399
    H            0.642115167239     1.086591655097     1.020952691282
    C            2.630231133372    -0.542615265842     2.074720620179
    H            1.311362747186    -1.880433599281     1.032727382816
    H            0.567438901125    -1.031442388149     2.354332360774
    C            3.752308510973    -0.527970193357     1.039327990652
    H            2.886119483821    -1.253926809851     2.853985694907
    H            2.574121068835     0.428726824194     2.559188951010
    H            3.826500151723    -1.484660859778     0.532153939579
    H            4.708002712317    -0.330886864130     1.511475073802
    H            3.599367175511     0.234651267337     0.285352974098

  Mulliken Charges: (a.u.)
   Center  Symbol    Alpha    Beta     Spin     Total
       1     H     0.39517  0.39517  0.00000  0.20966
       2     O     4.20074  4.20074  0.00000 -0.40147
       3     C     2.96636  2.96636  0.00000  0.06727
       4     C     3.10082  3.10082  0.00000 -0.20165
       5     H     0.45916  0.45916  0.00000  0.08168
       6     H     0.46831  0.46831  0.00000  0.06337
       7     C     3.09737  3.09737  0.00000 -0.19474
       8     H     0.44970  0.44970  0.00000  0.10060
       9     H     0.45813  0.45813  0.00000  0.08375
      10     C     3.09253  3.09253  0.00000 -0.18507
      11     H     0.45153  0.45153  0.00000  0.09694
      12     H     0.45416  0.45416  0.00000  0.09169
      13     C     3.09490  3.09490  0.00000 -0.18980
      14     H     0.45147  0.45147  0.00000  0.09706
      15     H     0.45470  0.45470  0.00000  0.09059
      16     C     3.09047  3.09047  0.00000 -0.18094
      17     H     0.45370  0.45370  0.00000  0.09261
      18     H     0.44999  0.44999  0.00000  0.10002
      19     C     3.15234  3.15234  0.00000 -0.30468
      20     H     0.44842  0.44842  0.00000  0.10316
      21     H     0.45505  0.45505  0.00000  0.08989
      22     H     0.45470  0.45470  0.00000  0.09060
      23     H     0.44651  0.44651  0.00000  0.10698
      24     H     0.45376  0.45376  0.00000  0.09249

   Total alpha = 33.00000, Total beta = 33.00000, Total charge =  0.00000

*** Psi4 exiting successfully. Buy a developer a beer!
