                              Psi4 1.0.54 Driver

  ==> Input File <==

--------------------------------------------------------------------------
set {
	reference rhf
	basis cc-pvtz
}

set_num_threads( 4 )
memory 2 gb

molecule MOL {
0 1

H	 -1.752232	 -2.214755	 -0.011938
C	 -1.343852	 -1.221619	 -0.018179
N	 -0.058800	 -1.097635	 -0.261688
C	 -2.148159	 -0.124236	 0.219734
C	 0.449026	 0.119242	 -0.273393
H	 -3.196988	 -0.237571	 0.417076
N	 -1.655094	 1.094230	 0.209506
C	 -0.370318	 1.215445	 -0.035100
C	 1.924033	 0.265863	 -0.538106
H	 0.033214	 2.210441	 -0.046812
C	 2.431133	 -0.707301	 -1.603587
H	 2.109460	 1.282849	 -0.862325
H	 2.471326	 0.117979	 0.385374
H	 3.486519	 -0.548694	 -1.790505
H	 1.895875	 -0.566786	 -2.533498
H	 2.296622	 -1.735930	 -1.288348

	symmetry c1
}
set optking {
	frozen_dihedral = ("
		12 9 5 3
	")
}

ee,wfn = optimize('scf', return_wfn=True)
oeprop( wfn, 'DIPOLE', 'QUADRUPOLE', 'MULLIKEN_CHARGES')
f=open( 'psi4out.xyz', 'w' )
f.write( "16  " )
f.write( str(ee) + "\n" )
f.write( MOL.save_string_xyz() )
f.close()
--------------------------------------------------------------------------

    Molecular point group: c1
  Charge       = 0
  Multiplicity = 1
  Basis Set: CC-PVTZ
  Basis Set:
  @DF-RHF Final Energy:  -340.87124643285694
    Total Energy =                       -340.8712464328568785
    Molecular point group: c1
  Basis Set: CC-PVTZ
  Basis Set:
  Basis Set: CC-PVTZ
  Basis Set:
  @DF-RHF Final Energy:  -340.87147444250894
    Total Energy =                       -340.8714744425089975
  Basis Set: CC-PVTZ
  Basis Set:
  Basis Set: CC-PVTZ
  Basis Set:
  @DF-RHF Final Energy:  -340.87150538926761
    Total Energy =                       -340.8715053892677815
  Basis Set: CC-PVTZ
  Basis Set:
  Basis Set: CC-PVTZ
  Basis Set:
  @DF-RHF Final Energy:  -340.87151188462173
    Total Energy =                       -340.8715118846215546
  Basis Set: CC-PVTZ
  Basis Set:
  Basis Set: CC-PVTZ
  Basis Set:
  @DF-RHF Final Energy:  -340.87151515500369
    Total Energy =                       -340.8715151550030669
  Basis Set: CC-PVTZ
  Basis Set:
  Charge       = 0
  Multiplicity = 1
  Basis Set: CC-PVTZ
  Basis Set:

    Orbital Energies (a.u.)
    -----------------------

    Doubly Occupied:

       1A    -15.580584     2A    -15.575547     3A    -11.279484
       4A    -11.272171     5A    -11.268560     6A    -11.267387
       7A    -11.232778     8A    -11.212129     9A     -1.316143
      10A     -1.224159    11A     -1.085139    12A     -1.014990
      13A     -0.910391    14A     -0.892077    15A     -0.826644
      16A     -0.720279    17A     -0.710393    18A     -0.659053
      19A     -0.624496    20A     -0.603725    21A     -0.574417
      22A     -0.561613    23A     -0.523139    24A     -0.504538
      25A     -0.501921    26A     -0.488073    27A     -0.434015
      28A     -0.397287    29A     -0.346555

  @DF-RHF Final Energy:  -340.87151603150909

   => Energetics <=

    Nuclear Repulsion Energy =            350.4340240274823941
    One-Electron Energy =               -1155.3957147381211144
    Two-Electron Energy =                 464.0901746791296887
    DFT Exchange-Correlation Energy =       0.0000000000000000
    Empirical Dispersion Energy =           0.0000000000000000
    PCM Polarization Energy =               0.0000000000000000
    EFP Energy =                            0.0000000000000000
    Total Energy =                       -340.8715160315090884
    Molecular point group: c1
  Basis Set: CC-PVTZ
  Basis Set:

  -Total Gradient:
     Atom            X                  Y                   Z
    ------   -----------------  -----------------  -----------------
       1       -0.000038849763     0.000013195831    -0.000023278010
       2       -0.000017626355    -0.000043036553     0.000078898152
       3       -0.000168186799     0.000105855738    -0.000829085703
       4       -0.000018834216     0.000037531992    -0.000019488834
       5        0.000203158706    -0.000033634065     0.000855819410
       6        0.000007397849    -0.000018852167     0.000015028019
       7       -0.000064730933    -0.000048198784    -0.000007273696
       8        0.000028508446    -0.000023621197     0.000004515721
       9        0.000101938314     0.000165425397     0.000777364067
      10       -0.000006669837    -0.000029438520     0.000019228988
      11        0.000022481940     0.000224311712    -0.000014175969
      12       -0.000107546143    -0.000270289091    -0.000913197365
      13        0.000059936087     0.000029487134    -0.000001945330
      14       -0.000031584631    -0.000055598204    -0.000034974319
      15        0.000024857837    -0.000025856402     0.000058129558
      16        0.000005749501    -0.000027282820     0.000034435312

  **** Optimization is complete! (in 6 steps) ****
    Final optimized geometry and variables:
    Molecular point group: c1

    Geometry (in Angstrom), charge = 0, multiplicity = 1:

    H           -1.803479285036    -2.079582913895     0.293479066002
    C           -1.353577559349    -1.104718399003     0.290289631959
    N           -0.064803417676    -1.034718196373     0.030496562395
    C           -2.104925896846     0.021646306769     0.546259005987
    C            0.496286098502     0.154942970075     0.023306303760
    H           -3.154879412186    -0.046252090010     0.756968340377
    N           -1.557993532455     1.219823976241     0.536812092840
    C           -0.275115141419     1.285964606247     0.277070609569
    C            1.977912284046     0.264294965181    -0.244441558175
    H            0.171581843218     2.262458325917     0.264341524712
    C            2.497311989335    -0.722475011110    -1.285665480019
    H            2.198789635725     1.277017422644    -0.561097159379
    H            2.505976964659     0.111499843061     0.692508882420
    H            3.561113373684    -0.581007716537    -1.434407141140
    H            2.001946078524    -0.578532550684    -2.238829636378
    H            2.327294755744    -1.742739355504    -0.973804436372

  Mulliken Charges: (a.u.)
   Center  Symbol    Alpha    Beta     Spin     Total
       1     H     0.41450  0.41450  0.00000  0.17100
       2     C     3.04345  3.04345  0.00000 -0.08691
       3     N     3.59208  3.59208  0.00000 -0.18416
       4     C     3.04772  3.04772  0.00000 -0.09544
       5     C     2.94364  2.94364  0.00000  0.11273
       6     H     0.41367  0.41367  0.00000  0.17266
       7     N     3.58673  3.58673  0.00000 -0.17347
       8     C     3.07714  3.07714  0.00000 -0.15428
       9     C     3.07646  3.07646  0.00000 -0.15292
      10     H     0.41660  0.41660  0.00000  0.16679
      11     C     3.14479  3.14479  0.00000 -0.28957
      12     H     0.44890  0.44890  0.00000  0.10220
      13     H     0.44730  0.44730  0.00000  0.10541
      14     H     0.45028  0.45028  0.00000  0.09944
      15     H     0.45353  0.45353  0.00000  0.09295
      16     H     0.44322  0.44322  0.00000  0.11357

   Total alpha = 29.00000, Total beta = 29.00000, Total charge = -0.00000

*** Psi4 exiting successfully. Buy a developer a beer!
