  ==> Input File <==

--------------------------------------------------------------------------
set {
	reference rhf
	basis 6-31G*
}

set_num_threads( 1 )
memory 2 gb

molecule MOL {
0 1

H	 -3.135461	 -1.215070	 0.001379
O	 -2.310168	 -0.871793	 -0.309793
C	 -2.026376	 0.340750	 0.341611
C	 -0.673256	 0.843270	 -0.132153
H	 -2.792215	 1.080697	 0.115987
H	 -2.013526	 0.200402	 1.421792
C	 0.486613	 -0.083066	 0.235839
H	 -0.715586	 0.970948	 -1.210718
H	 -0.508072	 1.829858	 0.297090
C	 1.845169	 0.453966	 -0.217745
H	 0.315038	 -1.059899	 -0.204471
H	 0.500862	 -0.228002	 1.315483
C	 3.004869	 -0.468915	 0.155159
H	 1.832597	 0.598420	 -1.296027
H	 2.011817	 1.436604	 0.219401
H	 2.884665	 -1.449684	 -0.295988
H	 3.954719	 -0.064095	 -0.180773
H	 3.066074	 -0.606567	 1.231178

	symmetry c1
}
set optking {
	frozen_dihedral = ("
		14 10 7 11,
		2 3 4 8,
		1 2 3 4
	")
}

ee = energy('scf')
oeprop('DIPOLE', 'QUADRUPOLE', 'MULLIKEN_CHARGES')
f=open( 'psi4out.xyz', 'w' )
f.write( "18  " )
f.write( str(ee) + "\n" )
f.write( MOL.save_string_xyz() )
f.close()
--------------------------------------------------------------------------

    Molecular point group: c1

    Geometry (in Angstrom), charge = 0, multiplicity = 1:

       Center              X                  Y                   Z               Mass
    ------------   -----------------  -----------------  -----------------  -----------------
           H         -3.137010145516    -1.221803033710    -0.010686318580     1.007825032070
           O         -2.311717145516    -0.878526033710    -0.321858318580    15.994914619560
           C         -2.027925145516     0.334016966290     0.329545681420    12.000000000000
           C         -0.674805145516     0.836536966290    -0.144218318580    12.000000000000
           H         -2.793764145516     1.073963966290     0.103921681420     1.007825032070
           H         -2.015075145516     0.193668966290     1.409726681420     1.007825032070
           C          0.485063854484    -0.089799033710     0.223773681420    12.000000000000
           H         -0.717135145516     0.964214966290    -1.222783318580     1.007825032070
           H         -0.509621145516     1.823124966290     0.285024681420     1.007825032070
           C          1.843619854484     0.447232966290    -0.229810318580    12.000000000000
           H          0.313488854484    -1.066632033710    -0.216536318580     1.007825032070
           H          0.499312854484    -0.234735033710     1.303417681420     1.007825032070
           C          3.003319854484    -0.475648033710     0.143093681420    12.000000000000
           H          1.831047854484     0.591686966290    -1.308092318580     1.007825032070
           H          2.010267854484     1.429870966290     0.207335681420     1.007825032070
           H          2.883115854484    -1.456417033710    -0.308053318580     1.007825032070
           H          3.953169854484    -0.070828033710    -0.192838318580     1.007825032070
           H          3.064524854484    -0.613300033710     1.219112681420     1.007825032070

  Charge       = 0
  Multiplicity = 1
  Basis Set: 6-31G*
  Basis Set:

    Orbital Energies (a.u.)
    -----------------------

    Doubly Occupied:

       1A    -20.553032     2A    -11.268037     3A    -11.211995
       4A    -11.210778     5A    -11.206428     6A    -11.204566
       7A     -1.359746     8A     -1.074781     9A     -1.008731
      10A     -0.913074    11A     -0.817649    12A     -0.783765
      13A     -0.704936    14A     -0.642138    15A     -0.625257
      16A     -0.579064    17A     -0.570937    18A     -0.558123
      19A     -0.522389    20A     -0.500864    21A     -0.487758
      22A     -0.467316    23A     -0.458292    24A     -0.448125
      25A     -0.428693

  @DF-RHF Final Energy:  -271.17994507730896

   => Energetics <=

    Nuclear Repulsion Energy =            249.0182035053319396
    One-Electron Energy =                -861.1834349789078260
    Two-Electron Energy =                 340.9852863962672131
    DFT Exchange-Correlation Energy =       0.0000000000000000
    Empirical Dispersion Energy =           0.0000000000000000
    PCM Polarization Energy =               0.0000000000000000
    EFP Energy =                            0.0000000000000000
    Total Energy =                       -271.1799450773086733

  Mulliken Charges: (a.u.)
   Center  Symbol    Alpha    Beta     Spin     Total
       1     H     0.28058  0.28058  0.00000  0.43883
       2     O     4.36967  4.36967  0.00000 -0.73934
       3     C     2.99729  2.99729  0.00000  0.00542
       4     C     3.16030  3.16030  0.00000 -0.32059
       5     H     0.42928  0.42928  0.00000  0.14143
       6     H     0.43261  0.43261  0.00000  0.13479
       7     C     3.15271  3.15271  0.00000 -0.30543
       8     H     0.41504  0.41504  0.00000  0.16993
       9     H     0.42421  0.42421  0.00000  0.15157
      10     C     3.15183  3.15183  0.00000 -0.30366
      11     H     0.40812  0.40812  0.00000  0.18376
      12     H     0.42767  0.42767  0.00000  0.14466
      13     C     3.23890  3.23890  0.00000 -0.47779
      14     H     0.42256  0.42256  0.00000  0.15488
      15     H     0.42532  0.42532  0.00000  0.14936
      16     H     0.42088  0.42088  0.00000  0.15823
      17     H     0.42036  0.42036  0.00000  0.15927
      18     H     0.42266  0.42266  0.00000  0.15468

   Total alpha = 25.00000, Total beta = 25.00000, Total charge =  0.00000
