  ==> Input File <==

--------------------------------------------------------------------------
set {
	reference rhf
	basis 6-31G*
}

set_num_threads( 1 )
memory 2 gb

molecule MOL {
0 1

H	 -4.031818	 -0.453427	 -0.000094
C	 -2.967712	 -0.297022	 -0.000064
C	 -2.458620	 0.992929	 0.000032
C	 -2.109895	 -1.385637	 -0.000122
H	 -3.124998	 1.836319	 0.000077
C	 -1.090278	 1.193236	 0.000070
H	 -2.506361	 -2.384847	 -0.000198
C	 -0.739812	 -1.187531	 -0.000085
H	 -0.678594	 2.184290	 0.000146
C	 -0.226438	 0.104061	 0.000012
H	 -0.072310	 -2.027032	 -0.000131
C	 1.239129	 0.373821	 0.000060
O	 1.558615	 1.505700	 0.609471
O	 2.048566	 -0.347053	 -0.493915
C	 2.934131	 1.841013	 0.656299
H	 3.491135	 1.080600	 1.183854
H	 2.989640	 2.780521	 1.183649
H	 3.332044	 1.946596	 -0.342418

	symmetry c1
}
set optking {
	frozen_dihedral = ("
		12 13 15 16,
		10 12 13 15
	")
}

ee = energy('scf')
oeprop('DIPOLE', 'QUADRUPOLE', 'MULLIKEN_CHARGES')
f=open( 'psi4out.xyz', 'w' )
f.write( "18  " )
f.write( str(ee) + "\n" )
f.write( MOL.save_string_xyz() )
f.close()
--------------------------------------------------------------------------

    Molecular point group: c1

    Geometry (in Angstrom), charge = 0, multiplicity = 1:

       Center              X                  Y                   Z               Mass
    ------------   -----------------  -----------------  -----------------  -----------------
           H         -3.973433487415    -0.770604398374    -0.086556712849     1.007825032070
           C         -2.909327487415    -0.614199398374    -0.086526712849    12.000000000000
           C         -2.400235487415     0.675751601626    -0.086430712849    12.000000000000
           C         -2.051510487415    -1.702814398374    -0.086584712849    12.000000000000
           H         -3.066613487415     1.519141601626    -0.086385712849     1.007825032070
           C         -1.031893487415     0.876058601626    -0.086392712849    12.000000000000
           H         -2.447976487415    -2.702024398374    -0.086660712849     1.007825032070
           C         -0.681427487415    -1.504708398374    -0.086547712849    12.000000000000
           H         -0.620209487415     1.867112601626    -0.086316712849     1.007825032070
           C         -0.168053487415    -0.213116398374    -0.086450712849    12.000000000000
           H         -0.013925487415    -2.344209398374    -0.086593712849     1.007825032070
           C          1.297513512585     0.056643601626    -0.086402712849    12.000000000000
           O          1.616999512585     1.188522601626     0.523008287151    15.994914619560
           O          2.106950512585    -0.664230398374    -0.580377712849    15.994914619560
           C          2.992515512585     1.523835601626     0.569836287151    12.000000000000
           H          3.549519512585     0.763422601626     1.097391287151     1.007825032070
           H          3.048024512585     2.463343601626     1.097186287151     1.007825032070
           H          3.390428512585     1.629418601626    -0.428880712849     1.007825032070

  Charge       = 0
  Multiplicity = 1
  Basis Set: 6-31G*
  Basis Set:

    Orbital Energies (a.u.)
    -----------------------

    Doubly Occupied:

       1A    -20.608657     2A    -20.544919     3A    -11.377932
       4A    -11.283443     5A    -11.247363     6A    -11.244747
       7A    -11.244295     8A    -11.242859     9A    -11.238340
      10A    -11.237852    11A     -1.473407    12A     -1.363739
      13A     -1.165987    14A     -1.049275    15A     -1.025435
      16A     -0.978278    17A     -0.860354    18A     -0.835923
      19A     -0.778343    20A     -0.739353    21A     -0.685133
      22A     -0.677720    23A     -0.672733    24A     -0.631446
      25A     -0.625432    26A     -0.598219    27A     -0.587122
      28A     -0.556815    29A     -0.531444    30A     -0.518819
      31A     -0.505274    32A     -0.499900    33A     -0.458165
      34A     -0.443001    35A     -0.343994    36A     -0.341919

  @DF-RHF Final Energy:  -457.34705415043783

   => Energetics <=

    Nuclear Repulsion Energy =            492.9031254132661957
    One-Electron Energy =               -1600.0650081783344376
    Two-Electron Energy =                 649.8148286146314376
    DFT Exchange-Correlation Energy =       0.0000000000000000
    Empirical Dispersion Energy =           0.0000000000000000
    PCM Polarization Energy =               0.0000000000000000
    EFP Energy =                            0.0000000000000000
    Total Energy =                       -457.3470541504367475

  Mulliken Charges: (a.u.)
   Center  Symbol    Alpha    Beta     Spin     Total
       1     H     0.39565  0.39565  0.00000  0.20869
       2     C     3.09170  3.09170  0.00000 -0.18340
       3     C     3.10519  3.10519  0.00000 -0.21038
       4     C     3.10609  3.10609  0.00000 -0.21217
       5     H     0.39623  0.39623  0.00000  0.20755
       6     C     3.09078  3.09078  0.00000 -0.18156
       7     H     0.39517  0.39517  0.00000  0.20966
       8     C     3.08904  3.08904  0.00000 -0.17808
       9     H     0.38240  0.38240  0.00000  0.23520
      10     C     3.05149  3.05149  0.00000 -0.10298
      11     H     0.38153  0.38153  0.00000  0.23695
      12     C     2.60430  2.60430  0.00000  0.79140
      13     O     4.30751  4.30751  0.00000 -0.61502
      14     O     4.28753  4.28753  0.00000 -0.57507
      15     C     3.09298  3.09298  0.00000 -0.18597
      16     H     0.40725  0.40725  0.00000  0.18551
      17     H     0.40753  0.40753  0.00000  0.18494
      18     H     0.40764  0.40764  0.00000  0.18473

   Total alpha = 36.00000, Total beta = 36.00000, Total charge =  0.00000
