  ==> Input File <==

--------------------------------------------------------------------------
set {
	reference rhf
	basis 6-31G*
}

set_num_threads( 4 )
memory 2 gb

molecule MOL {
0 1

H	 3.729471	 -0.928294	 -0.070608
O	 2.826016	 -1.159218	 0.122261
C	 2.077727	 -0.067559	 -0.035091
C	 0.624473	 -0.343591	 0.253101
O	 2.542965	 0.974826	 -0.363729
C	 -0.265902	 0.883932	 0.072916
H	 0.324016	 -1.163849	 -0.390541
H	 0.565024	 -0.726111	 1.268924
C	 -1.728698	 0.646073	 0.462102
H	 -0.209144	 1.219470	 -0.958188
H	 0.135059	 1.692851	 0.673903
C	 -2.010206	 -0.707282	 1.120995
H	 -2.334201	 0.725760	 -0.437774
H	 -2.063654	 1.444913	 1.122265
C	 -3.497995	 -0.930459	 1.391467
H	 -1.636783	 -1.502614	 0.479086
H	 -1.465857	 -0.789128	 2.058208
H	 -3.672237	 -1.894200	 1.859608
H	 -4.072520	 -0.901003	 0.470119
H	 -3.895193	 -0.165150	 2.052354

	symmetry c1
}
set optking {
	frozen_dihedral = ("
		12 9 6 10
	")
}

ee = optimize('scf')
oeprop('DIPOLE', 'QUADRUPOLE', 'MULLIKEN_CHARGES')
f=open( 'psi4out.xyz', 'w' )
f.write( "20  " )
f.write( str(ee) + "\n" )
f.write( MOL.save_string_xyz() )
f.close()
--------------------------------------------------------------------------

    Molecular point group: c1
  Charge       = 0
  Multiplicity = 1
  Basis Set: 6-31G*
  Basis Set:
  @DF-RHF Final Energy:  -383.93832344920560
    Total Energy =                       -383.9383234492060524
    Molecular point group: c1
  Basis Set: 6-31G*
  Basis Set:
  Basis Set: 6-31G*
  Basis Set:
  @DF-RHF Final Energy:  -383.93850043447037
    Total Energy =                       -383.9385004344707681
  Basis Set: 6-31G*
  Basis Set:
  Basis Set: 6-31G*
  Basis Set:
  @DF-RHF Final Energy:  -383.94047629838252
    Total Energy =                       -383.9404762983822366
  Basis Set: 6-31G*
  Basis Set:
  Basis Set: 6-31G*
  Basis Set:
  @DF-RHF Final Energy:  -383.94057907697953
    Total Energy =                       -383.9405790769795317
  Basis Set: 6-31G*
  Basis Set:
  @DF-RHF Final Energy:  -383.94025336745852
    Total Energy =                       -383.9402533674586380
  @DF-RHF Final Energy:  -383.94055955291503
    Total Energy =                       -383.9405595529151469
  Basis Set: 6-31G*
  Basis Set:
  @DF-RHF Final Energy:  -383.94063184942610
    Total Energy =                       -383.9406318494261541
  Basis Set: 6-31G*
  Basis Set:
  Basis Set: 6-31G*
  Basis Set:
  @DF-RHF Final Energy:  -383.94063816950148
    Total Energy =                       -383.9406381695018808
  Basis Set: 6-31G*
  Basis Set:
  Basis Set: 6-31G*
  Basis Set:
  @DF-RHF Final Energy:  -383.94064107102599
    Total Energy =                       -383.9406410710258797
  Basis Set: 6-31G*
  Basis Set:
  Charge       = 0
  Multiplicity = 1
  Basis Set: 6-31G*
  Basis Set:

    Orbital Energies (a.u.)
    -----------------------

    Doubly Occupied:

       1A    -20.612212     2A    -20.551456     3A    -11.380851
       4A    -11.240037     5A    -11.223047     6A    -11.221655
       7A    -11.220360     8A    -11.212754     9A     -1.474341
      10A     -1.365383    11A     -1.092928    12A     -1.040665
      13A     -0.959526    14A     -0.870460    15A     -0.821725
      16A     -0.767423    17A     -0.699376    18A     -0.687979
      19A     -0.669938    20A     -0.637223    21A     -0.595298
      22A     -0.592950    23A     -0.580675    24A     -0.547537
      25A     -0.541986    26A     -0.518268    27A     -0.499543
      28A     -0.478727    29A     -0.470178    30A     -0.459489
      31A     -0.454247    32A     -0.443931

  @DF-RHF Final Energy:  -383.94064118699157

   => Energetics <=

    Nuclear Repulsion Energy =            376.7661997946166821
    One-Electron Energy =               -1269.5493391865327339
    Two-Electron Energy =                 508.8424982049240839
    DFT Exchange-Correlation Energy =       0.0000000000000000
    Empirical Dispersion Energy =           0.0000000000000000
    PCM Polarization Energy =               0.0000000000000000
    EFP Energy =                            0.0000000000000000
    Total Energy =                       -383.9406411869919680
    Molecular point group: c1
  Basis Set: 6-31G*
  Basis Set:

  -Total Gradient:
     Atom            X                  Y                   Z
    ------   -----------------  -----------------  -----------------
       1        0.000001465231    -0.000000382445     0.000001150258
       2        0.000001349311    -0.000002655179    -0.000008047406
       3       -0.000001235348     0.000002214776     0.000005264063
       4       -0.000007053398    -0.000007815802    -0.000021459816
       5        0.000000906751    -0.000000496588     0.000006637090
       6       -0.000468413625     0.002871298348     0.000140477779
       7        0.000000129166     0.000001404351     0.000011699108
       8        0.000006248364     0.000004192739     0.000008296131
       9        0.000475570560     0.000662036031     0.002596347424
      10        0.000270892044    -0.002657194948    -0.000828395501
      11       -0.000000648044    -0.000003355206    -0.000001076500
      12       -0.000280934582    -0.000871514421    -0.001917011428
      13        0.000000627494    -0.000002973666     0.000001918111
      14        0.000000743932     0.000003877710     0.000000267188
      15        0.000000917550     0.000003539380     0.000008063320
      16        0.000006816200    -0.000004304946    -0.000002398145
      17       -0.000007686020     0.000002014846    -0.000002357367
      18       -0.000000132513     0.000000219657     0.000000744104
      19        0.000004004624    -0.000001301686     0.000000031331
      20       -0.000003567707     0.000001197046    -0.000000149744

  **** Optimization is complete! (in 10 steps) ****
    Final optimized geometry and variables:
    Molecular point group: c1

    Geometry (in Angstrom), charge = 0, multiplicity = 1:

    H            3.688164934675    -0.715294360550    -0.527952055764
    O            2.805268701950    -0.981970905553    -0.291070787644
    C            2.002487260744     0.072378270753    -0.435409036707
    C            0.576973028451    -0.264233732340    -0.078030036291
    O            2.406878772278     1.127152101366    -0.802970777744
    C           -0.365107820402     0.929815193297    -0.242664222957
    H            0.284773653935    -1.101603166023    -0.703826804014
    H            0.588042188100    -0.642678435362     0.938692961751
    C           -1.858420447443     0.670349802518     0.096781440606
    H           -0.286698916297     1.257239022447    -1.272604787893
    H            0.015001663060     1.744678423396     0.361526201996
    C           -2.219000505948    -0.665313418709     0.757881768632
    H           -2.439774732860     0.748539445649    -0.818306508954
    H           -2.213159145318     1.473883146252     0.735893372676
    C           -3.718132881237    -0.775394740834     1.036251896936
    H           -1.916645734514    -1.492680458927     0.122202582002
    H           -1.677477139590    -0.780917765400     1.693648904987
    H           -3.961678965121    -1.725646816104     1.501072043844
    H           -4.294051670219    -0.698492154432     0.118394018040
    H           -4.052650401869     0.014607067327     1.702483827925

  Mulliken Charges: (a.u.)
   Center  Symbol    Alpha    Beta     Spin     Total
       1     H     0.26788  0.26788  0.00000  0.46424
       2     O     4.35179  4.35179  0.00000 -0.70359
       3     C     2.62200  2.62200  0.00000  0.75600
       4     C     3.21469  3.21469  0.00000 -0.42937
       5     O     4.27926  4.27926  0.00000 -0.55852
       6     C     3.15738  3.15738  0.00000 -0.31475
       7     H     0.39811  0.39811  0.00000  0.20378
       8     H     0.39729  0.39729  0.00000  0.20542
       9     C     3.15665  3.15665  0.00000 -0.31331
      10     H     0.40861  0.40861  0.00000  0.18278
      11     H     0.40833  0.40833  0.00000  0.18333
      12     C     3.15679  3.15679  0.00000 -0.31359
      13     H     0.41963  0.41963  0.00000  0.16075
      14     H     0.41805  0.41805  0.00000  0.16389
      15     C     3.23914  3.23914  0.00000 -0.47828
      16     H     0.42214  0.42214  0.00000  0.15572
      17     H     0.42255  0.42255  0.00000  0.15489
      18     H     0.41820  0.41820  0.00000  0.16360
      19     H     0.42086  0.42086  0.00000  0.15829
      20     H     0.42065  0.42065  0.00000  0.15870

   Total alpha = 32.00000, Total beta = 32.00000, Total charge = -0.00000
