  ==> Input File <==

--------------------------------------------------------------------------
set {
	reference rhf
	basis 6-31G*
}

set_num_threads( 4 )
memory 2 gb

molecule MOL {
0 1

H	 -1.288175	 -0.905739	 0.700122
N	 -1.172117	 -0.314371	 -0.100254
C	 -0.024542	 0.565565	 0.069209
H	 -1.037904	 -0.917685	 -0.889606
C	 1.271298	 -0.229563	 -0.014192
H	 -0.049409	 1.297310	 -0.731596
H	 -0.046881	 1.125219	 1.006750
H	 1.332152	 -0.753033	 -0.961461
H	 2.134169	 0.422483	 0.080702
H	 1.326077	 -0.968298	 0.781395

	symmetry c1
}
set optking {
	frozen_dihedral = ("
		1 2 3 6
	")
}

ee = optimize('scf')
oeprop('DIPOLE', 'QUADRUPOLE', 'MULLIKEN_CHARGES')
f=open( 'psi4out.xyz', 'w' )
f.write( "10  " )
f.write( str(ee) + "\n" )
f.write( MOL.save_string_xyz() )
f.close()
--------------------------------------------------------------------------

    Molecular point group: c1
  Charge       = 0
  Multiplicity = 1
  Basis Set: 6-31G*
  Basis Set:
  @DF-RHF Final Energy:  -134.24489455661353
    Total Energy =                       -134.2448945566134739
    Molecular point group: c1
  Basis Set: 6-31G*
  Basis Set:
  Basis Set: 6-31G*
  Basis Set:
  @DF-RHF Final Energy:  -134.24712720489700
    Total Energy =                       -134.2471272048970263
  Basis Set: 6-31G*
  Basis Set:
  Basis Set: 6-31G*
  Basis Set:
  @DF-RHF Final Energy:  -134.24739659450324
    Total Energy =                       -134.2473965945032148
  Basis Set: 6-31G*
  Basis Set:
  Basis Set: 6-31G*
  Basis Set:
  @DF-RHF Final Energy:  -134.24740052316645
    Total Energy =                       -134.2474005231665330
  Basis Set: 6-31G*
  Basis Set:
  Charge       = 0
  Multiplicity = 1
  Basis Set: 6-31G*
  Basis Set:

    Orbital Energies (a.u.)
    -----------------------

    Doubly Occupied:

       1A    -15.532981     2A    -11.242717     3A    -11.211101
       4A     -1.176768     5A     -0.987800     6A     -0.832302
       7A     -0.674459     8A     -0.599173     9A     -0.573674
      10A     -0.561423    11A     -0.507528    12A     -0.483295
      13A     -0.380169

  @DF-RHF Final Energy:  -134.24740074300749

   => Energetics <=

    Nuclear Repulsion Energy =             83.1787033346743385
    One-Electron Energy =                -345.3254282809834876
    Two-Electron Energy =                 127.8993242033016742
    DFT Exchange-Correlation Energy =       0.0000000000000000
    Empirical Dispersion Energy =           0.0000000000000000
    PCM Polarization Energy =               0.0000000000000000
    EFP Energy =                            0.0000000000000000
    Total Energy =                       -134.2474007430075176
    Molecular point group: c1
  Basis Set: 6-31G*
  Basis Set:

  -Total Gradient:
     Atom            X                  Y                   Z
    ------   -----------------  -----------------  -----------------
       1       -0.000692142197     0.000904953759     0.000603073043
       2        0.000685306214    -0.000986299131    -0.000608264944
       3        0.000577750946    -0.000668527822    -0.000744182399
       4        0.000006254097    -0.000000381335     0.000011250906
       5       -0.000017568149     0.000001036731     0.000005643377
       6       -0.000579051485     0.000721252591     0.000718316250
       7        0.000018846937     0.000010100149     0.000009925030
       8       -0.000008676905     0.000010493660     0.000014510014
       9        0.000010578401     0.000005249844     0.000001619607
      10       -0.000001297859     0.000002121554    -0.000011890885

  **** Optimization is complete! (in 5 steps) ****
    Final optimized geometry and variables:
    Molecular point group: c1

    Geometry (in Angstrom), charge = 0, multiplicity = 1:

    H           -1.332669813886    -0.870834250707     0.728984819114
    N           -1.231523293055    -0.266590168922    -0.063629769146
    C           -0.037411142801     0.554311030737     0.060438274644
    H           -1.185807541010    -0.848291259476    -0.878326767296
    C            1.290414214675    -0.200977776216     0.005405171822
    H           -0.066825091029     1.306995760787    -0.721074846632
    H           -0.110015880683     1.094772680103     0.998869472763
    H            1.399299986018    -0.728554327093    -0.938790492599
    H            2.133119287560     0.477453610901     0.105607309909
    H            1.354822133389    -0.934523559252     0.804838167728

  Mulliken Charges: (a.u.)
   Center  Symbol    Alpha    Beta     Spin     Total
       1     H     0.33488  0.33488  0.00000  0.33024
       2     N     3.91673  3.91673  0.00000 -0.83346
       3     C     3.06419  3.06419  0.00000 -0.12837
       4     H     0.33518  0.33518  0.00000  0.32964
       5     C     3.24376  3.24376  0.00000 -0.48752
       6     H     0.41767  0.41767  0.00000  0.16466
       7     H     0.41880  0.41880  0.00000  0.16240
       8     H     0.42407  0.42407  0.00000  0.15186
       9     H     0.42072  0.42072  0.00000  0.15856
      10     H     0.42401  0.42401  0.00000  0.15197

   Total alpha = 13.00000, Total beta = 13.00000, Total charge =  0.00000
