  ==> Input File <==

--------------------------------------------------------------------------
set {
	reference rhf
	basis 6-31G*
}

set_num_threads( 4 )
memory 2 gb

molecule MOL {
0 1

H	 3.306779	 1.332375	 -0.036821
O	 2.382423	 1.215268	 0.159667
C	 2.077727	 -0.067559	 -0.035091
C	 0.624473	 -0.343591	 0.253101
O	 2.885955	 -0.861213	 -0.392719
C	 -0.265902	 0.883932	 0.072916
H	 0.324016	 -1.163849	 -0.390541
H	 0.565024	 -0.726111	 1.268924
C	 -1.728698	 0.646073	 0.462102
H	 -0.209144	 1.219470	 -0.958188
H	 0.135059	 1.692851	 0.673903
C	 -2.482460	 -0.343073	 -0.431425
H	 -2.245265	 1.602650	 0.432430
H	 -1.779332	 0.308348	 1.496285
C	 -3.960546	 -0.461025	 -0.060175
H	 -2.395034	 -0.026811	 -1.468912
H	 -2.024850	 -1.327147	 -0.371646
H	 -4.472726	 -1.168004	 -0.705284
H	 -4.465146	 0.496508	 -0.151489
H	 -4.081218	 -0.800940	 0.964585

	symmetry c1
}
set optking {
	frozen_dihedral = ("
		5 3 4 7
	")
}

ee = optimize('scf')
oeprop('DIPOLE', 'QUADRUPOLE', 'MULLIKEN_CHARGES')
f=open( 'psi4out.xyz', 'w' )
f.write( "20  " )
f.write( str(ee) + "\n" )
f.write( MOL.save_string_xyz() )
f.close()
--------------------------------------------------------------------------

    Molecular point group: c1
  Charge       = 0
  Multiplicity = 1
  Basis Set: 6-31G*
  Basis Set:
  @DF-RHF Final Energy:  -383.94525294761883
    Total Energy =                       -383.9452529476188261
    Molecular point group: c1
  Basis Set: 6-31G*
  Basis Set:
  Basis Set: 6-31G*
  Basis Set:
  @DF-RHF Final Energy:  -383.94491099865525
    Total Energy =                       -383.9449109986551321
  Basis Set: 6-31G*
  Basis Set:
  Basis Set: 6-31G*
  Basis Set:
  @DF-RHF Final Energy:  -383.94556011851256
    Total Energy =                       -383.9455601185125033
  Basis Set: 6-31G*
  Basis Set:
  Basis Set: 6-31G*
  Basis Set:
  @DF-RHF Final Energy:  -383.94633588637515
    Total Energy =                       -383.9463358863749249
  Basis Set: 6-31G*
  Basis Set:
  Basis Set: 6-31G*
  Basis Set:
  @DF-RHF Final Energy:  -383.94635551852878
    Total Energy =                       -383.9463555185286623
  Basis Set: 6-31G*
  Basis Set:
  Basis Set: 6-31G*
  Basis Set:
  @DF-RHF Final Energy:  -383.94634756643615
    Total Energy =                       -383.9463475664361454
  Basis Set: 6-31G*
  Basis Set:
  Basis Set: 6-31G*
  Basis Set:
  @DF-RHF Final Energy:  -383.94636307332706
    Total Energy =                       -383.9463630733269497
  Basis Set: 6-31G*
  Basis Set:
  Charge       = 0
  Multiplicity = 1
  Basis Set: 6-31G*
  Basis Set:

    Orbital Energies (a.u.)
    -----------------------

    Doubly Occupied:

       1A    -20.614562     2A    -20.547717     3A    -11.381042
       4A    -11.240126     5A    -11.227707     6A    -11.222921
       7A    -11.221339     8A    -11.213207     9A     -1.475183
      10A     -1.363959    11A     -1.098140    12A     -1.041442
      13A     -0.959610    14A     -0.862048    15A     -0.826090
      16A     -0.791292    17A     -0.699584    18A     -0.683320
      19A     -0.655226    20A     -0.635848    21A     -0.606804
      22A     -0.591550    23A     -0.577338    24A     -0.552196
      25A     -0.542759    26A     -0.519706    27A     -0.502386
      28A     -0.482620    29A     -0.474835    30A     -0.467342
      31A     -0.458582    32A     -0.433702

  @DF-RHF Final Energy:  -383.94636289316645

   => Energetics <=

    Nuclear Repulsion Energy =            376.3255625286026316
    One-Electron Energy =               -1268.6034859211315506
    Two-Electron Energy =                 508.3315604993624675
    DFT Exchange-Correlation Energy =       0.0000000000000000
    Empirical Dispersion Energy =           0.0000000000000000
    PCM Polarization Energy =               0.0000000000000000
    EFP Energy =                            0.0000000000000000
    Total Energy =                       -383.9463628931664516
    Molecular point group: c1
  Basis Set: 6-31G*
  Basis Set:

  -Total Gradient:
     Atom            X                  Y                   Z
    ------   -----------------  -----------------  -----------------
       1       -0.000024510160    -0.000035178816     0.000007479177
       2       -0.000000441299     0.000094946770     0.000007143604
       3       -0.000357315180     0.000326665066    -0.001653791040
       4        0.000405647725    -0.000795297484     0.001337584819
       5        0.000232825549    -0.000207070476     0.001018065117
       6       -0.000014730733     0.000025936888     0.000068643246
       7       -0.000250662145     0.000621283351    -0.000739522309
       8       -0.000000998938    -0.000017747073     0.000001490104
       9        0.000028206750    -0.000027262539     0.000011338485
      10        0.000000411669    -0.000016599419    -0.000010957656
      11       -0.000035715586     0.000003462231    -0.000001431574
      12       -0.000022297564     0.000041919140    -0.000041392011
      13        0.000039402923     0.000006447019    -0.000014641053
      14       -0.000004271388     0.000010016164     0.000011401597
      15        0.000008214392    -0.000032031497     0.000013750127
      16       -0.000016497206     0.000004825437    -0.000019205845
      17        0.000008820354     0.000001953262     0.000000352641
      18        0.000001348905    -0.000011440646     0.000009320551
      19        0.000006569226    -0.000004087671    -0.000013649519
      20       -0.000004007296     0.000009260292     0.000008021539

  **** Optimization is complete! (in 8 steps) ****
    Final optimized geometry and variables:
    Molecular point group: c1

    Geometry (in Angstrom), charge = 0, multiplicity = 1:

    H            3.431192210858     1.134277904541    -0.080210386190
    O            2.500139417019     1.099570655651     0.117580556669
    C            2.096557918337    -0.158062077862    -0.047144891259
    C            0.638797797812    -0.378580429273     0.279158306396
    O            2.845249110141    -1.018572219282    -0.381736659388
    C           -0.274801902421     0.836484224906     0.094156364336
    H            0.322685582855    -1.215421550024    -0.328961461626
    H            0.608269497494    -0.713452316613     1.314056105035
    C           -1.735234643265     0.563418524030     0.471305331904
    H           -0.224770494475     1.173508739232    -0.938386116828
    H            0.098482772698     1.653547209502     0.700215276079
    C           -2.467297366341    -0.424248496472    -0.441728406991
    H           -2.269525120778     1.510580015041     0.455432903692
    H           -1.782410731771     0.208066356507     1.499677442829
    C           -3.942230767453    -0.580911958029    -0.072265672040
    H           -2.387535105775    -0.085479606883    -1.472711652176
    H           -1.989021495158    -1.399051225027    -0.402016266681
    H           -4.438809287997    -1.287332450085    -0.729928253059
    H           -4.467962734287     0.366737964548    -0.146334213514
    H           -4.054887743847    -0.941903482238     0.946155578725

  Mulliken Charges: (a.u.)
   Center  Symbol    Alpha    Beta     Spin     Total
       1     H     0.26725  0.26725  0.00000  0.46549
       2     O     4.34776  4.34776  0.00000 -0.69551
       3     C     2.62242  2.62242  0.00000  0.75516
       4     C     3.21359  3.21359  0.00000 -0.42718
       5     O     4.28237  4.28237  0.00000 -0.56475
       6     C     3.15825  3.15825  0.00000 -0.31650
       7     H     0.39393  0.39393  0.00000  0.21215
       8     H     0.39882  0.39882  0.00000  0.20236
       9     C     3.15564  3.15564  0.00000 -0.31127
      10     H     0.41673  0.41673  0.00000  0.16655
      11     H     0.40560  0.40560  0.00000  0.18881
      12     C     3.15500  3.15500  0.00000 -0.31000
      13     H     0.41802  0.41802  0.00000  0.16396
      14     H     0.42287  0.42287  0.00000  0.15426
      15     C     3.23941  3.23941  0.00000 -0.47882
      16     H     0.42161  0.42161  0.00000  0.15679
      17     H     0.42095  0.42095  0.00000  0.15810
      18     H     0.41775  0.41775  0.00000  0.16450
      19     H     0.42097  0.42097  0.00000  0.15807
      20     H     0.42107  0.42107  0.00000  0.15786

   Total alpha = 32.00000, Total beta = 32.00000, Total charge =  0.00000
