  ==> Input File <==

--------------------------------------------------------------------------
set {
	reference rhf
	basis cc-pvtz
}

set_num_threads( 4 )
memory 2 gb

molecule MOL {
0 1

H	 -2.698799	 -0.000846	 0.036018
C	 -1.694291	 -0.000483	 0.434279
O	 -0.828718	 -0.000608	 -0.655022
H	 -1.576855	 0.881100	 1.056504
H	 -1.576401	 -0.881658	 1.057001
C	 0.557892	 0.000078	 -0.420099
C	 1.003948	 -1.164830	 0.456426
C	 1.369792	 0.100611	 -1.706552
H	 0.713430	 0.913379	 0.140532
H	 0.383082	 -1.229941	 1.341493
H	 2.030404	 -1.015968	 0.771027
H	 0.957299	 -2.112829	 -0.066741
H	 1.002700	 0.913118	 -2.321466
H	 2.409585	 0.295366	 -1.470598
H	 1.332756	 -0.813762	 -2.287148

	symmetry c1
}
set optking {
	frozen_dihedral = ("
		9 6 3 2
	")
}

ee = optimize('scf')
oeprop('DIPOLE', 'QUADRUPOLE', 'MULLIKEN_CHARGES')
f=open( 'psi4out.xyz', 'w' )
f.write( "15  " )
f.write( str(ee) + "\n" )
f.write( MOL.save_string_xyz() )
f.close()
--------------------------------------------------------------------------

    Molecular point group: c1
  Charge       = 0
  Multiplicity = 1
  Basis Set: CC-PVTZ
  Basis Set:
  @DF-RHF Final Energy:  -232.22430695449924
    Total Energy =                       -232.2243069544993546
    Molecular point group: c1
  Basis Set: CC-PVTZ
  Basis Set:
  Basis Set: CC-PVTZ
  Basis Set:
  @DF-RHF Final Energy:  -232.22840188142411
    Total Energy =                       -232.2284018814243609
  Basis Set: CC-PVTZ
  Basis Set:
  Basis Set: CC-PVTZ
  Basis Set:
  @DF-RHF Final Energy:  -232.22949304052383
    Total Energy =                       -232.2294930405237210
  Basis Set: CC-PVTZ
  Basis Set:
  Basis Set: CC-PVTZ
  Basis Set:
  @DF-RHF Final Energy:  -232.22952814067736
    Total Energy =                       -232.2295281406778145
  Basis Set: CC-PVTZ
  Basis Set:
  Basis Set: CC-PVTZ
  Basis Set:
  @DF-RHF Final Energy:  -232.22953289528994
    Total Energy =                       -232.2295328952899922
  Basis Set: CC-PVTZ
  Basis Set:
  Charge       = 0
  Multiplicity = 1
  Basis Set: CC-PVTZ
  Basis Set:

    Orbital Energies (a.u.)
    -----------------------

    Doubly Occupied:

       1A    -20.544245     2A    -11.272982     3A    -11.260246
       4A    -11.209073     5A    -11.204140     6A     -1.378023
       7A     -1.053800     8A     -0.945577     9A     -0.914510
      10A     -0.791514    11A     -0.676360    12A     -0.640503
      13A     -0.636737    14A     -0.592316    15A     -0.550598
      16A     -0.543028    17A     -0.527406    18A     -0.498199
      19A     -0.494046    20A     -0.453602    21A     -0.411876

  @DF-RHF Final Energy:  -232.22953370732009

   => Energetics <=

    Nuclear Repulsion Energy =            197.9784356053731074
    One-Electron Energy =                -707.2183759035387993
    Two-Electron Energy =                 277.0104065908458892
    DFT Exchange-Correlation Energy =       0.0000000000000000
    Empirical Dispersion Energy =           0.0000000000000000
    PCM Polarization Energy =               0.0000000000000000
    EFP Energy =                            0.0000000000000000
    Total Energy =                       -232.2295337073198311
    Molecular point group: c1
  Basis Set: CC-PVTZ
  Basis Set:

  -Total Gradient:
     Atom            X                  Y                   Z
    ------   -----------------  -----------------  -----------------
       1       -0.000013971460     0.000002549799     0.000019760376
       2       -0.000001152544    -0.001615255427     0.000064260237
       3       -0.000099841501     0.002571789066    -0.000454489740
       4       -0.000000997181    -0.000004255519    -0.000004055681
       5       -0.000001433903     0.000005589417    -0.000010742013
       6       -0.000432851850    -0.001879342659     0.001989127800
       7        0.000085002189     0.000016947268     0.000044752268
       8        0.000122377274     0.000025934768     0.000025295027
       9        0.000376669283     0.000900541684    -0.001672007819
      10        0.000005081921     0.000004380883     0.000004245370
      11       -0.000008693347    -0.000025960743     0.000003753881
      12       -0.000001050936     0.000008825738    -0.000009733983
      13       -0.000004880498     0.000008500038     0.000012664393
      14       -0.000018327550    -0.000014516997    -0.000014902811
      15       -0.000005929901    -0.000005727316     0.000002072697

  **** Optimization is complete! (in 6 steps) ****
    Final optimized geometry and variables:
    Molecular point group: c1

    Geometry (in Angstrom), charge = 0, multiplicity = 1:

    H           -2.753444849876     0.320158221945     0.297481821651
    C           -1.769971220313     0.178302134087     0.722554041909
    O           -0.860102976033     0.171261145709    -0.327652393862
    H           -1.573687596254     0.993065475250     1.417084207218
    H           -1.768423456913    -0.754676139755     1.276679520198
    C            0.500131507645     0.252869123768     0.005068273444
    C            0.974210340612    -0.913567788741     0.863418264132
    C            1.256701152555     0.325536695278    -1.309578477569
    H            0.668429628765     1.185097250006     0.545623270666
    H            0.499424050020    -0.925424958180     1.836100272506
    H            2.043612090783    -0.843032980042     1.023524645245
    H            0.764046625595    -1.855310281863     0.368435461734
    H            0.894930114959     1.154534082085    -1.903818918926
    H            2.317490664996     0.461734515859    -1.134702588357
    H            1.114764075776    -0.586480658909    -1.877647458335

  Mulliken Charges: (a.u.)
   Center  Symbol    Alpha    Beta     Spin     Total
       1     H     0.44368  0.44368  0.00000  0.11264
       2     C     3.04023  3.04023  0.00000 -0.08046
       3     O     4.18100  4.18100  0.00000 -0.36200
       4     H     0.47170  0.47170  0.00000  0.05660
       5     H     0.46793  0.46793  0.00000  0.06413
       6     C     2.92285  2.92285  0.00000  0.15430
       7     C     3.15807  3.15807  0.00000 -0.31613
       8     C     3.14100  3.14100  0.00000 -0.28201
       9     H     0.46525  0.46525  0.00000  0.06949
      10     H     0.45025  0.45025  0.00000  0.09949
      11     H     0.44891  0.44891  0.00000  0.10218
      12     H     0.45007  0.45007  0.00000  0.09986
      13     H     0.44667  0.44667  0.00000  0.10667
      14     H     0.45886  0.45886  0.00000  0.08228
      15     H     0.45353  0.45353  0.00000  0.09293

   Total alpha = 21.00000, Total beta = 21.00000, Total charge =  0.00000
