                              Psi4 1.0.54 Driver

  ==> Input File <==

--------------------------------------------------------------------------
set {
	reference rhf
	basis cc-pvtz
}

set_num_threads( 4 )
memory 2 gb

molecule MOL {
0 1

H	 2.776080	 0.771054	 0.290211
N	 2.326826	 -0.066186	 0.000000
C	 0.934676	 -0.005420	 0.000000
H	 2.724293	 -0.415390	 -0.840892
C	 0.226436	 -0.001077	 -1.195129
C	 0.226436	 -0.001077	 1.195129
H	 0.759091	 -0.011439	 -2.128123
C	 -1.153391	 0.009141	 -1.189028
H	 0.759091	 -0.011439	 2.128123
C	 -1.153391	 0.009141	 1.189028
H	 -1.680905	 0.012964	 -2.124348
C	 -1.857876	 0.014675	 0.000000
H	 -1.680905	 0.012964	 2.124348
H	 -2.930222	 0.022904	 0.000000

	symmetry c1
}
set optking {
	frozen_dihedral = ("
		1 2 3 5
	")
}

ee,wfn = optimize('scf', return_wfn=True)
oeprop( wfn, 'DIPOLE', 'QUADRUPOLE', 'MULLIKEN_CHARGES')
f=open( 'psi4out.xyz', 'w' )
f.write( "14  " )
f.write( str(ee) + "\n" )
f.write( MOL.save_string_xyz() )
f.close()
--------------------------------------------------------------------------

    Molecular point group: c1
  Charge       = 0
  Multiplicity = 1
  Basis Set: CC-PVTZ
  Basis Set:
  @DF-RHF Final Energy:  -285.82923319876954
    Total Energy =                       -285.8292331987694865
    Molecular point group: c1
  Basis Set: CC-PVTZ
  Basis Set:
  Basis Set: CC-PVTZ
  Basis Set:
  @DF-RHF Final Energy:  -285.83036499655185
    Total Energy =                       -285.8303649965519071
  Basis Set: CC-PVTZ
  Basis Set:
  Basis Set: CC-PVTZ
  Basis Set:
  @DF-RHF Final Energy:  -285.83057247029842
    Total Energy =                       -285.8305724702983071
  Basis Set: CC-PVTZ
  Basis Set:
  Basis Set: CC-PVTZ
  Basis Set:
  @DF-RHF Final Energy:  -285.83058920920854
    Total Energy =                       -285.8305892092081422
  Basis Set: CC-PVTZ
  Basis Set:
  Charge       = 0
  Multiplicity = 1
  Basis Set: CC-PVTZ
  Basis Set:

    Orbital Energies (a.u.)
    -----------------------

    Doubly Occupied:

       1A    -15.550389     2A    -11.265666     3A    -11.228386
       4A    -11.227539     5A    -11.220810     6A    -11.218061
       7A    -11.217671     8A     -1.219246     9A     -1.132043
      10A     -1.015287    11A     -0.989615    12A     -0.832365
      13A     -0.812128    14A     -0.706818    15A     -0.676796
      16A     -0.651334    17A     -0.613869    18A     -0.594814
      19A     -0.584647    20A     -0.518240    21A     -0.505837
      22A     -0.491615    23A     -0.437821    24A     -0.336823
      25A     -0.309626

  @DF-RHF Final Energy:  -285.83059063122943

   => Energetics <=

    Nuclear Repulsion Energy =            273.3657087248618041
    One-Electron Energy =                -927.6776995594736945
    Two-Electron Energy =                 368.4814002033823499
    DFT Exchange-Correlation Energy =       0.0000000000000000
    Empirical Dispersion Energy =           0.0000000000000000
    PCM Polarization Energy =               0.0000000000000000
    EFP Energy =                            0.0000000000000000
    Total Energy =                       -285.8305906312294837
    Molecular point group: c1
  Basis Set: CC-PVTZ
  Basis Set:

  -Total Gradient:
     Atom            X                  Y                   Z
    ------   -----------------  -----------------  -----------------
       1        0.000123854922     0.001213857960    -0.003222210769
       2       -0.000107897081    -0.000176536504     0.003941260275
       3       -0.000122304639    -0.003745732643    -0.000573566376
       4       -0.000030990794     0.000036598610     0.000098758699
       5       -0.000106116635     0.002721245936    -0.000131882983
       6        0.000210679475    -0.000029346350    -0.000109166506
       7        0.000007201110    -0.000005167128     0.000002204087
       8        0.000210472360    -0.000070084329    -0.000098339308
       9       -0.000004247988     0.000012871424     0.000022174387
      10       -0.000177828815    -0.000024755620    -0.000135136115
      11       -0.000012040972     0.000014724415     0.000010298817
      12       -0.000008926821     0.000053696411     0.000221600766
      13        0.000021744335    -0.000002404794    -0.000002334312
      14       -0.000003598458     0.000001032612    -0.000023660665

  **** Optimization is complete! (in 5 steps) ****
    Final optimized geometry and variables:
    Molecular point group: c1

    Geometry (in Angstrom), charge = 0, multiplicity = 1:

    H            2.735748163128     0.778312955948     0.351316740901
    N            2.342129037413    -0.080115878877     0.029402284459
    C            0.929170211859    -0.035254640512    -0.003267479268
    H            2.725896987878    -0.272594439941    -0.869596433398
    C            0.220779687291    -0.016895208389    -1.194021848554
    C            0.228051246864    -0.004872951034     1.193802744376
    H            0.750837581651    -0.026653199956    -2.128646695657
    C           -1.161773237849     0.008713842730    -1.187478992943
    H            0.772428516036    -0.032470387957     2.118364452946
    C           -1.150611021145     0.044829718025     1.194772326849
    H           -1.693961386533     0.012925613768    -2.119940041821
    C           -1.856249857738     0.046279194353     0.004706480089
    H           -1.677106837944     0.069651091310     2.130116945405
    H           -2.928615542260     0.074374716088     0.008493814957

  Mulliken Charges: (a.u.)
   Center  Symbol    Alpha    Beta     Spin     Total
       1     H     0.41966  0.41966  0.00000  0.16067
       2     N     3.68779  3.68779  0.00000 -0.37559
       3     C     2.88743  2.88743  0.00000  0.22513
       4     H     0.42615  0.42615  0.00000  0.14769
       5     C     3.11573  3.11573  0.00000 -0.23146
       6     C     3.11264  3.11264  0.00000 -0.22528
       7     H     0.43223  0.43223  0.00000  0.13554
       8     C     3.06636  3.06636  0.00000 -0.13272
       9     H     0.42325  0.42325  0.00000  0.15349
      10     C     3.06210  3.06210  0.00000 -0.12420
      11     H     0.42407  0.42407  0.00000  0.15186
      12     C     3.09431  3.09431  0.00000 -0.18861
      13     H     0.42387  0.42387  0.00000  0.15226
      14     H     0.42440  0.42440  0.00000  0.15120

   Total alpha = 25.00000, Total beta = 25.00000, Total charge = -0.00000

*** Psi4 exiting successfully. Buy a developer a beer!
