  ==> Input File <==

--------------------------------------------------------------------------
set {
	reference rhf
	basis 6-31G*
}

set_num_threads( 1 )
memory 2 gb

molecule MOL {
0 1

H	 2.057977	 -1.467519	 -0.019329
O	 1.380667	 -0.887924	 -0.337150
C	 1.135793	 0.118896	 0.612333
C	 0.031547	 1.023609	 0.088541
H	 2.034069	 0.710272	 0.780449
H	 0.853005	 -0.317990	 1.567457
C	 -1.134819	 0.293262	 -0.585751
H	 0.474374	 1.714721	 -0.623187
H	 -0.338529	 1.620940	 0.920081
C	 -1.917817	 -0.639439	 0.339494
H	 -0.758119	 -0.268455	 -1.433105
H	 -1.813832	 1.041889	 -0.986690
H	 -2.777680	 -1.057197	 -0.174994
H	 -1.310268	 -1.471279	 0.680599
H	 -2.283753	 -0.111424	 1.216626

	symmetry c1
}
set optking {
	frozen_dihedral = ("
		8 4 7 11,
		1 2 3 4
	")
}

ee = energy('scf')
oeprop('DIPOLE', 'QUADRUPOLE', 'MULLIKEN_CHARGES')
f=open( 'psi4out.xyz', 'w' )
f.write( "15  " )
f.write( str(ee) + "\n" )
f.write( MOL.save_string_xyz() )
f.close()
--------------------------------------------------------------------------

    Molecular point group: c1

    Geometry (in Angstrom), charge = 0, multiplicity = 1:

       Center              X                  Y                   Z               Mass
    ------------   -----------------  -----------------  -----------------  -----------------
           H          2.117821660480    -1.410152856160    -0.046406437176     1.007825032070
           O          1.440511660480    -0.830557856160    -0.364227437176    15.994914619560
           C          1.195637660480     0.176262143840     0.585255562824    12.000000000000
           C          0.091391660480     1.080975143840     0.061463562824    12.000000000000
           H          2.093913660480     0.767638143840     0.753371562824     1.007825032070
           H          0.912849660480    -0.260623856160     1.540379562824     1.007825032070
           C         -1.074974339520     0.350628143840    -0.612828437176    12.000000000000
           H          0.534218660480     1.772087143840    -0.650264437176     1.007825032070
           H         -0.278684339520     1.678306143840     0.893003562824     1.007825032070
           C         -1.857972339520    -0.582072856160     0.312416562824    12.000000000000
           H         -0.698274339520    -0.211088856160    -1.460182437176     1.007825032070
           H         -1.753987339520     1.099255143840    -1.013767437176     1.007825032070
           H         -2.717835339520    -0.999830856160    -0.202071437176     1.007825032070
           H         -1.250423339520    -1.413912856160     0.653521562824     1.007825032070
           H         -2.223908339520    -0.054057856160     1.189548562824     1.007825032070

  Charge       = 0
  Multiplicity = 1
  Basis Set: 6-31G*
  Basis Set:

    Orbital Energies (a.u.)
    -----------------------

    Doubly Occupied:

       1A    -20.554219     2A    -11.267746     3A    -11.211933
       4A    -11.206290     5A    -11.201118     6A     -1.361013
       7A     -1.061432     8A     -0.969315     9A     -0.866561
      10A     -0.772361    11A     -0.704367    12A     -0.650008
      13A     -0.606179    14A     -0.568698    15A     -0.563591
      16A     -0.529626    17A     -0.507422    18A     -0.473611
      19A     -0.462636    20A     -0.451681    21A     -0.429990

  @DF-RHF Final Energy:  -232.14237546005282

   => Energetics <=

    Nuclear Repulsion Energy =            193.2167420269915681
    One-Electron Energy =                -697.8787133660030122
    Two-Electron Energy =                 272.5195958789582846
    DFT Exchange-Correlation Energy =       0.0000000000000000
    Empirical Dispersion Energy =           0.0000000000000000
    PCM Polarization Energy =               0.0000000000000000
    EFP Energy =                            0.0000000000000000
    Total Energy =                       -232.1423754600531311

  Mulliken Charges: (a.u.)
   Center  Symbol    Alpha    Beta     Spin     Total
       1     H     0.28042  0.28042  0.00000  0.43917
       2     O     4.37019  4.37019  0.00000 -0.74038
       3     C     2.99745  2.99745  0.00000  0.00510
       4     C     3.16439  3.16439  0.00000 -0.32879
       5     H     0.42863  0.42863  0.00000  0.14274
       6     H     0.43085  0.43085  0.00000  0.13830
       7     C     3.15011  3.15011  0.00000 -0.30022
       8     H     0.41712  0.41712  0.00000  0.16577
       9     H     0.42386  0.42386  0.00000  0.15227
      10     C     3.24298  3.24298  0.00000 -0.48596
      11     H     0.40595  0.40595  0.00000  0.18810
      12     H     0.42447  0.42447  0.00000  0.15106
      13     H     0.42029  0.42029  0.00000  0.15941
      14     H     0.41684  0.41684  0.00000  0.16632
      15     H     0.42645  0.42645  0.00000  0.14711

   Total alpha = 21.00000, Total beta = 21.00000, Total charge = -0.00000
