  ==> Input File <==

--------------------------------------------------------------------------
set {
	reference rhf
	basis 6-31G*
}

set_num_threads( 1 )
memory 2 gb

molecule MOL {
0 1

H	 -4.031818	 -0.453427	 -0.000094
C	 -2.967712	 -0.297022	 -0.000064
C	 -2.458620	 0.992929	 0.000032
C	 -2.109895	 -1.385637	 -0.000122
H	 -3.124998	 1.836319	 0.000077
C	 -1.090278	 1.193236	 0.000070
H	 -2.506361	 -2.384847	 -0.000198
C	 -0.739812	 -1.187531	 -0.000085
H	 -0.678594	 2.184290	 0.000146
C	 -0.226438	 0.104061	 0.000012
H	 -0.072310	 -2.027032	 -0.000131
C	 1.239129	 0.373821	 0.000060
O	 1.532419	 1.648091	 0.211771
O	 2.069802	 -0.462480	 -0.171528
C	 2.905921	 1.994349	 0.228153
H	 3.420989	 1.461720	 1.014158
H	 2.938769	 3.057034	 0.411115
H	 3.366015	 1.762103	 -0.721212

	symmetry c1
}
set optking {
	frozen_dihedral = ("
		12 13 15 16,
		10 12 13 15
	")
}

ee = energy('scf')
oeprop('DIPOLE', 'QUADRUPOLE', 'MULLIKEN_CHARGES')
f=open( 'psi4out.xyz', 'w' )
f.write( "18  " )
f.write( str(ee) + "\n" )
f.write( MOL.save_string_xyz() )
f.close()
--------------------------------------------------------------------------

    Molecular point group: c1

    Geometry (in Angstrom), charge = 0, multiplicity = 1:

       Center              X                  Y                   Z               Mass
    ------------   -----------------  -----------------  -----------------  -----------------
           H         -3.969717405930    -0.790803679075    -0.030153912190     1.007825032070
           C         -2.905611405930    -0.634398679075    -0.030123912190    12.000000000000
           C         -2.396519405930     0.655552320925    -0.030027912190    12.000000000000
           C         -2.047794405930    -1.723013679075    -0.030181912190    12.000000000000
           H         -3.062897405930     1.498942320925    -0.029982912190     1.007825032070
           C         -1.028177405930     0.855859320925    -0.029989912190    12.000000000000
           H         -2.444260405930    -2.722223679075    -0.030257912190     1.007825032070
           C         -0.677711405930    -1.524907679075    -0.030144912190    12.000000000000
           H         -0.616493405930     1.846913320925    -0.029913912190     1.007825032070
           C         -0.164337405930    -0.233315679075    -0.030047912190    12.000000000000
           H         -0.010209405930    -2.364408679075    -0.030190912190     1.007825032070
           C          1.301229594070     0.036444320925    -0.029999912190    12.000000000000
           O          1.594519594070     1.310714320925     0.181711087810    15.994914619560
           O          2.131902594070    -0.799856679075    -0.201587912190    15.994914619560
           C          2.968021594070     1.656972320925     0.198093087810    12.000000000000
           H          3.483089594070     1.124343320925     0.984098087810     1.007825032070
           H          3.000869594070     2.719657320925     0.381055087810     1.007825032070
           H          3.428115594070     1.424726320925    -0.751271912190     1.007825032070

  Charge       = 0
  Multiplicity = 1
  Basis Set: 6-31G*
  Basis Set:

    Orbital Energies (a.u.)
    -----------------------

    Doubly Occupied:

       1A    -20.608171     2A    -20.543883     3A    -11.377540
       4A    -11.283589     5A    -11.245813     6A    -11.245133
       7A    -11.244151     8A    -11.241753     9A    -11.237602
      10A    -11.236931    11A     -1.473226    12A     -1.363451
      13A     -1.165518    14A     -1.049133    15A     -1.024803
      16A     -0.977910    17A     -0.860067    18A     -0.834614
      19A     -0.777899    20A     -0.740387    21A     -0.684507
      22A     -0.677984    23A     -0.670986    24A     -0.632114
      25A     -0.623267    26A     -0.598523    27A     -0.584704
      28A     -0.560727    29A     -0.529740    30A     -0.519552
      31A     -0.503605    32A     -0.497887    33A     -0.459124
      34A     -0.442445    35A     -0.344662    36A     -0.341215

  @DF-RHF Final Energy:  -457.34895379981077

   => Energetics <=

    Nuclear Repulsion Energy =            493.3186860475551043
    One-Electron Energy =               -1600.9301950185526948
    Two-Electron Energy =                 650.2625551711875005
    DFT Exchange-Correlation Energy =       0.0000000000000000
    Empirical Dispersion Energy =           0.0000000000000000
    PCM Polarization Energy =               0.0000000000000000
    EFP Energy =                            0.0000000000000000
    Total Energy =                       -457.3489537998101468

  Mulliken Charges: (a.u.)
   Center  Symbol    Alpha    Beta     Spin     Total
       1     H     0.39546  0.39546  0.00000  0.20908
       2     C     3.09024  3.09024  0.00000 -0.18047
       3     C     3.10612  3.10612  0.00000 -0.21224
       4     C     3.10759  3.10759  0.00000 -0.21517
       5     H     0.39645  0.39645  0.00000  0.20710
       6     C     3.08857  3.08857  0.00000 -0.17714
       7     H     0.39522  0.39522  0.00000  0.20956
       8     C     3.08587  3.08587  0.00000 -0.17175
       9     H     0.37775  0.37775  0.00000  0.24450
      10     C     3.07490  3.07490  0.00000 -0.14981
      11     H     0.37881  0.37881  0.00000  0.24238
      12     C     2.58266  2.58266  0.00000  0.83468
      13     O     4.31496  4.31496  0.00000 -0.62991
      14     O     4.29090  4.29090  0.00000 -0.58179
      15     C     3.09213  3.09213  0.00000 -0.18427
      16     H     0.40717  0.40717  0.00000  0.18567
      17     H     0.40793  0.40793  0.00000  0.18414
      18     H     0.40728  0.40728  0.00000  0.18544

   Total alpha = 36.00000, Total beta = 36.00000, Total charge = -0.00000
