  ==> Input File <==

--------------------------------------------------------------------------
set {
	reference rhf
	basis cc-pvtz
}

set_num_threads( 4 )
memory 2 gb

molecule MOL {
0 1

H	 3.889604	 0.356866	 -0.089510
N	 3.091268	 -0.241216	 -0.065538
C	 1.860978	 0.530248	 0.016256
H	 3.192566	 -0.835836	 0.730398
C	 0.644130	 -0.381765	 -0.031064
H	 1.835721	 1.204666	 -0.833114
H	 1.808789	 1.151975	 0.911067
C	 -0.678115	 0.376691	 0.025731
H	 0.693998	 -0.977147	 -0.936845
H	 0.693309	 -1.082142	 0.800523
C	 -1.777956	 -0.380490	 0.764804
H	 -1.012617	 0.592358	 -0.986470
H	 -0.524249	 1.340241	 0.506115
C	 -3.099923	 0.378241	 0.813820
H	 -1.932892	 -1.343671	 0.286714
H	 -1.447714	 -0.593915	 1.777801
H	 -3.474622	 0.576574	 -0.184931
H	 -3.857848	 -0.186435	 1.344571
H	 -2.985431	 1.332428	 1.317561

	symmetry c1
}
set optking {
	frozen_dihedral = ("
		12 8 5 9
	")
}

ee = optimize('scf')
oeprop('DIPOLE', 'QUADRUPOLE', 'MULLIKEN_CHARGES')
f=open( 'psi4out.xyz', 'w' )
f.write( "19  " )
f.write( str(ee) + "\n" )
f.write( MOL.save_string_xyz() )
f.close()
--------------------------------------------------------------------------

    Molecular point group: c1
  Charge       = 0
  Multiplicity = 1
  Basis Set: CC-PVTZ
  Basis Set:
  @DF-RHF Final Energy:  -251.44508913347235
    Total Energy =                       -251.4450891334724929
    Molecular point group: c1
  Basis Set: CC-PVTZ
  Basis Set:
  Basis Set: CC-PVTZ
  Basis Set:
  @DF-RHF Final Energy:  -251.44534699572114
    Total Energy =                       -251.4453469957213088
  Basis Set: CC-PVTZ
  Basis Set:
  Basis Set: CC-PVTZ
  Basis Set:
  @DF-RHF Final Energy:  -251.44539975891863
    Total Energy =                       -251.4453997589187679
  Basis Set: CC-PVTZ
  Basis Set:
  Charge       = 0
  Multiplicity = 1
  Basis Set: CC-PVTZ
  Basis Set:

    Orbital Energies (a.u.)
    -----------------------

    Doubly Occupied:

       1A    -15.526316     2A    -11.238000     3A    -11.212201
       4A    -11.210429     5A    -11.207571     6A    -11.205443
       7A     -1.178181     8A     -1.073432     9A     -0.999045
      10A     -0.900834    11A     -0.813859    12A     -0.789458
      13A     -0.664758    14A     -0.643269    15A     -0.615978
      16A     -0.594281    17A     -0.562428    18A     -0.548199
      19A     -0.536384    20A     -0.492169    21A     -0.486652
      22A     -0.465041    23A     -0.459423    24A     -0.448724
      25A     -0.383871

  @DF-RHF Final Energy:  -251.44540050758852

   => Energetics <=

    Nuclear Repulsion Energy =            246.1528537697364243
    One-Electron Energy =                -826.6846178676994441
    Two-Electron Energy =                 329.0863635903742761
    DFT Exchange-Correlation Energy =       0.0000000000000000
    Empirical Dispersion Energy =           0.0000000000000000
    PCM Polarization Energy =               0.0000000000000000
    EFP Energy =                            0.0000000000000000
    Total Energy =                       -251.4454005075887153
    Molecular point group: c1
  Basis Set: CC-PVTZ
  Basis Set:

  -Total Gradient:
     Atom            X                  Y                   Z
    ------   -----------------  -----------------  -----------------
       1        0.000000372533    -0.000004229062     0.000005922784
       2        0.000008303933    -0.000010251753     0.000026431060
       3       -0.000052982119     0.000042600590    -0.000030789524
       4        0.000025032219    -0.000003302315     0.000000743628
       5       -0.002650207766    -0.004621268803     0.002178227403
       6        0.000004003100     0.000002989745     0.000012954791
       7        0.000029084497     0.000055540618     0.000012477608
       8        0.002861428814     0.004859423803    -0.000360167985
       9        0.001665247493     0.003003490831    -0.001910124021
      10       -0.000042820334     0.000076764703     0.000005976330
      11        0.000053292259     0.000047070293     0.000153018431
      12       -0.001897835614    -0.003344257415    -0.000123841849
      13        0.000042773249    -0.000058399722     0.000065818959
      14       -0.000017224256    -0.000026236272    -0.000078375757
      15        0.000013941339    -0.000005100335     0.000021363873
      16       -0.000038201793    -0.000010181858     0.000041278877
      17       -0.000016294013     0.000027472410    -0.000008317085
      18        0.000003290960    -0.000012352866    -0.000023067595
      19        0.000008795499    -0.000019772594     0.000010470071

  **** Optimization is complete! (in 4 steps) ****
    Final optimized geometry and variables:
    Molecular point group: c1

    Geometry (in Angstrom), charge = 0, multiplicity = 1:

    H            3.853378877449     0.300318314111    -0.444734985211
    N            3.055184956043    -0.296741251882    -0.399267744391
    C            1.832425559162     0.472955309647    -0.237811511965
    H            3.192778143999    -0.913881028452     0.373862906320
    C            0.610215701710    -0.436659676794    -0.240357564096
    H            1.763152439765     1.165652074627    -1.070380471760
    H            1.826722185472     1.076047870286     0.671273911804
    C           -0.708890708734     0.342600931366    -0.182093676688
    H            0.654657359142    -1.030495465326    -1.146019229688
    H            0.678259640207    -1.121095328131     0.601167642788
    C           -1.830387987242    -0.422296106810     0.519502378538
    H           -1.037816339267     0.563652610509    -1.193311619336
    H           -0.561512938741     1.293943422698     0.321573085420
    C           -3.163057993637     0.318306228263     0.505168983888
    H           -1.951939407124    -1.392528880114     0.045073382745
    H           -1.539327094050    -0.621637562879     1.547326791002
    H           -3.500260266279     0.498394330016    -0.510246468263
    H           -3.934215080495    -0.249344749086     1.013308585143
    H           -3.081052402835     1.280734474147     0.999721474178

  Mulliken Charges: (a.u.)
   Center  Symbol    Alpha    Beta     Spin     Total
       1     H     0.43016  0.43016  0.00000  0.13967
       2     N     3.68983  3.68983  0.00000 -0.37967
       3     C     3.02450  3.02450  0.00000 -0.04899
       4     H     0.43105  0.43105  0.00000  0.13790
       5     C     3.08417  3.08417  0.00000 -0.16834
       6     H     0.45667  0.45667  0.00000  0.08666
       7     H     0.46931  0.46931  0.00000  0.06139
       8     C     3.09489  3.09489  0.00000 -0.18979
       9     H     0.44786  0.44786  0.00000  0.10428
      10     H     0.45972  0.45972  0.00000  0.08057
      11     C     3.08391  3.08391  0.00000 -0.16782
      12     H     0.45270  0.45270  0.00000  0.09459
      13     H     0.45675  0.45675  0.00000  0.08650
      14     C     3.14988  3.14988  0.00000 -0.29977
      15     H     0.45342  0.45342  0.00000  0.09317
      16     H     0.45582  0.45582  0.00000  0.08836
      17     H     0.45508  0.45508  0.00000  0.08985
      18     H     0.44871  0.44871  0.00000  0.10259
      19     H     0.45558  0.45558  0.00000  0.08885

   Total alpha = 25.00000, Total beta = 25.00000, Total charge = -0.00000
