  ==> Input File <==

--------------------------------------------------------------------------
set {
	reference rhf
	basis 6-31G*
}

set_num_threads( 4 )
memory 2 gb

molecule MOL {
0 1

O	 0.814526	 0.788799	 0.934468
C	 1.122059	 0.121804	 -0.000188
C	 0.395619	 0.074480	 -1.322285
O	 2.172624	 -0.688929	 0.000216
C	 -0.823751	 0.989612	 -1.377149
H	 1.114054	 0.329073	 -2.096744
H	 0.119547	 -0.960623	 -1.504219
C	 -1.540978	 0.922249	 -2.726376
H	 -0.515010	 2.010552	 -1.175000
H	 -1.510768	 0.719294	 -0.581259
C	 -2.764727	 1.835183	 -2.789587
H	 -0.847946	 1.193220	 -3.520326
H	 -1.845853	 -0.103237	 -2.925126
H	 -2.487634	 2.872974	 -2.628767
H	 -3.254441	 1.768825	 -3.756051
H	 -3.492924	 1.566864	 -2.029736
C	 3.452279	 -0.082609	 0.000533
H	 3.583069	 0.529321	 -0.880332
H	 4.163299	 -0.894027	 0.001117
H	 3.582335	 0.529955	 0.881077

	symmetry c1
}
set optking {
	frozen_dihedral = ("
		1 2 4 17
	")
}

ee = optimize('scf')
oeprop('DIPOLE', 'QUADRUPOLE', 'MULLIKEN_CHARGES')
f=open( 'psi4out.xyz', 'w' )
f.write( "20  " )
f.write( str(ee) + "\n" )
f.write( MOL.save_string_xyz() )
f.close()
--------------------------------------------------------------------------

    Molecular point group: c1
  Charge       = 0
  Multiplicity = 1
  Basis Set: 6-31G*
  Basis Set:
  @DF-RHF Final Energy:  -383.92376411214235
    Total Energy =                       -383.9237641121424076
    Molecular point group: c1
  Basis Set: 6-31G*
  Basis Set:
  Basis Set: 6-31G*
  Basis Set:
  @DF-RHF Final Energy:  -383.92143610255005
    Total Energy =                       -383.9214361025500466
  Basis Set: 6-31G*
  Basis Set:
  Basis Set: 6-31G*
  Basis Set:
  @DF-RHF Final Energy:  -383.92472566582308
    Total Energy =                       -383.9247256658230754
  Basis Set: 6-31G*
  Basis Set:
  Basis Set: 6-31G*
  Basis Set:
  @DF-RHF Final Energy:  -383.92488140799378
    Total Energy =                       -383.9248814079936665
  Basis Set: 6-31G*
  Basis Set:
  @DF-RHF Final Energy:  -383.92488671178370
    Total Energy =                       -383.9248867117836426
  Basis Set: 6-31G*
  Basis Set:
  @DF-RHF Final Energy:  -383.92488692144235
    Total Energy =                       -383.9248869214421802
  Basis Set: 6-31G*
  Basis Set:
  Basis Set: 6-31G*
  Basis Set:
  @DF-RHF Final Energy:  -383.92270538956723
    Total Energy =                       -383.9227053895667723
  Basis Set: 6-31G*
  Basis Set:
  Basis Set: 6-31G*
  Basis Set:
  @DF-RHF Final Energy:  -383.92488636500889
    Total Energy =                       -383.9248863650090016
  Basis Set: 6-31G*
  Basis Set:
  Charge       = 0
  Multiplicity = 1
  Basis Set: 6-31G*
  Basis Set:

    Orbital Energies (a.u.)
    -----------------------

    Doubly Occupied:

       1A    -20.587219     2A    -20.555820     3A    -11.374858
       4A    -11.289050     5A    -11.238374     6A    -11.222001
       7A    -11.221156     8A    -11.211916     9A     -1.460072
      10A     -1.366247    11A     -1.089641    12A     -1.020631
      13A     -0.969489    14A     -0.892949    15A     -0.806425
      16A     -0.765579    17A     -0.695857    18A     -0.678323
      19A     -0.673293    20A     -0.643179    21A     -0.612215
      22A     -0.592071    23A     -0.585881    24A     -0.547578
      25A     -0.536318    26A     -0.512520    27A     -0.500963
      28A     -0.485051    29A     -0.478089    30A     -0.471609
      31A     -0.451582    32A     -0.433705

  @DF-RHF Final Energy:  -383.92488645822613

   => Energetics <=

    Nuclear Repulsion Energy =            380.7372139789964081
    One-Electron Energy =               -1277.3848800348305303
    Two-Electron Energy =                 512.7227795976077687
    DFT Exchange-Correlation Energy =       0.0000000000000000
    Empirical Dispersion Energy =           0.0000000000000000
    PCM Polarization Energy =               0.0000000000000000
    EFP Energy =                            0.0000000000000000
    Total Energy =                       -383.9248864582264105
    Molecular point group: c1
  Basis Set: 6-31G*
  Basis Set:

  -Total Gradient:
     Atom            X                  Y                   Z
    ------   -----------------  -----------------  -----------------
       1       -0.004390670499    -0.005264957401     0.001994840933
       2        0.006865167326     0.007646259070    -0.005921540922
       3       -0.000075762034     0.000002553793     0.000218661508
       4       -0.002488632956    -0.002525888839     0.009343451501
       5        0.000024080131    -0.000008039372     0.000116765550
       6        0.000010385459    -0.000101455266     0.000050282723
       7       -0.000006090299     0.000050234567    -0.000164653862
       8        0.000012167719    -0.000002350992     0.000000803106
       9       -0.000005156247     0.000009231683    -0.000001883610
      10        0.000003156859     0.000000502242    -0.000006504614
      11       -0.000011571607     0.000000176287    -0.000025992456
      12       -0.000003698194    -0.000002160395    -0.000001939290
      13        0.000000176485     0.000001509334     0.000003108804
      14        0.000001427420    -0.000002928581     0.000000411454
      15       -0.000013431480     0.000008738208    -0.000002957095
      16        0.000003870051    -0.000002120691    -0.000001822538
      17        0.000155839589     0.000360002853    -0.005751396564
      18       -0.000046728118    -0.000105889078     0.000149604632
      19       -0.000064452047    -0.000058700007    -0.000009203082
      20        0.000029922439    -0.000004717415     0.000009963820

  **** Optimization is complete! (in 9 steps) ****
    Final optimized geometry and variables:
    Molecular point group: c1

    Geometry (in Angstrom), charge = 0, multiplicity = 1:

    O            0.451962083250     0.305835901847     1.801017018322
    C            0.764529808664    -0.338074354943     0.859258208596
    C            0.015135451295    -0.386860775732    -0.448032629090
    O            1.805733383933    -1.197380002859     0.887872190960
    C           -1.220745802982     0.505783667512    -0.486578645197
    H            0.718307169731    -0.122019644647    -1.235219187287
    H           -0.241003498976    -1.427594710464    -0.628805984445
    C           -1.955515653546     0.427297502259    -1.825806709740
    H           -0.928742359123     1.532364828212    -0.286754079388
    H           -1.891019843420     0.220977360831     0.318467483364
    C           -3.196111761212     1.318303512779    -1.871044118346
    H           -1.278620907591     0.711297475526    -2.629190396860
    H           -2.244736882558    -0.603252748884    -2.021285509154
    H           -2.935414942497     2.360789408581    -1.713073163338
    H           -3.698048611251     1.243927502309    -2.830612531773
    H           -3.908585127364     1.036333085641    -1.101363083946
    C            3.096965402895    -0.628124312009     0.960644625203
    H            3.316543280839    -0.064995024181     0.059919833477
    H            3.790744386795    -1.450062626302     1.044442505337
    H            3.185690941620     0.015482220735     1.825605628857

  Mulliken Charges: (a.u.)
   Center  Symbol    Alpha    Beta     Spin     Total
       1     O     4.25907  4.25907  0.00000 -0.51814
       2     C     2.61004  2.61004  0.00000  0.77993
       3     C     3.21175  3.21175  0.00000 -0.42349
       4     O     4.31597  4.31597  0.00000 -0.63194
       5     C     3.15179  3.15179  0.00000 -0.30358
       6     H     0.40687  0.40687  0.00000  0.18626
       7     H     0.39775  0.39775  0.00000  0.20450
       8     C     3.15414  3.15414  0.00000 -0.30827
       9     H     0.41303  0.41303  0.00000  0.17394
      10     H     0.41061  0.41061  0.00000  0.17879
      11     C     3.23938  3.23938  0.00000 -0.47875
      12     H     0.42356  0.42356  0.00000  0.15288
      13     H     0.42230  0.42230  0.00000  0.15540
      14     H     0.42012  0.42012  0.00000  0.15975
      15     H     0.41852  0.41852  0.00000  0.16296
      16     H     0.41947  0.41947  0.00000  0.16106
      17     C     3.09399  3.09399  0.00000 -0.18797
      18     H     0.42176  0.42176  0.00000  0.15649
      19     H     0.40416  0.40416  0.00000  0.19168
      20     H     0.40574  0.40574  0.00000  0.18852

   Total alpha = 32.00000, Total beta = 32.00000, Total charge =  0.00000
