                              Psi4 1.0.54 Driver

  ==> Input File <==

--------------------------------------------------------------------------
set {
	reference rhf
	basis cc-pvtz
}

set_num_threads( 4 )
memory 2 gb

molecule MOL {
0 1

O	 -1.272382	 -1.312652	 -1.935252
C	 -0.519254	 -1.237337	 -1.024771
C	 0.748218	 -2.040711	 -0.876572
O	 -0.695554	 -0.422406	 0.000602
C	 0.997741	 -2.995243	 -2.033110
H	 0.683149	 -2.571694	 0.066706
H	 1.564014	 -1.335247	 -0.763728
H	 0.189514	 -3.707482	 -2.131604
H	 1.918413	 -3.542593	 -1.871496
H	 1.078382	 -2.459805	 -2.969609
C	 -1.852370	 0.402254	 0.000718
C	 -3.063338	 -0.501097	 -0.000437
H	 -1.831732	 1.039442	 -0.872158
H	 -1.832493	 1.038301	 0.874430
H	 -3.071944	 -1.133732	 -0.879113
H	 -3.966302	 0.097976	 -0.000483
H	 -3.072764	 -1.134834	 0.877435

	symmetry c1
}
set optking {
	frozen_dihedral = ("
		2 4 11 13
	")
}

ee,wfn = optimize('scf', return_wfn=True)
oeprop( wfn, 'DIPOLE', 'QUADRUPOLE', 'MULLIKEN_CHARGES')
f=open( 'psi4out.xyz', 'w' )
f.write( "17  " )
f.write( str(ee) + "\n" )
f.write( MOL.save_string_xyz() )
f.close()
--------------------------------------------------------------------------

    Molecular point group: c1
  Charge       = 0
  Multiplicity = 1
  Basis Set: CC-PVTZ
  Basis Set:
  @DF-RHF Final Energy:  -345.03133737773027
    Total Energy =                       -345.0313373777304378
    Molecular point group: c1
  Basis Set: CC-PVTZ
  Basis Set:
  Basis Set: CC-PVTZ
  Basis Set:
  @DF-RHF Final Energy:  -345.02476776421292
    Total Energy =                       -345.0247677642128679
  Basis Set: CC-PVTZ
  Basis Set:
  Basis Set: CC-PVTZ
  Basis Set:
  @DF-RHF Final Energy:  -345.01848900997692
    Total Energy =                       -345.0184890099771451
  Basis Set: CC-PVTZ
  Basis Set:
  Basis Set: CC-PVTZ
  Basis Set:
  @DF-RHF Final Energy:  -345.03760305130464
    Total Energy =                       -345.0376030513043020
  Basis Set: CC-PVTZ
  Basis Set:
  @DF-RHF Final Energy:  -345.03600899136626
    Total Energy =                       -345.0360089913660886
  Basis Set: CC-PVTZ
  Basis Set:
  @DF-RHF Final Energy:  -345.03768874417375
    Total Energy =                       -345.0376887441735221
  Basis Set: CC-PVTZ
  Basis Set:
  Basis Set: CC-PVTZ
  Basis Set:
  @DF-RHF Final Energy:  -345.03811854796493
    Total Energy =                       -345.0381185479650412
  Basis Set: CC-PVTZ
  Basis Set:
  Basis Set: CC-PVTZ
  Basis Set:
  @DF-RHF Final Energy:  -345.03812515869180
    Total Energy =                       -345.0381251586912299
  Basis Set: CC-PVTZ
  Basis Set:
  Charge       = 0
  Multiplicity = 1
  Basis Set: CC-PVTZ
  Basis Set:

    Orbital Energies (a.u.)
    -----------------------

    Doubly Occupied:

       1A    -20.592677     2A    -20.532553     3A    -11.364123
       4A    -11.284334     5A    -11.235419     6A    -11.214950
       7A    -11.213633     8A     -1.468910     9A     -1.364800
      10A     -1.069387    11A     -1.028569    12A     -0.918202
      13A     -0.856098    14A     -0.755327    15A     -0.703714
      16A     -0.683366    17A     -0.663566    18A     -0.622841
      19A     -0.612273    20A     -0.569315    21A     -0.547046
      22A     -0.533174    23A     -0.521823    24A     -0.517310
      25A     -0.496746    26A     -0.490712    27A     -0.454867
      28A     -0.436695

  @DF-RHF Final Energy:  -345.03812602739913

   => Energetics <=

    Nuclear Repulsion Energy =            319.7745863249668901
    One-Electron Energy =               -1104.1205696922033894
    Two-Electron Energy =                 439.3078573398370281
    DFT Exchange-Correlation Energy =       0.0000000000000000
    Empirical Dispersion Energy =           0.0000000000000000
    PCM Polarization Energy =               0.0000000000000000
    EFP Energy =                            0.0000000000000000
    Total Energy =                       -345.0381260273994712
    Molecular point group: c1
  Basis Set: CC-PVTZ
  Basis Set:

  -Total Gradient:
     Atom            X                  Y                   Z
    ------   -----------------  -----------------  -----------------
       1        0.000030092781     0.000038024861    -0.000105922567
       2       -0.000961791090    -0.003521113064    -0.000355564909
       3       -0.000069349248    -0.000070387614    -0.000056713029
       4        0.001288342136     0.005551106832     0.001605623558
       5        0.000028628957     0.000040491900     0.000029913571
       6        0.000003142754     0.000010716833     0.000019757180
       7        0.000018204389     0.000054883399     0.000040356396
       8       -0.000015869110    -0.000034700879    -0.000043072008
       9       -0.000015773960     0.000000180111     0.000002631359
      10       -0.000003599154     0.000006579772    -0.000006284272
      11        0.000284467411    -0.003844306864    -0.004811134949
      12       -0.000056810872    -0.000057050753     0.000000123891
      13       -0.000556579371     0.001827325948     0.003666517696
      14        0.000007425495     0.000002957975     0.000042210400
      15        0.000007816498     0.000002390039    -0.000019369396
      16        0.000014095345    -0.000004203569    -0.000004683942
      17       -0.000002442964    -0.000002894925    -0.000004388978

  **** Optimization is complete! (in 9 steps) ****
    Final optimized geometry and variables:
    Molecular point group: c1

    Geometry (in Angstrom), charge = 0, multiplicity = 1:

    O            0.272309075918     0.392787580647    -1.150791924499
    C            0.390564679525     0.102799092420    -0.008676166245
    C            1.645600356501    -0.451800735420     0.617476690857
    O           -0.568525743715     0.243166964323     0.889288629513
    C            2.801062112580    -0.587534704462    -0.361023334112
    H            1.387324873410    -1.408674365760     1.057884127985
    H            1.904189386541     0.195957591856     1.447688983918
    H            2.544101172177    -1.248150997797    -1.178253954285
    H            3.670586797277    -0.990131029004     0.144120960507
    H            3.066354657928     0.371325304337    -0.785952031078
    C           -1.864833226155     0.656120474019     0.472026667606
    C           -2.582280639706    -0.358420277440    -0.394821709648
    H           -1.792200730363     1.626156137544     0.000354293367
    H           -2.398949288186     0.787552233403     1.401734226273
    H           -2.104187081895    -0.476586800256    -1.354520616686
    H           -3.600917016751    -0.023693748534    -0.555757228443
    H           -2.620141317942    -1.320301849798     0.103441531196

  Mulliken Charges: (a.u.)
   Center  Symbol    Alpha    Beta     Spin     Total
       1     O     4.19955  4.19955  0.00000 -0.39910
       2     C     2.80118  2.80118  0.00000  0.39763
       3     C     3.09371  3.09371  0.00000 -0.18742
       4     O     4.15593  4.15593  0.00000 -0.31186
       5     C     3.13983  3.13983  0.00000 -0.27967
       6     H     0.44270  0.44270  0.00000  0.11460
       7     H     0.44075  0.44075  0.00000  0.11850
       8     H     0.44863  0.44863  0.00000  0.10274
       9     H     0.45055  0.45055  0.00000  0.09891
      10     H     0.44863  0.44863  0.00000  0.10273
      11     C     2.98593  2.98593  0.00000  0.02815
      12     C     3.15505  3.15505  0.00000 -0.31010
      13     H     0.45273  0.45273  0.00000  0.09455
      14     H     0.44548  0.44548  0.00000  0.10904
      15     H     0.43607  0.43607  0.00000  0.12787
      16     H     0.45017  0.45017  0.00000  0.09967
      17     H     0.45312  0.45312  0.00000  0.09376

   Total alpha = 28.00000, Total beta = 28.00000, Total charge = -0.00000

*** Psi4 exiting successfully. Buy a developer a beer!
