  ==> Input File <==

--------------------------------------------------------------------------
set {
	reference rhf
	basis 6-31G*
}

set_num_threads( 4 )
memory 2 gb

molecule MOL {
0 1

H	 -3.042581	 -0.665861	 0.004336
O	 -2.245037	 -1.176175	 0.000806
C	 -1.162163	 -0.365336	 0.001020
C	 -0.118529	 -0.519142	 -0.893688
C	 -1.128655	 0.647786	 0.951435
H	 -0.141850	 -1.305615	 -1.629138
C	 0.959767	 0.351977	 -0.827790
H	 -1.955374	 0.736878	 1.632402
C	 -0.053534	 1.516766	 1.015486
H	 1.774171	 0.233777	 -1.520476
C	 0.999289	 1.360371	 0.113779
C	 -0.027010	 2.633637	 2.032834
H	 1.843351	 2.026166	 0.153844
H	 0.952400	 2.722372	 2.490734
H	 -0.752872	 2.468980	 2.820154
H	 -0.256241	 3.586692	 1.564342

	symmetry c1
}
set optking {
	frozen_dihedral = ("
		5 3 2 1
	")
}

ee = optimize('scf')
oeprop('DIPOLE', 'QUADRUPOLE', 'MULLIKEN_CHARGES')
f=open( 'psi4out.xyz', 'w' )
f.write( "16  " )
f.write( str(ee) + "\n" )
f.write( MOL.save_string_xyz() )
f.close()
--------------------------------------------------------------------------

    Molecular point group: c1
  Charge       = 0
  Multiplicity = 1
  Basis Set: 6-31G*
  Basis Set:
  @DF-RHF Final Energy:  -344.59083437714406
    Total Energy =                       -344.5908343771443469
    Molecular point group: c1
  Basis Set: 6-31G*
  Basis Set:
  Basis Set: 6-31G*
  Basis Set:
  @DF-RHF Final Energy:  -344.59230505118040
    Total Energy =                       -344.5923050511804036
  Basis Set: 6-31G*
  Basis Set:
  Basis Set: 6-31G*
  Basis Set:
  @DF-RHF Final Energy:  -344.59240690094515
    Total Energy =                       -344.5924069009452637
  Basis Set: 6-31G*
  Basis Set:
  Basis Set: 6-31G*
  Basis Set:
  @DF-RHF Final Energy:  -344.59241809999253
    Total Energy =                       -344.5924180999924147
  Basis Set: 6-31G*
  Basis Set:
  Basis Set: 6-31G*
  Basis Set:
  @DF-RHF Final Energy:  -344.59242102689723
    Total Energy =                       -344.5924210268971137
  Basis Set: 6-31G*
  Basis Set:
  Charge       = 0
  Multiplicity = 1
  Basis Set: 6-31G*
  Basis Set:

    Orbital Energies (a.u.)
    -----------------------

    Doubly Occupied:

       1A    -20.580634     2A    -11.290494     3A    -11.242693
       4A    -11.232485     5A    -11.223045     6A    -11.222234
       7A    -11.219289     8A    -11.218602     9A     -1.396979
      10A     -1.149960    11A     -1.043717    12A     -1.003130
      13A     -0.937597    14A     -0.834464    15A     -0.800405
      16A     -0.722950    17A     -0.677890    18A     -0.649420
      19A     -0.612253    20A     -0.591106    21A     -0.576708
      22A     -0.566967    23A     -0.554563    24A     -0.522882
      25A     -0.502422    26A     -0.481145    27A     -0.464825
      28A     -0.329590    29A     -0.311946

  @DF-RHF Final Energy:  -344.59242199755840

   => Energetics <=

    Nuclear Repulsion Energy =            345.2252365500133919
    One-Electron Energy =               -1151.7145276558758269
    Two-Electron Energy =                 461.8968691083040881
    DFT Exchange-Correlation Energy =       0.0000000000000000
    Empirical Dispersion Energy =           0.0000000000000000
    PCM Polarization Energy =               0.0000000000000000
    EFP Energy =                            0.0000000000000000
    Total Energy =                       -344.5924219975583469
    Molecular point group: c1
  Basis Set: 6-31G*
  Basis Set:

  -Total Gradient:
     Atom            X                  Y                   Z
    ------   -----------------  -----------------  -----------------
       1        0.000031733021     0.000106288299    -0.002534510014
       2        0.000377952205    -0.000778629351     0.003767474580
       3       -0.001346496601     0.001811476236    -0.002425656300
       4        0.000093764255     0.000032983690    -0.000011253774
       5        0.000854576252    -0.001201011275     0.001220859240
       6       -0.000023758980    -0.000010123187     0.000009557914
       7       -0.000042904474    -0.000042816052    -0.000025867806
       8        0.000026261801     0.000001648878    -0.000015640022
       9        0.000055513558     0.000023085132    -0.000014235109
      10       -0.000001849273     0.000007830952     0.000000942908
      11       -0.000032789463     0.000033118432     0.000027087411
      12       -0.000001991059     0.000012669719    -0.000017102489
      13       -0.000006432739     0.000008363309     0.000009095429
      14        0.000003379825    -0.000018179441     0.000013007796
      15       -0.000010425474     0.000009713382    -0.000001820628
      16        0.000023467148     0.000003581278    -0.000001939138

  **** Optimization is complete! (in 6 steps) ****
    Final optimized geometry and variables:
    Molecular point group: c1

    Geometry (in Angstrom), charge = 0, multiplicity = 1:

    H           -2.640407393617    -1.298050396712    -0.346937997169
    O           -1.814907270226    -1.762218350421    -0.362100588368
    C           -0.774047520418    -0.882276698837    -0.316143042527
    C            0.271561661897    -1.052877957240    -1.204400900173
    C           -0.727717647275     0.121679029308     0.640278329648
    H            0.222425571049    -1.844050631686    -1.928999231112
    C            1.359710348471    -0.198586716341    -1.132160217504
    H           -1.540731734330     0.215980434351     1.339979915887
    C            0.354236952216     0.988378943650     0.705283832613
    H            2.178283360795    -0.325284454469    -1.818358476254
    C            1.403181367402     0.816090813361    -0.192279814395
    C            0.391124950970     2.102576920020     1.725610200283
    H            2.254776697702     1.472603701261    -0.151496254386
    H            1.374304493207     2.189120587909     2.175510174419
    H           -0.327083321979     1.935972182038     2.520023730973
    H            0.157975319918     3.058138786552     1.263890859458

  Mulliken Charges: (a.u.)
   Center  Symbol    Alpha    Beta     Spin     Total
       1     H     0.27258  0.27258  0.00000  0.45483
       2     O     4.38433  4.38433  0.00000 -0.76866
       3     C     2.80262  2.80262  0.00000  0.39476
       4     C     3.12446  3.12446  0.00000 -0.24892
       5     C     3.14825  3.14825  0.00000 -0.29650
       6     H     0.39314  0.39314  0.00000  0.21373
       7     C     3.09098  3.09098  0.00000 -0.18196
       8     H     0.40263  0.40263  0.00000  0.19475
       9     C     2.97120  2.97120  0.00000  0.05759
      10     H     0.39852  0.39852  0.00000  0.20297
      11     C     3.12065  3.12065  0.00000 -0.24129
      12     C     3.25454  3.25454  0.00000 -0.50909
      13     H     0.40286  0.40286  0.00000  0.19427
      14     H     0.41084  0.41084  0.00000  0.17832
      15     H     0.41289  0.41289  0.00000  0.17422
      16     H     0.40952  0.40952  0.00000  0.18096

   Total alpha = 29.00000, Total beta = 29.00000, Total charge = -0.00000
