                              Psi4 1.0.54 Driver

  ==> Input File <==

--------------------------------------------------------------------------
set {
	reference rhf
	basis cc-pvtz
}

set_num_threads( 4 )
memory 2 gb

molecule MOL {
0 1

H	 -1.752232	 -2.214755	 -0.011938
C	 -1.343852	 -1.221619	 -0.018179
N	 -0.058800	 -1.097635	 -0.261688
C	 -2.148159	 -0.124236	 0.219734
C	 0.449026	 0.119242	 -0.273393
H	 -3.196988	 -0.237571	 0.417076
N	 -1.655094	 1.094230	 0.209506
C	 -0.370318	 1.215445	 -0.035100
C	 1.924033	 0.265863	 -0.538106
H	 0.033214	 2.210441	 -0.046812
C	 2.303117	 -0.091937	 -1.976064
H	 2.202544	 1.293507	 -0.337750
H	 2.477130	 -0.357947	 0.154107
H	 3.363973	 0.058320	 -2.137126
H	 1.761083	 0.527743	 -2.678328
H	 2.073844	 -1.129085	 -2.193562

	symmetry c1
}
set optking {
	frozen_dihedral = ("
		12 9 5 3
	")
}

ee,wfn = optimize('scf', return_wfn=True)
oeprop( wfn, 'DIPOLE', 'QUADRUPOLE', 'MULLIKEN_CHARGES')
f=open( 'psi4out.xyz', 'w' )
f.write( "16  " )
f.write( str(ee) + "\n" )
f.write( MOL.save_string_xyz() )
f.close()
--------------------------------------------------------------------------

    Molecular point group: c1
  Charge       = 0
  Multiplicity = 1
  Basis Set: CC-PVTZ
  Basis Set:
  @DF-RHF Final Energy:  -340.87219954488131
    Total Energy =                       -340.8721995448814255
    Molecular point group: c1
  Basis Set: CC-PVTZ
  Basis Set:
  Basis Set: CC-PVTZ
  Basis Set:
  @DF-RHF Final Energy:  -340.87226959920832
    Total Energy =                       -340.8722695992083800
  Basis Set: CC-PVTZ
  Basis Set:
  Basis Set: CC-PVTZ
  Basis Set:
  @DF-RHF Final Energy:  -340.87236815632417
    Total Energy =                       -340.8723681563240575
  Basis Set: CC-PVTZ
  Basis Set:
  Basis Set: CC-PVTZ
  Basis Set:
  @DF-RHF Final Energy:  -340.87236950263355
    Total Energy =                       -340.8723695026333758
  Basis Set: CC-PVTZ
  Basis Set:
  Basis Set: CC-PVTZ
  Basis Set:
  @DF-RHF Final Energy:  -340.87237226957063
    Total Energy =                       -340.8723722695702918
  Basis Set: CC-PVTZ
  Basis Set:
  Charge       = 0
  Multiplicity = 1
  Basis Set: CC-PVTZ
  Basis Set:

    Orbital Energies (a.u.)
    -----------------------

    Doubly Occupied:

       1A    -15.580717     2A    -15.576192     3A    -11.278274
       4A    -11.272949     5A    -11.268275     6A    -11.268227
       7A    -11.231644     8A    -11.216123     9A     -1.316300
      10A     -1.224347    11A     -1.086144    12A     -1.015250
      13A     -0.907268    14A     -0.895029    15A     -0.829179
      16A     -0.719578    17A     -0.712735    18A     -0.660022
      19A     -0.615580    20A     -0.604067    21A     -0.582694
      22A     -0.562905    23A     -0.523951    24A     -0.506702
      25A     -0.500867    26A     -0.489993    27A     -0.433131
      28A     -0.397816    29A     -0.347099

  @DF-RHF Final Energy:  -340.87237241205565

   => Energetics <=

    Nuclear Repulsion Energy =            350.5990051094178739
    One-Electron Energy =               -1155.6966414826483742
    Two-Electron Energy =                 464.2252639611749601
    DFT Exchange-Correlation Energy =       0.0000000000000000
    Empirical Dispersion Energy =           0.0000000000000000
    PCM Polarization Energy =               0.0000000000000000
    EFP Energy =                            0.0000000000000000
    Total Energy =                       -340.8723724120554834
    Molecular point group: c1
  Basis Set: CC-PVTZ
  Basis Set:

  -Total Gradient:
     Atom            X                  Y                   Z
    ------   -----------------  -----------------  -----------------
       1       -0.000003309957     0.000000557031    -0.000005667357
       2       -0.000017630409    -0.000006372934     0.000020549982
       3       -0.000030785767     0.000023662070    -0.000184987600
       4       -0.000003949882    -0.000015721837    -0.000010303818
       5        0.000050840183    -0.000017468208     0.000210958252
       6       -0.000001146674    -0.000000221249     0.000003905669
       7        0.000011802120     0.000010007287    -0.000002443949
       8       -0.000011925160     0.000010103186    -0.000002852998
       9        0.000042741860    -0.000047824685     0.000154911603
      10        0.000001377331    -0.000003094522     0.000002851195
      11        0.000000660374    -0.000000498005     0.000010935678
      12       -0.000036399180     0.000055635519    -0.000189267305
      13       -0.000006405760    -0.000003609347    -0.000004337117
      14        0.000016582926     0.000009361552    -0.000003906783
      15       -0.000011159182     0.000007856448    -0.000000970228
      16       -0.000001292821    -0.000022372307     0.000000624772

  **** Optimization is complete! (in 6 steps) ****
    Final optimized geometry and variables:
    Molecular point group: c1

    Geometry (in Angstrom), charge = 0, multiplicity = 1:

    H           -1.650016074136    -2.254791429444     0.355846415639
    C           -1.254868781757    -1.256370107453     0.350248832168
    N            0.026294466257    -1.114541370046     0.096761210751
    C           -2.070708955202    -0.171068083011     0.603069437640
    C            0.519073398347     0.108561554806     0.090911027960
    H           -3.116060765621    -0.299023064413     0.809405586122
    N           -1.592462503774     1.053231286064     0.600552309912
    C           -0.311056363385     1.192124286991     0.347550824975
    C            1.984793648188     0.277840492648    -0.210120030713
    H            0.081394919113     2.191495137102     0.347408960969
    C            2.337318401023    -0.084444000542    -1.653413186346
    H            2.276538868207     1.301380991419    -0.006907219802
    H            2.544905614198    -0.356291523907     0.466998930097
    H            3.401827467517     0.025929666279    -1.822492658305
    H            1.817309516236     0.558467695776    -2.354701831470
    H            2.062601214839    -1.108824089691    -1.867193211173

  Mulliken Charges: (a.u.)
   Center  Symbol    Alpha    Beta     Spin     Total
       1     H     0.41380  0.41380  0.00000  0.17239
       2     C     3.04358  3.04358  0.00000 -0.08716
       3     N     3.59750  3.59750  0.00000 -0.19501
       4     C     3.04758  3.04758  0.00000 -0.09516
       5     C     2.93809  2.93809  0.00000  0.12381
       6     H     0.41368  0.41368  0.00000  0.17265
       7     N     3.58667  3.58667  0.00000 -0.17333
       8     C     3.07855  3.07855  0.00000 -0.15710
       9     C     3.07674  3.07674  0.00000 -0.15348
      10     H     0.41580  0.41580  0.00000  0.16841
      11     C     3.14462  3.14462  0.00000 -0.28923
      12     H     0.44959  0.44959  0.00000  0.10082
      13     H     0.44538  0.44538  0.00000  0.10924
      14     H     0.44964  0.44964  0.00000  0.10071
      15     H     0.45391  0.45391  0.00000  0.09219
      16     H     0.44487  0.44487  0.00000  0.11026

   Total alpha = 29.00000, Total beta = 29.00000, Total charge = -0.00000

*** Psi4 exiting successfully. Buy a developer a beer!
