                              Psi4 1.0.54 Driver

  ==> Input File <==

--------------------------------------------------------------------------
set {
	reference rhf
	basis cc-pvtz
}

set_num_threads( 4 )
memory 2 gb

molecule MOL {
0 1

H	 2.601049	 -0.671797	 -1.067059
N	 1.624421	 -0.474786	 -1.084172
C	 1.296958	 0.573792	 -0.139135
C	 0.855092	 -1.676960	 -0.833669
H	 1.872637	 1.459407	 -0.379200
H	 1.528633	 0.291484	 0.889577
C	 -0.184297	 0.891856	 -0.232909
H	 1.110585	 -2.422292	 -1.577009
H	 1.058849	 -2.101472	 0.151162
C	 -0.625584	 -1.355947	 -0.926533
H	 -0.393554	 1.324015	 -1.215783
H	 -0.442738	 1.633624	 0.513487
N	 -0.976577	 -0.298712	 -0.000000
H	 -1.203103	 -2.239482	 -0.681671
H	 -0.865242	 -1.078643	 -1.957192
C	 -2.391156	 -0.021003	 -0.000000
H	 -2.853954	 -0.458728	 -0.875714
H	 -2.853954	 -0.458728	 0.875714
H	 -2.614037	 1.049773	 -0.000000

	symmetry c1
}
set optking {
	frozen_dihedral = ("
		7 13 16 19
	")
}

ee,wfn = optimize('scf', return_wfn=True)
oeprop( wfn, 'DIPOLE', 'QUADRUPOLE', 'MULLIKEN_CHARGES')
f=open( 'psi4out.xyz', 'w' )
f.write( "19  " )
f.write( str(ee) + "\n" )
f.write( MOL.save_string_xyz() )
f.close()
--------------------------------------------------------------------------

    Molecular point group: c1
  Charge       = 0
  Multiplicity = 1
  Basis Set: CC-PVTZ
  Basis Set:
  @DF-RHF Final Energy:  -305.30285802015868
    Total Energy =                       -305.3028580201589079
    Molecular point group: c1
  Basis Set: CC-PVTZ
  Basis Set:
  Basis Set: CC-PVTZ
  Basis Set:
  @DF-RHF Final Energy:  -305.30373876301377
    Total Energy =                       -305.3037387630140529
  Basis Set: CC-PVTZ
  Basis Set:
  Basis Set: CC-PVTZ
  Basis Set:
  @DF-RHF Final Energy:  -305.30388894010815
    Total Energy =                       -305.3038889401078677
  Basis Set: CC-PVTZ
  Basis Set:
  Basis Set: CC-PVTZ
  Basis Set:
  @DF-RHF Final Energy:  -305.30390265950666
    Total Energy =                       -305.3039026595068322
  Basis Set: CC-PVTZ
  Basis Set:
  Charge       = 0
  Multiplicity = 1
  Basis Set: CC-PVTZ
  Basis Set:

    Orbital Energies (a.u.)
    -----------------------

    Doubly Occupied:

       1A    -15.532405     2A    -15.530765     3A    -11.236601
       4A    -11.236579     5A    -11.235812     6A    -11.235672
       7A    -11.233068     8A     -1.246477     9A     -1.185341
      10A     -1.023897    11A     -0.965185    12A     -0.861715
      13A     -0.858828    14A     -0.756110    15A     -0.691968
      16A     -0.632913    17A     -0.624862    18A     -0.606235
      19A     -0.605648    20A     -0.582469    21A     -0.544294
      22A     -0.534700    23A     -0.511792    24A     -0.488446
      25A     -0.468271    26A     -0.457899    27A     -0.365633
      28A     -0.339670

  @DF-RHF Final Energy:  -305.30390369790433

   => Energetics <=

    Nuclear Repulsion Energy =            339.7656326191270750
    One-Electron Energy =               -1086.9525727480731803
    Two-Electron Energy =                 441.8830364310417167
    DFT Exchange-Correlation Energy =       0.0000000000000000
    Empirical Dispersion Energy =           0.0000000000000000
    PCM Polarization Energy =               0.0000000000000000
    EFP Energy =                            0.0000000000000000
    Total Energy =                       -305.3039036979044454
    Molecular point group: c1
  Basis Set: CC-PVTZ
  Basis Set:

  -Total Gradient:
     Atom            X                  Y                   Z
    ------   -----------------  -----------------  -----------------
       1        0.000006692226     0.000004098916     0.000000777847
       2       -0.000013556878     0.000009973355    -0.000000866548
       3        0.000010373313    -0.000017597340     0.000026993402
       4       -0.000004410195    -0.000024108659    -0.000047620743
       5       -0.000000234153    -0.000001662154    -0.000001131543
       6        0.000003296546     0.000005003352     0.000010576252
       7        0.000166759259     0.000408874442     0.002592145597
       8        0.000023366729    -0.000008861648    -0.000003012867
       9       -0.000017462498     0.000008398825    -0.000010027782
      10        0.000001655701    -0.000032049604     0.000028841623
      11       -0.000015712259    -0.000009547400     0.000004004963
      12        0.000003211249    -0.000004233038     0.000000213497
      13       -0.000211906165    -0.000499567983    -0.004594175283
      14       -0.000002395388    -0.000002616102    -0.000005341240
      15        0.000012420773    -0.000002038918     0.000013684031
      16        0.000137869566     0.000050781393     0.005515190996
      17       -0.000009620504     0.000004233459    -0.000006605278
      18        0.000038494872    -0.000005338413    -0.000049617361
      19       -0.000128842193     0.000116257515    -0.003474029561

  **** Optimization is complete! (in 5 steps) ****
    Final optimized geometry and variables:
    Molecular point group: c1

    Geometry (in Angstrom), charge = 0, multiplicity = 1:

    H            2.664430622567    -0.402767749959    -0.584411324455
    N            1.692055526418    -0.186325264491    -0.610616499172
    C            1.381903309064     0.886433462016     0.312727423144
    C            0.897421342035    -1.367445305840    -0.340535493928
    H            1.986247732563     1.751391016511     0.067294685440
    H            1.591475906885     0.613093162584     1.348829252337
    C           -0.088526676458     1.246308933854     0.195279337926
    H            1.146699429337    -2.135607537464    -1.062641250246
    H            1.082717044220    -1.771173150385     0.656777247153
    C           -0.575655283761    -1.020147028531    -0.457746179493
    H           -0.265994958949     1.687481551885    -0.790407787588
    H           -0.333378099393     1.994231448128     0.939264686719
    N           -0.912461705946     0.078276408698     0.419683186287
    H           -1.171527709527    -1.882627103703    -0.182032649875
    H           -0.803080222525    -0.782620913731    -1.501316406891
    C           -2.334455360156     0.350662614693     0.482698133216
    H           -2.855486961613    -0.012414003607    -0.402174611581
    H           -2.789347056634    -0.115152817080     1.349684330745
    H           -2.519972612513     1.416609624148     0.522877829752

  Mulliken Charges: (a.u.)
   Center  Symbol    Alpha    Beta     Spin     Total
       1     H     0.43992  0.43992  0.00000  0.12015
       2     N     3.64275  3.64275  0.00000 -0.28551
       3     C     3.04189  3.04189  0.00000 -0.08377
       4     C     3.04185  3.04185  0.00000 -0.08369
       5     H     0.45272  0.45272  0.00000  0.09455
       6     H     0.46628  0.46628  0.00000  0.06743
       7     C     3.03337  3.03337  0.00000 -0.06674
       8     H     0.45271  0.45271  0.00000  0.09457
       9     H     0.46620  0.46620  0.00000  0.06760
      10     C     3.03392  3.03392  0.00000 -0.06785
      11     H     0.46961  0.46961  0.00000  0.06077
      12     H     0.45405  0.45405  0.00000  0.09191
      13     N     3.61604  3.61604  0.00000 -0.23208
      14     H     0.45393  0.45393  0.00000  0.09213
      15     H     0.46910  0.46910  0.00000  0.06181
      16     C     3.09243  3.09243  0.00000 -0.18486
      17     H     0.46512  0.46512  0.00000  0.06977
      18     H     0.45021  0.45021  0.00000  0.09958
      19     H     0.45789  0.45789  0.00000  0.08421

   Total alpha = 28.00000, Total beta = 28.00000, Total charge =  0.00000

*** Psi4 exiting successfully. Buy a developer a beer!
