  ==> Input File <==

--------------------------------------------------------------------------
set {
	reference rhf
	basis cc-pvtz
}

set_num_threads( 4 )
memory 2 gb

molecule MOL {
0 1

H	 3.721907	 -0.933076	 -0.066039
O	 2.824271	 -1.154299	 0.131461
C	 2.076458	 -0.067370	 -0.038225
C	 0.626018	 -0.337582	 0.258241
O	 2.538288	 0.965419	 -0.381593
C	 -0.267326	 0.883135	 0.076490
H	 0.325620	 -1.161483	 -0.378003
H	 0.574537	 -0.713685	 1.275261
C	 -1.726822	 0.642622	 0.463839
H	 -0.210803	 1.217591	 -0.953497
H	 0.129920	 1.693110	 0.675679
C	 -2.480891	 -0.340606	 -0.429852
H	 -2.243098	 1.597649	 0.438609
H	 -1.776542	 0.301208	 1.495542
C	 -1.994641	 -0.314729	 -1.875316
H	 -2.367622	 -1.344711	 -0.029879
H	 -3.544032	 -0.122881	 -0.413066
H	 -2.543369	 -1.021615	 -2.486783
H	 -0.942075	 -0.569329	 -1.938430
H	 -2.122100	 0.669762	 -2.313136

	symmetry c1
}
set optking {
	frozen_dihedral = ("
		16 12 9 6
	")
}

ee = optimize('scf')
oeprop('DIPOLE', 'QUADRUPOLE', 'MULLIKEN_CHARGES')
f=open( 'psi4out.xyz', 'w' )
f.write( "20  " )
f.write( str(ee) + "\n" )
f.write( MOL.save_string_xyz() )
f.close()
--------------------------------------------------------------------------

    Molecular point group: c1
  Charge       = 0
  Multiplicity = 1
  Basis Set: CC-PVTZ
  Basis Set:
  @DF-RHF Final Energy:  -384.08706596978647
    Total Energy =                       -384.0870659697866358
    Molecular point group: c1
  Basis Set: CC-PVTZ
  Basis Set:
  Basis Set: CC-PVTZ
  Basis Set:
  @DF-RHF Final Energy:  -384.08963037995784
    Total Energy =                       -384.0896303799580664
  Basis Set: CC-PVTZ
  Basis Set:
  Basis Set: CC-PVTZ
  Basis Set:
  @DF-RHF Final Energy:  -384.09021797671562
    Total Energy =                       -384.0902179767158486
  Basis Set: CC-PVTZ
  Basis Set:
  Basis Set: CC-PVTZ
  Basis Set:
  @DF-RHF Final Energy:  -384.08904558644127
    Total Energy =                       -384.0890455864412161
  Basis Set: CC-PVTZ
  Basis Set:
  Basis Set: CC-PVTZ
  Basis Set:
  @DF-RHF Final Energy:  -384.09026977002293
    Total Energy =                       -384.0902697700236104
  Basis Set: CC-PVTZ
  Basis Set:
  Basis Set: CC-PVTZ
  Basis Set:
  @DF-RHF Final Energy:  -384.09028126344862
    Total Energy =                       -384.0902812634486736
  Basis Set: CC-PVTZ
  Basis Set:
  Charge       = 0
  Multiplicity = 1
  Basis Set: CC-PVTZ
  Basis Set:

    Orbital Energies (a.u.)
    -----------------------

    Doubly Occupied:

       1A    -20.603693     2A    -20.540327     3A    -11.373141
       4A    -11.238149     5A    -11.219948     6A    -11.219107
       7A    -11.218502     8A    -11.211717     9A     -1.477237
      10A     -1.368739    11A     -1.096561    12A     -1.038658
      13A     -0.961947    14A     -0.882862    15A     -0.815723
      16A     -0.765843    17A     -0.703200    18A     -0.692806
      19A     -0.669765    20A     -0.629296    21A     -0.624344
      22A     -0.585830    23A     -0.570554    24A     -0.566169
      25A     -0.535387    26A     -0.513076    27A     -0.507324
      28A     -0.484143    29A     -0.468467    30A     -0.461930
      31A     -0.457804    32A     -0.444635

  @DF-RHF Final Energy:  -384.09028185743551

   => Energetics <=

    Nuclear Repulsion Energy =            384.2081809438150799
    One-Electron Energy =               -1284.7031554423597299
    Two-Electron Energy =                 516.4046926411091363
    DFT Exchange-Correlation Energy =       0.0000000000000000
    Empirical Dispersion Energy =           0.0000000000000000
    PCM Polarization Energy =               0.0000000000000000
    EFP Energy =                            0.0000000000000000
    Total Energy =                       -384.0902818574355706
    Molecular point group: c1
  Basis Set: CC-PVTZ
  Basis Set:

  -Total Gradient:
     Atom            X                  Y                   Z
    ------   -----------------  -----------------  -----------------
       1        0.000008740925    -0.000001883422     0.000003835485
       2       -0.000011164644     0.000007410301    -0.000017561608
       3       -0.000021573116     0.000036885337     0.000008513575
       4       -0.000035589890    -0.000044175068    -0.000067743310
       5        0.000003554561    -0.000018818565     0.000016965278
       6       -0.001358098702     0.003716374567    -0.002827711090
       7        0.000012823294    -0.000004970937     0.000030252007
       8        0.000002019053     0.000016578937     0.000007970617
       9        0.000657302079    -0.005170057236     0.005029632643
      10       -0.000009129144    -0.000014049424    -0.000008679456
      11       -0.000014487817     0.000016192388    -0.000004144151
      12        0.006072804224     0.000628493968    -0.005736071101
      13        0.000035187026     0.000023111302     0.000014429274
      14        0.000018678478    -0.000008195272    -0.000002765480
      15        0.000035163108    -0.000029250262    -0.000031158799
      16       -0.005379725337     0.000823759051     0.003575215963
      17       -0.000004578986     0.000010926996     0.000009627873
      18        0.000010477488     0.000010420953     0.000004298145
      19       -0.000024200636     0.000004701505    -0.000011353693
      20        0.000001798044    -0.000003455120     0.000006447829

  **** Optimization is complete! (in 7 steps) ****
    Final optimized geometry and variables:
    Molecular point group: c1

    Geometry (in Angstrom), charge = 0, multiplicity = 1:

    H            3.501168695372    -0.935660454685     0.233801591719
    O            2.605828678828    -1.151755562774     0.446899353761
    C            1.851063113325    -0.078072983461     0.230025358327
    C            0.403623197647    -0.340066569932     0.546825980860
    O            2.304983108834     0.939733980233    -0.165139132216
    C           -0.498211264282     0.868421047563     0.326341753518
    H            0.098201089703    -1.190761351975    -0.051813690419
    H            0.359426404678    -0.676462249454     1.577824553712
    C           -1.965276400236     0.598245054191     0.664868867235
    H           -0.402226898425     1.211028256173    -0.695067564102
    H           -0.142275349591     1.682075967636     0.946671132196
    C           -2.724751412283    -0.386468706288    -0.243240929619
    H           -2.476672426242     1.555271182223     0.621744999873
    H           -2.048315185229     0.263238415945     1.694383517448
    C           -2.395822779164    -0.328894466065    -1.731118286569
    H           -2.628621399310    -1.399079188406     0.137820403574
    H           -3.782446338529    -0.167221039332    -0.126996859684
    H           -3.056332986597    -0.984026635677    -2.286855688055
    H           -1.379415609451    -0.635399290047    -1.945192961310
    H           -2.524675149576     0.675013520988    -2.121712531153

  Mulliken Charges: (a.u.)
   Center  Symbol    Alpha    Beta     Spin     Total
       1     H     0.38245  0.38245  0.00000  0.23510
       2     O     4.16041  4.16041  0.00000 -0.32082
       3     C     2.80334  2.80334  0.00000  0.39333
       4     C     3.11278  3.11278  0.00000 -0.22556
       5     O     4.19114  4.19114  0.00000 -0.38228
       6     C     3.10070  3.10070  0.00000 -0.20141
       7     H     0.43700  0.43700  0.00000  0.12601
       8     H     0.43553  0.43553  0.00000  0.12894
       9     C     3.10555  3.10555  0.00000 -0.21110
      10     H     0.44209  0.44209  0.00000  0.11582
      11     H     0.43599  0.43599  0.00000  0.12801
      12     C     3.10002  3.10002  0.00000 -0.20003
      13     H     0.44459  0.44459  0.00000  0.11082
      14     H     0.44882  0.44882  0.00000  0.10236
      15     C     3.15544  3.15544  0.00000 -0.31088
      16     H     0.44959  0.44959  0.00000  0.10081
      17     H     0.44619  0.44619  0.00000  0.10761
      18     H     0.44354  0.44354  0.00000  0.11292
      19     H     0.45399  0.45399  0.00000  0.09202
      20     H     0.45082  0.45082  0.00000  0.09835

   Total alpha = 32.00000, Total beta = 32.00000, Total charge =  0.00000
