  ==> Input File <==

--------------------------------------------------------------------------
set {
	reference rhf
	basis 6-31G*
}

set_num_threads( 4 )
memory 2 gb

molecule MOL {
0 1

H	 -1.070890	 -1.366565	 0.180696
O	 -1.422729	 -0.573567	 -0.196946
C	 -0.731407	 0.539437	 0.309156
C	 0.680193	 0.672443	 -0.251532
H	 -1.319765	 1.404033	 0.030086
H	 -0.700012	 0.506517	 1.397677
C	 1.071457	 -0.459361	 -1.202130
H	 0.759698	 1.625747	 -0.765864
H	 1.377003	 0.701997	 0.583406
H	 0.439494	 -0.472004	 -2.085113
H	 2.095143	 -0.345736	 -1.542897
H	 0.992356	 -1.428789	 -0.716110

	symmetry c1
}
set optking {
	frozen_dihedral = ("
		8 4 3 2
	")
}

ee = optimize('scf')
oeprop('DIPOLE', 'QUADRUPOLE', 'MULLIKEN_CHARGES')
f=open( 'psi4out.xyz', 'w' )
f.write( "12  " )
f.write( str(ee) + "\n" )
f.write( MOL.save_string_xyz() )
f.close()
--------------------------------------------------------------------------

    Molecular point group: c1
  Charge       = 0
  Multiplicity = 1
  Basis Set: 6-31G*
  Basis Set:
  @DF-RHF Final Energy:  -193.10085898824175
    Total Energy =                       -193.1008589882417255
    Molecular point group: c1
  Basis Set: 6-31G*
  Basis Set:
  Basis Set: 6-31G*
  Basis Set:
  @DF-RHF Final Energy:  -193.10142493284064
    Total Energy =                       -193.1014249328407004
  Basis Set: 6-31G*
  Basis Set:
  Basis Set: 6-31G*
  Basis Set:
  @DF-RHF Final Energy:  -193.10215517937576
    Total Energy =                       -193.1021551793756430
  Basis Set: 6-31G*
  Basis Set:
  Basis Set: 6-31G*
  Basis Set:
  @DF-RHF Final Energy:  -193.10217279136288
    Total Energy =                       -193.1021727913628467
  Basis Set: 6-31G*
  Basis Set:
  Basis Set: 6-31G*
  Basis Set:
  @DF-RHF Final Energy:  -193.10217762664118
    Total Energy =                       -193.1021776266412076
  Basis Set: 6-31G*
  Basis Set:
  Charge       = 0
  Multiplicity = 1
  Basis Set: 6-31G*
  Basis Set:

    Orbital Energies (a.u.)
    -----------------------

    Doubly Occupied:

       1A    -20.553541     2A    -11.268532     3A    -11.218947
       4A    -11.211810     5A     -1.360049     6A     -1.043367
       7A     -0.925976     8A     -0.807177     9A     -0.689493
      10A     -0.628917    11A     -0.622033    12A     -0.576696
      13A     -0.526056    14A     -0.510351    15A     -0.496265
      16A     -0.456543    17A     -0.429684

  @DF-RHF Final Energy:  -193.10217787641398

   => Energetics <=

    Nuclear Repulsion Energy =            133.2937435628172125
    One-Electron Energy =                -526.1409716763530469
    Two-Electron Energy =                 199.7450502371218306
    DFT Exchange-Correlation Energy =       0.0000000000000000
    Empirical Dispersion Energy =           0.0000000000000000
    PCM Polarization Energy =               0.0000000000000000
    EFP Energy =                            0.0000000000000000
    Total Energy =                       -193.1021778764140038
    Molecular point group: c1
  Basis Set: 6-31G*
  Basis Set:

  -Total Gradient:
     Atom            X                  Y                   Z
    ------   -----------------  -----------------  -----------------
       1       -0.000006616124    -0.000005773551    -0.000000826807
       2        0.000007727363    -0.000038370690     0.000008212126
       3       -0.000002618722     0.000037611069    -0.000020880590
       4       -0.000008863622    -0.000022755619    -0.000010091923
       5        0.000000362800     0.000008897336     0.000010094506
       6        0.000000202081    -0.000004487441    -0.000006079587
       7       -0.000000310065     0.000011205761     0.000014057322
       8        0.000007666928     0.000001054850     0.000010011216
       9        0.000013769798     0.000002420529    -0.000007638613
      10       -0.000000678144     0.000003148329    -0.000001941675
      11        0.000002238610     0.000001451192     0.000002940894
      12       -0.000012880904     0.000005598237     0.000002143130

  **** Optimization is complete! (in 6 steps) ****
    Final optimized geometry and variables:
    Molecular point group: c1

    Geometry (in Angstrom), charge = 0, multiplicity = 1:

    H           -0.991864060633    -1.368563746386     0.503873312067
    O           -1.342010101963    -0.563344047263     0.151105455412
    C           -0.605333484830     0.528908301265     0.638305923379
    C            0.834682305780     0.646780693465     0.075594853134
    H           -1.181273648008     1.401063517913     0.361583584853
    H           -0.578550412803     0.500721474073     1.724938785245
    C            1.241403498542    -0.470553153537    -0.886557969060
    H            0.935873111310     1.597910278482    -0.438669017080
    H            1.542863314925     0.677405508944     0.899421381536
    H            0.570057998620    -0.527233869313    -1.734342616793
    H            2.245844725884    -0.294033208880    -1.257691831818
    H            1.243727257259    -1.442522775882    -0.401467217260

  Mulliken Charges: (a.u.)
   Center  Symbol    Alpha    Beta     Spin     Total
       1     H     0.28149  0.28149  0.00000  0.43703
       2     O     4.36845  4.36845  0.00000 -0.73690
       3     C     2.99595  2.99595  0.00000  0.00809
       4     C     3.17971  3.17971  0.00000 -0.35942
       5     H     0.41378  0.41378  0.00000  0.17244
       6     H     0.42874  0.42874  0.00000  0.14253
       7     C     3.23566  3.23566  0.00000 -0.47132
       8     H     0.41662  0.41662  0.00000  0.16676
       9     H     0.42068  0.42068  0.00000  0.15864
      10     H     0.40872  0.40872  0.00000  0.18257
      11     H     0.42003  0.42003  0.00000  0.15994
      12     H     0.43018  0.43018  0.00000  0.13964

   Total alpha = 17.00000, Total beta = 17.00000, Total charge = -0.00000
