  ==> Input File <==

--------------------------------------------------------------------------
set {
	reference rhf
	basis cc-pvtz
}

set_num_threads( 4 )
memory 2 gb

molecule MOL {
0 1

O	 -2.071633	 -1.227563	 -0.223463
C	 -1.652164	 -0.152425	 0.058082
C	 -0.327811	 0.006324	 0.778296
C	 -2.402515	 1.108629	 -0.298924
C	 0.843231	 -0.001575	 -0.211665
H	 -0.319484	 0.928173	 1.350354
H	 -0.227804	 -0.823091	 1.466705
C	 2.197693	 0.138030	 0.476937
H	 0.722944	 0.805202	 -0.930230
H	 0.813976	 -0.926978	 -0.776588
C	 3.256729	 -0.793439	 -0.102692
H	 2.538378	 1.166652	 0.396971
H	 2.080566	 -0.063735	 1.537649
H	 3.421758	 -0.592177	 -1.155922
H	 2.957897	 -1.831767	 -0.008119
H	 4.204543	 -0.673882	 0.408929
H	 -3.240910	 0.874416	 -0.936711
H	 -1.747554	 1.818823	 -0.790984
H	 -2.760419	 1.579708	 0.610998

	symmetry c1
}
set optking {
	frozen_dihedral = ("
		11 8 5 9
	")
}

ee = optimize('scf')
oeprop('DIPOLE', 'QUADRUPOLE', 'MULLIKEN_CHARGES')
f=open( 'psi4out.xyz', 'w' )
f.write( "19  " )
f.write( str(ee) + "\n" )
f.write( MOL.save_string_xyz() )
f.close()
--------------------------------------------------------------------------

    Molecular point group: c1
  Charge       = 0
  Multiplicity = 1
  Basis Set: CC-PVTZ
  Basis Set:
  @DF-RHF Final Energy:  -309.17264536520219
    Total Energy =                       -309.1726453652025270
    Molecular point group: c1
  Basis Set: CC-PVTZ
  Basis Set:
  Basis Set: CC-PVTZ
  Basis Set:
  @DF-RHF Final Energy:  -309.17289061960270
    Total Energy =                       -309.1728906196021853
  Basis Set: CC-PVTZ
  Basis Set:
  Basis Set: CC-PVTZ
  Basis Set:
  @DF-RHF Final Energy:  -309.17288020168809
    Total Energy =                       -309.1728802016876330
  Basis Set: CC-PVTZ
  Basis Set:
  Basis Set: CC-PVTZ
  Basis Set:
  @DF-RHF Final Energy:  -309.17294327979181
    Total Energy =                       -309.1729432797924346
  Basis Set: CC-PVTZ
  Basis Set:
  Basis Set: CC-PVTZ
  Basis Set:
  @DF-RHF Final Energy:  -309.17274243515897
    Total Energy =                       -309.1727424351588525
  Basis Set: CC-PVTZ
  Basis Set:
  Basis Set: CC-PVTZ
  Basis Set:
  @DF-RHF Final Energy:  -309.17297866468567
    Total Energy =                       -309.1729786646856155
  Basis Set: CC-PVTZ
  Basis Set:
  Charge       = 0
  Multiplicity = 1
  Basis Set: CC-PVTZ
  Basis Set:

    Orbital Energies (a.u.)
    -----------------------

    Doubly Occupied:

       1A    -20.536956     2A    -11.319214     3A    -11.228816
       4A    -11.228018     5A    -11.227029     6A    -11.222953
       7A    -11.212735     8A     -1.396979     9A     -1.091023
      10A     -1.029761    11A     -0.984427    12A     -0.890595
      13A     -0.807464    14A     -0.735454    15A     -0.660362
      16A     -0.651547    17A     -0.619795    18A     -0.615336
      19A     -0.586562    20A     -0.579427    21A     -0.547467
      22A     -0.535131    23A     -0.522481    24A     -0.498224
      25A     -0.481639    26A     -0.475854    27A     -0.467083
      28A     -0.398847

  @DF-RHF Final Energy:  -309.17297936585885

   => Energetics <=

    Nuclear Repulsion Energy =            301.9325361939064578
    One-Electron Energy =               -1017.1086752481755866
    Two-Electron Energy =                 406.0031596884103919
    DFT Exchange-Correlation Energy =       0.0000000000000000
    Empirical Dispersion Energy =           0.0000000000000000
    PCM Polarization Energy =               0.0000000000000000
    EFP Energy =                            0.0000000000000000
    Total Energy =                       -309.1729793658587369
    Molecular point group: c1
  Basis Set: CC-PVTZ
  Basis Set:

  -Total Gradient:
     Atom            X                  Y                   Z
    ------   -----------------  -----------------  -----------------
       1        0.000006544990     0.000007017837     0.000020568253
       2        0.000012746326    -0.000002039436    -0.000044305190
       3        0.000008553660     0.000004976540     0.000004836380
       4       -0.000012257969     0.000003175405     0.000023117219
       5        0.001745260832    -0.003439922792    -0.002669550359
       6       -0.000010319209    -0.000000791377     0.000002879360
       7        0.000000477709    -0.000002035391     0.000001172892
       8        0.000587931007     0.003275888602    -0.001897830279
       9       -0.001651891556     0.002148315287     0.002728716830
      10        0.000000249872     0.000002995606    -0.000006966738
      11       -0.000691019196    -0.001994535706     0.001836025598
      12        0.000001693217     0.000000057039     0.000010743801
      13       -0.000007730356    -0.000004181377    -0.000004219915
      14       -0.000003888740    -0.000013877055    -0.000006361616
      15        0.000012376817    -0.000003559615     0.000015610463
      16       -0.000005216755     0.000016485139    -0.000008131854
      17        0.000002226091    -0.000001632609    -0.000000760153
      18        0.000003469727    -0.000001557657    -0.000002459711
      19        0.000000793526     0.000005221560    -0.000003084980

  **** Optimization is complete! (in 7 steps) ****
    Final optimized geometry and variables:
    Molecular point group: c1

    Geometry (in Angstrom), charge = 0, multiplicity = 1:

    O           -2.081825055073    -1.077924669443    -0.281525780981
    C           -1.644150143171    -0.009548689196    -0.001449170693
    C           -0.316433502477     0.126780804221     0.716648797129
    C           -2.374669810102     1.263319487575    -0.357816614056
    C            0.854665398644     0.098805147305    -0.276302374071
    H           -0.290626876141     1.049189987169     1.287787653182
    H           -0.228298792423    -0.703370130911     1.405696675208
    C            2.218968576883     0.268807202666     0.414614772801
    H            0.710810583335     0.898982128594    -0.995764260455
    H            0.818889461791    -0.836107340105    -0.821537619315
    C            3.302176428652    -0.638005838026    -0.161339245257
    H            2.534314813600     1.304972946599     0.356778613943
    H            2.115772793050     0.045411110319     1.471894969985
    H            3.448609079057    -0.455835495902    -1.221036971235
    H            3.033822201686    -1.681649455358    -0.040793767391
    H            4.251976573256    -0.477941895808     0.335789653176
    H           -3.214596303761     1.042880354530    -0.998504938682
    H           -1.708502168734     1.965741935097    -0.845888227016
    H           -2.728659001747     1.736710108795     0.552475074846

  Mulliken Charges: (a.u.)
   Center  Symbol    Alpha    Beta     Spin     Total
       1     O     4.17695  4.17695  0.00000 -0.35389
       2     C     2.85890  2.85890  0.00000  0.28221
       3     C     3.10031  3.10031  0.00000 -0.20062
       4     C     3.15515  3.15515  0.00000 -0.31031
       5     C     3.09987  3.09987  0.00000 -0.19973
       6     H     0.44813  0.44813  0.00000  0.10374
       7     H     0.43931  0.43931  0.00000  0.12138
       8     C     3.08785  3.08785  0.00000 -0.17570
       9     H     0.45002  0.45002  0.00000  0.09996
      10     H     0.44097  0.44097  0.00000  0.11805
      11     C     3.14719  3.14719  0.00000 -0.29437
      12     H     0.45060  0.45060  0.00000  0.09879
      13     H     0.45404  0.45404  0.00000  0.09192
      14     H     0.45374  0.45374  0.00000  0.09252
      15     H     0.45269  0.45269  0.00000  0.09461
      16     H     0.44883  0.44883  0.00000  0.10233
      17     H     0.43605  0.43605  0.00000  0.12789
      18     H     0.45106  0.45106  0.00000  0.09787
      19     H     0.44833  0.44833  0.00000  0.10334

   Total alpha = 28.00000, Total beta = 28.00000, Total charge =  0.00000
