  ==> Input File <==

--------------------------------------------------------------------------
set {
	reference rhf
	basis 6-31G*
}

set_num_threads( 4 )
memory 2 gb

molecule MOL {
0 1

H	 1.136379	 0.211822	 1.465562
C	 1.135357	 0.094285	 0.374742
C	 0.065331	 0.871482	 -0.349150
O	 1.941633	 -0.601957	 -0.151457
C	 0.473137	 2.329130	 -0.606902
H	 -0.850173	 0.812098	 0.228119
H	 -0.105994	 0.372921	 -1.302169
C	 0.603216	 3.155763	 0.673012
H	 -0.267059	 2.783689	 -1.257668
H	 1.412568	 2.350015	 -1.155241
H	 -0.335008	 3.176827	 1.218740
H	 0.879465	 4.179910	 0.444698
H	 1.359765	 2.751013	 1.338745

	symmetry c1
}
set optking {
	frozen_dihedral = ("
		6 3 2 4
	")
}

ee = optimize('scf')
oeprop('DIPOLE', 'QUADRUPOLE', 'MULLIKEN_CHARGES')
f=open( 'psi4out.xyz', 'w' )
f.write( "13  " )
f.write( str(ee) + "\n" )
f.write( MOL.save_string_xyz() )
f.close()
--------------------------------------------------------------------------

    Molecular point group: c1
  Charge       = 0
  Multiplicity = 1
  Basis Set: 6-31G*
  Basis Set:
  @DF-RHF Final Energy:  -230.98259364856813
    Total Energy =                       -230.9825936485682405
    Molecular point group: c1
  Basis Set: 6-31G*
  Basis Set:
  Basis Set: 6-31G*
  Basis Set:
  @DF-RHF Final Energy:  -230.98291264454110
    Total Energy =                       -230.9829126445409884
  Basis Set: 6-31G*
  Basis Set:
  Basis Set: 6-31G*
  Basis Set:
  @DF-RHF Final Energy:  -230.98282072437999
    Total Energy =                       -230.9828207243799625
  Basis Set: 6-31G*
  Basis Set:
  Basis Set: 6-31G*
  Basis Set:
  @DF-RHF Final Energy:  -230.98297934247987
    Total Energy =                       -230.9829793424800073
  Basis Set: 6-31G*
  Basis Set:
  Basis Set: 6-31G*
  Basis Set:
  @DF-RHF Final Energy:  -230.98296826341229
    Total Energy =                       -230.9829682634123742
  Basis Set: 6-31G*
  Basis Set:
  Basis Set: 6-31G*
  Basis Set:
  @DF-RHF Final Energy:  -230.98298137983983
    Total Energy =                       -230.9829813798396856
  Basis Set: 6-31G*
  Basis Set:
  Charge       = 0
  Multiplicity = 1
  Basis Set: 6-31G*
  Basis Set:

    Orbital Energies (a.u.)
    -----------------------

    Doubly Occupied:

       1A    -20.562733     2A    -11.326195     3A    -11.238553
       4A    -11.235107     5A    -11.225007     6A     -1.402279
       7A     -1.084855     8A     -0.973081     9A     -0.854654
      10A     -0.778622    11A     -0.681638    12A     -0.644892
      13A     -0.608420    14A     -0.600926    15A     -0.566714
      16A     -0.533998    17A     -0.507031    18A     -0.494065
      19A     -0.480189    20A     -0.408909

  @DF-RHF Final Energy:  -230.98298138334604

   => Energetics <=

    Nuclear Repulsion Energy =            173.4556223624604172
    One-Electron Energy =                -656.4614712511353218
    Two-Electron Energy =                 252.0228675053286906
    DFT Exchange-Correlation Energy =       0.0000000000000000
    Empirical Dispersion Energy =           0.0000000000000000
    PCM Polarization Energy =               0.0000000000000000
    EFP Energy =                            0.0000000000000000
    Total Energy =                       -230.9829813833462140
    Molecular point group: c1
  Basis Set: 6-31G*
  Basis Set:

  -Total Gradient:
     Atom            X                  Y                   Z
    ------   -----------------  -----------------  -----------------
       1       -0.000001973871    -0.000000874143    -0.000000892191
       2       -0.000129646661    -0.000144428930     0.000023676840
       3       -0.000018962660    -0.000080243483    -0.000066193182
       4        0.000099865633     0.000115601116    -0.000008367440
       5        0.000003938932    -0.000009634516    -0.000006004750
       6        0.000039932851     0.000115871995     0.000068259116
       7        0.000002606422    -0.000000596967    -0.000003343039
       8       -0.000004350210    -0.000003222849    -0.000000770613
       9        0.000003653703     0.000005342278     0.000000182356
      10        0.000004359231     0.000004743537    -0.000003488787
      11        0.000003592275    -0.000005567717     0.000001660780
      12       -0.000003231485     0.000000304250    -0.000003933931
      13        0.000000215839     0.000002705429    -0.000000785159

  **** Optimization is complete! (in 7 steps) ****
    Final optimized geometry and variables:
    Molecular point group: c1

    Geometry (in Angstrom), charge = 0, multiplicity = 1:

    H            0.285851542795    -0.948407046623     1.473881906114
    C            0.270976319165    -1.079854539315     0.387042316043
    C           -0.782420089803    -0.305076314946    -0.366413712727
    O            1.069294825255    -1.789230009249    -0.135959253156
    C           -0.374630780015     1.161689992401    -0.599634812640
    H           -1.714995138794    -0.338152949693     0.192417946314
    H           -0.933832293772    -0.799181472021    -1.318871528860
    C           -0.241205359938     1.991399842550     0.678971901447
    H           -1.122117484574     1.616137482234    -1.242404169599
    H            0.560466716713     1.181570807708    -1.151567222676
    H           -1.162439103658     1.976924286371     1.254567640389
    H           -0.017789776757     3.025749977965     0.439936648853
    H            0.556699467098     1.628571504460     1.319536419891

  Mulliken Charges: (a.u.)
   Center  Symbol    Alpha    Beta     Spin     Total
       1     H     0.42924  0.42924  0.00000  0.14152
       2     C     2.83688  2.83688  0.00000  0.32624
       3     C     3.20428  3.20428  0.00000 -0.40856
       4     O     4.23679  4.23679  0.00000 -0.47357
       5     C     3.16216  3.16216  0.00000 -0.32432
       6     H     0.41475  0.41475  0.00000  0.17050
       7     H     0.39863  0.39863  0.00000  0.20275
       8     C     3.24540  3.24540  0.00000 -0.49079
       9     H     0.41231  0.41231  0.00000  0.17538
      10     H     0.40907  0.40907  0.00000  0.18187
      11     H     0.41932  0.41932  0.00000  0.16136
      12     H     0.41297  0.41297  0.00000  0.17407
      13     H     0.41822  0.41822  0.00000  0.16355

   Total alpha = 20.00000, Total beta = 20.00000, Total charge =  0.00000
