  ==> Input File <==

--------------------------------------------------------------------------
set {
	reference rhf
	basis cc-pvtz
}

set_num_threads( 4 )
memory 2 gb

molecule MOL {
0 1

H	 -1.835082	 1.385983	 0.000069
C	 -1.300516	 0.441153	 -0.000028
O	 -0.006604	 0.654344	 -0.000106
O	 -1.828920	 -0.612308	 0.000113
C	 0.852093	 -0.482521	 -0.000161
C	 1.725847	 -0.400340	 -1.229186
H	 0.246483	 -1.377615	 -0.000126
H	 1.438570	 -0.477283	 0.907573
H	 1.125353	 -0.402583	 -2.129948
H	 2.393131	 -1.253377	 -1.259402
H	 2.323418	 0.502293	 -1.217701

	symmetry c1
}
set optking {
	frozen_dihedral = ("
		7 5 3 2
	")
}

ee = optimize('scf')
oeprop('DIPOLE', 'QUADRUPOLE', 'MULLIKEN_CHARGES')
f=open( 'psi4out.xyz', 'w' )
f.write( "11  " )
f.write( str(ee) + "\n" )
f.write( MOL.save_string_xyz() )
f.close()
--------------------------------------------------------------------------

    Molecular point group: c1
  Charge       = 0
  Multiplicity = 1
  Basis Set: CC-PVTZ
  Basis Set:
  @DF-RHF Final Energy:  -266.92909036995832
    Total Energy =                       -266.9290903699582032
    Molecular point group: c1
  Basis Set: CC-PVTZ
  Basis Set:
  Basis Set: CC-PVTZ
  Basis Set:
  @DF-RHF Final Energy:  -266.92949705410172
    Total Energy =                       -266.9294970541017165
  Basis Set: CC-PVTZ
  Basis Set:
  Basis Set: CC-PVTZ
  Basis Set:
  @DF-RHF Final Energy:  -266.92889926971168
    Total Energy =                       -266.9288992697117351
  Basis Set: CC-PVTZ
  Basis Set:
  Basis Set: CC-PVTZ
  Basis Set:
  @DF-RHF Final Energy:  -266.92985392000310
    Total Energy =                       -266.9298539200032110
  Basis Set: CC-PVTZ
  Basis Set:
  Basis Set: CC-PVTZ
  Basis Set:
  @DF-RHF Final Energy:  -266.92991559242910
    Total Energy =                       -266.9299155924290403
  Basis Set: CC-PVTZ
  Basis Set:
  Basis Set: CC-PVTZ
  Basis Set:
  @DF-RHF Final Energy:  -266.92992584523370
    Total Energy =                       -266.9299258452334698
  Basis Set: CC-PVTZ
  Basis Set:
  Charge       = 0
  Multiplicity = 1
  Basis Set: CC-PVTZ
  Basis Set:

    Orbital Energies (a.u.)
    -----------------------

    Doubly Occupied:

       1A    -20.604553     2A    -20.544737     3A    -11.371387
       4A    -11.288635     5A    -11.224795     6A     -1.476837
       7A     -1.377620     8A     -1.052581     9A     -0.908846
      10A     -0.800554    11A     -0.747962    12A     -0.687593
      13A     -0.669103    14A     -0.613031    15A     -0.572634
      16A     -0.553682    17A     -0.534944    18A     -0.504369
      19A     -0.459906    20A     -0.457201

  @DF-RHF Final Energy:  -266.92992632044491

   => Energetics <=

    Nuclear Repulsion Energy =            180.0311504499203465
    One-Electron Energy =                -721.0202105584592118
    Two-Electron Energy =                 274.0591337880940728
    DFT Exchange-Correlation Energy =       0.0000000000000000
    Empirical Dispersion Energy =           0.0000000000000000
    PCM Polarization Energy =               0.0000000000000000
    EFP Energy =                            0.0000000000000000
    Total Energy =                       -266.9299263204447925
    Molecular point group: c1
  Basis Set: CC-PVTZ
  Basis Set:

  -Total Gradient:
     Atom            X                  Y                   Z
    ------   -----------------  -----------------  -----------------
       1       -0.000002020450     0.000004166958     0.000009213666
       2       -0.000033458084    -0.000013250851    -0.000017764013
       3        0.000007357253     0.000001745020     0.000003528130
       4        0.000018845425     0.000017280480     0.000009456342
       5       -0.000004835029    -0.000007264287     0.000001266612
       6        0.000016892741    -0.000001707229     0.000004382910
       7       -0.000002527466    -0.000005592323     0.000002295477
       8       -0.000005492480     0.000002079155    -0.000001860863
       9        0.000000118204     0.000000224325     0.000002649125
      10        0.000002689653     0.000001650892    -0.000006966218
      11        0.000002430235     0.000000667862    -0.000006201167

  **** Optimization is complete! (in 7 steps) ****
    Final optimized geometry and variables:
    Molecular point group: c1

    Geometry (in Angstrom), charge = 0, multiplicity = 1:

    H           -1.694095680908     1.499279620238     0.286323614986
    C           -1.194678818985     0.535543839608     0.267149913971
    O            0.105621585183     0.713708854878     0.252985715497
    O           -1.766821452512    -0.494560239676     0.259858821457
    C            0.979546329542    -0.413743108479     0.225164777079
    C            1.877459932306    -0.321117384904    -0.988659015988
    H            0.395701385441    -1.318445835481     0.219414358563
    H            1.555974239513    -0.375515593377     1.138815944333
    H            1.296967843506    -0.372253989894    -1.901455939840
    H            2.581947765090    -1.144795274136    -0.985727392448
    H            2.434903766547     0.606912767466    -0.986698704000

  Mulliken Charges: (a.u.)
   Center  Symbol    Alpha    Beta     Spin     Total
       1     H     0.45067  0.45067  0.00000  0.09866
       2     C     2.83952  2.83952  0.00000  0.32096
       3     O     4.14929  4.14929  0.00000 -0.29857
       4     O     4.19626  4.19626  0.00000 -0.39252
       5     C     2.98100  2.98100  0.00000  0.03800
       6     C     3.13429  3.13429  0.00000 -0.26858
       7     H     0.44278  0.44278  0.00000  0.11443
       8     H     0.45124  0.45124  0.00000  0.09753
       9     H     0.45042  0.45042  0.00000  0.09915
      10     H     0.45399  0.45399  0.00000  0.09201
      11     H     0.45054  0.45054  0.00000  0.09892

   Total alpha = 20.00000, Total beta = 20.00000, Total charge = -0.00000
