  ==> Input File <==

--------------------------------------------------------------------------
set {
	reference rhf
	basis 6-31G*
}

set_num_threads( 4 )
memory 2 gb

molecule MOL {
0 1

H	 -2.070127	 1.187161	 0.348881
C	 -2.007499	 0.214663	 -0.130166
O	 -0.774054	 0.001095	 -0.743181
H	 -2.751842	 0.174485	 -0.914175
H	 -2.244322	 -0.550212	 0.603369
C	 0.406953	 0.000033	 0.038965
C	 1.527284	 -0.003667	 -0.998752
C	 0.498933	 1.262172	 0.902524
C	 0.494271	 -1.259566	 0.906664
H	 1.452513	 0.873252	 -1.631882
H	 1.448863	 -0.881882	 -1.629595
H	 2.502020	 -0.005104	 -0.521731
H	 0.364280	 2.147110	 0.289513
H	 1.472180	 1.321775	 1.378800
H	 -0.247853	 1.275162	 1.689097
H	 0.356778	 -2.146106	 0.296587
H	 1.467182	 -1.320941	 1.383330
H	 -0.252763	 -1.267328	 1.693119

	symmetry c1
}
set optking {
	frozen_dihedral = ("
		2 3 6 7
	")
}

ee = optimize('scf')
oeprop('DIPOLE', 'QUADRUPOLE', 'MULLIKEN_CHARGES')
f=open( 'psi4out.xyz', 'w' )
f.write( "18  " )
f.write( str(ee) + "\n" )
f.write( MOL.save_string_xyz() )
f.close()
--------------------------------------------------------------------------

    Molecular point group: c1
  Charge       = 0
  Multiplicity = 1
  Basis Set: 6-31G*
  Basis Set:
  @DF-RHF Final Energy:  -271.17519218432227
    Total Energy =                       -271.1751921843219861
    Molecular point group: c1
  Basis Set: 6-31G*
  Basis Set:
  Basis Set: 6-31G*
  Basis Set:
  @DF-RHF Final Energy:  -271.17527244044697
    Total Energy =                       -271.1752724404469745
  Basis Set: 6-31G*
  Basis Set:
  Basis Set: 6-31G*
  Basis Set:
  @DF-RHF Final Energy:  -271.17534656902848
    Total Energy =                       -271.1753465690281928
  Basis Set: 6-31G*
  Basis Set:
  Basis Set: 6-31G*
  Basis Set:
  @DF-RHF Final Energy:  -271.17540433702999
    Total Energy =                       -271.1754043370301588
  Basis Set: 6-31G*
  Basis Set:
  Basis Set: 6-31G*
  Basis Set:
  @DF-RHF Final Energy:  -271.17540350069351
    Total Energy =                       -271.1754035006935055
  Basis Set: 6-31G*
  Basis Set:
  Basis Set: 6-31G*
  Basis Set:
  @DF-RHF Final Energy:  -271.17541993654493
    Total Energy =                       -271.1754199365448130
  Basis Set: 6-31G*
  Basis Set:
  Charge       = 0
  Multiplicity = 1
  Basis Set: 6-31G*
  Basis Set:

    Orbital Energies (a.u.)
    -----------------------

    Doubly Occupied:

       1A    -20.546742     2A    -11.281279     3A    -11.260754
       4A    -11.210039     5A    -11.207388     6A    -11.203288
       7A     -1.370059     8A     -1.073017     9A     -0.946526
      10A     -0.939171    11A     -0.912402    12A     -0.752305
      13A     -0.655404    14A     -0.644582    15A     -0.637553
      16A     -0.592153    17A     -0.574319    18A     -0.552600
      19A     -0.534312    20A     -0.524123    21A     -0.514724
      22A     -0.488551    23A     -0.486024    24A     -0.439184
      25A     -0.403856

  @DF-RHF Final Energy:  -271.17541998372781

   => Energetics <=

    Nuclear Repulsion Energy =            272.3366454378849539
    One-Electron Energy =                -907.5234190117193975
    Two-Electron Energy =                 364.0113535901066939
    DFT Exchange-Correlation Energy =       0.0000000000000000
    Empirical Dispersion Energy =           0.0000000000000000
    PCM Polarization Energy =               0.0000000000000000
    EFP Energy =                            0.0000000000000000
    Total Energy =                       -271.1754199837277497
    Molecular point group: c1
  Basis Set: 6-31G*
  Basis Set:

  -Total Gradient:
     Atom            X                  Y                   Z
    ------   -----------------  -----------------  -----------------
       1        0.000005489122    -0.000006767720    -0.000001621614
       2        0.000072284769     0.000558188129    -0.000084787767
       3       -0.000072173724    -0.000724233716     0.000176128031
       4        0.000003156390     0.000001029169    -0.000005131916
       5        0.000013971305    -0.000019596641     0.000024290666
       6        0.000055227466    -0.000296326552    -0.000069085233
       7        0.000021305588     0.000480466161    -0.000016603613
       8       -0.000006941327    -0.000007527206     0.000005529690
       9       -0.000064335463     0.000004068123    -0.000018441296
      10        0.000008985749    -0.000002656303    -0.000019619325
      11       -0.000004720399    -0.000000060901     0.000016116652
      12        0.000003617231     0.000009103487    -0.000003721371
      13        0.000006234814     0.000000136755    -0.000001110604
      14       -0.000003269336    -0.000004915273    -0.000005617840
      15       -0.000007912295    -0.000000789421     0.000007677496
      16       -0.000003569487    -0.000005545910     0.000004065491
      17       -0.000000894062     0.000017054805    -0.000010164609
      18       -0.000026456342    -0.000001626987     0.000002097162

  **** Optimization is complete! (in 7 steps) ****
    Final optimized geometry and variables:
    Molecular point group: c1

    Geometry (in Angstrom), charge = 0, multiplicity = 1:

    H           -2.113726842358     1.191102466989     0.246188064190
    C           -2.008142440134     0.175281969887    -0.122516626433
    O           -0.776710283102    -0.035679186782    -0.740401573086
    H           -2.765160424648     0.006578276727    -0.876766029596
    H           -2.187469856756    -0.512183074720     0.699150064233
    C            0.405950072167    -0.034751200214     0.039861400967
    C            1.527827782175    -0.035589257210    -0.996058107360
    C            0.506844512174     1.218790356556     0.914556058994
    C            0.479237296734    -1.302503305687     0.896460703286
    H            1.469307292126     0.854869287275    -1.611790875627
    H            1.435691685860    -0.899644481966    -1.644350055123
    H            2.501623742973    -0.063914089430    -0.517804441355
    H            0.375982964744     2.112559956150     0.313269086216
    H            1.483215951875     1.266798307110     1.385226142132
    H           -0.235729212252     1.227141102425     1.705371655827
    H            0.370483916582    -2.181854041791     0.270996324943
    H            1.434476875141    -1.361670082464     1.408394122977
    H           -0.297401039304    -1.326293907116     1.653414723236

  Mulliken Charges: (a.u.)
   Center  Symbol    Alpha    Beta     Spin     Total
       1     H     0.42809  0.42809  0.00000  0.14381
       2     C     3.07939  3.07939  0.00000 -0.15877
       3     O     4.31879  4.31879  0.00000 -0.63759
       4     H     0.41279  0.41279  0.00000  0.17441
       5     H     0.43097  0.43097  0.00000  0.13805
       6     C     2.84262  2.84262  0.00000  0.31476
       7     C     3.23297  3.23297  0.00000 -0.46594
       8     C     3.25106  3.25106  0.00000 -0.50211
       9     C     3.24302  3.24302  0.00000 -0.48603
      10     H     0.41491  0.41491  0.00000  0.17019
      11     H     0.41354  0.41354  0.00000  0.17291
      12     H     0.42514  0.42514  0.00000  0.14973
      13     H     0.41355  0.41355  0.00000  0.17289
      14     H     0.41813  0.41813  0.00000  0.16373
      15     H     0.41948  0.41948  0.00000  0.16105
      16     H     0.41333  0.41333  0.00000  0.17333
      17     H     0.42139  0.42139  0.00000  0.15723
      18     H     0.42083  0.42083  0.00000  0.15834

   Total alpha = 25.00000, Total beta = 25.00000, Total charge = -0.00000
