                              Psi4 1.0.54 Driver

  ==> Input File <==

--------------------------------------------------------------------------
set {
	reference rhf
	basis cc-pvtz
}

set_num_threads( 4 )
memory 2 gb

molecule MOL {
0 1

H	 2.911403	 -0.262939	 1.954915
O	 1.998053	 -0.461635	 2.053598
C	 1.276541	 0.027240	 1.026034
C	 1.857823	 0.727975	 -0.019797
C	 -0.086124	 -0.189652	 1.037091
H	 2.919492	 0.896025	 -0.026814
C	 1.076517	 1.209527	 -1.050633
H	 -0.538051	 -0.730476	 1.843387
C	 -0.861704	 0.296439	 0.000000
H	 1.537245	 1.750272	 -1.854467
C	 -0.287363	 0.996837	 -1.047090
C	 -2.330689	 0.069587	 0.000000
H	 -0.897479	 1.370093	 -1.847295
O	 -2.848621	 -0.993976	 0.000000
H	 -2.934306	 0.982410	 0.000000

	symmetry c1
}
set optking {
	frozen_dihedral = ("
		11 9 12 14
	")
}

ee,wfn = optimize('scf', return_wfn=True)
oeprop( wfn, 'DIPOLE', 'QUADRUPOLE', 'MULLIKEN_CHARGES')
f=open( 'psi4out.xyz', 'w' )
f.write( "15  " )
f.write( str(ee) + "\n" )
f.write( MOL.save_string_xyz() )
f.close()
--------------------------------------------------------------------------

    Molecular point group: c1
  Charge       = 0
  Multiplicity = 1
  Basis Set: CC-PVTZ
  Basis Set:
  @DF-RHF Final Energy:  -418.43003870082964
    Total Energy =                       -418.4300387008297548
    Molecular point group: c1
  Basis Set: CC-PVTZ
  Basis Set:
  Basis Set: CC-PVTZ
  Basis Set:
  @DF-RHF Final Energy:  -418.42839766283652
    Total Energy =                       -418.4283976628361188
  Basis Set: CC-PVTZ
  Basis Set:
  Basis Set: CC-PVTZ
  Basis Set:
  @DF-RHF Final Energy:  -418.43039117618264
    Total Energy =                       -418.4303911761827521
  Basis Set: CC-PVTZ
  Basis Set:
  Basis Set: CC-PVTZ
  Basis Set:
  @DF-RHF Final Energy:  -418.43059085321715
    Total Energy =                       -418.4305908532172680
  Basis Set: CC-PVTZ
  Basis Set:
  Basis Set: CC-PVTZ
  Basis Set:
  @DF-RHF Final Energy:  -418.43059449681647
    Total Energy =                       -418.4305944968164113
  Basis Set: CC-PVTZ
  Basis Set:
  Charge       = 0
  Multiplicity = 1
  Basis Set: CC-PVTZ
  Basis Set:

    Orbital Energies (a.u.)
    -----------------------

    Doubly Occupied:

       1A    -20.595823     2A    -20.561341     3A    -11.331535
       4A    -11.311583     5A    -11.254490     6A    -11.249924
       7A    -11.241104     8A    -11.238690     9A    -11.237056
      10A     -1.427697    11A     -1.416131    12A     -1.172565
      13A     -1.050757    14A     -1.028389    15A     -0.901679
      16A     -0.847165    17A     -0.819603    18A     -0.741730
      19A     -0.704389    20A     -0.685703    21A     -0.657006
      22A     -0.643967    23A     -0.616249    24A     -0.607229
      25A     -0.584959    26A     -0.548235    27A     -0.538005
      28A     -0.516511    29A     -0.495992    30A     -0.427183
      31A     -0.357431    32A     -0.328809

  @DF-RHF Final Energy:  -418.43059518209469

   => Energetics <=

    Nuclear Repulsion Energy =            403.5799850453624344
    One-Electron Energy =               -1369.7433037083808358
    Two-Electron Energy =                 547.7327234809240508
    DFT Exchange-Correlation Energy =       0.0000000000000000
    Empirical Dispersion Energy =           0.0000000000000000
    PCM Polarization Energy =               0.0000000000000000
    EFP Energy =                            0.0000000000000000
    Total Energy =                       -418.4305951820942937
    Molecular point group: c1
  Basis Set: CC-PVTZ
  Basis Set:

  -Total Gradient:
     Atom            X                  Y                   Z
    ------   -----------------  -----------------  -----------------
       1       -0.000007421349     0.000020078296     0.000006318948
       2        0.000008998115     0.000012437577    -0.000013990750
       3       -0.000086105603    -0.000116713048     0.000025130036
       4       -0.000013956941     0.000075194850    -0.000090208948
       5        0.000095389776     0.000022746352     0.000058702541
       6        0.000004779121    -0.000011578841     0.000004365618
       7        0.000120264597     0.000008138728     0.000071102407
       8        0.000000664180     0.000008506988    -0.000008417335
       9       -0.001207363128     0.006217588515     0.000644151474
      10       -0.000004180355    -0.000004642062    -0.000003537381
      11        0.000848215297    -0.004347596726    -0.002338256129
      12        0.000115124685    -0.001758410846     0.007836903422
      13        0.000002165797     0.000009737273    -0.000004621371
      14        0.000160145828    -0.000125759990    -0.006176248755
      15       -0.000036720023    -0.000009727066    -0.000011393770

  **** Optimization is complete! (in 6 steps) ****
    Final optimized geometry and variables:
    Molecular point group: c1

    Geometry (in Angstrom), charge = 0, multiplicity = 1:

    H            2.924851275290    -0.404441626563     1.695166896792
    O            2.010019154590    -0.596786883279     1.794965294993
    C            1.294094246132    -0.103633144010     0.766907434988
    C            1.873977422172     0.604898637043    -0.270048738278
    C           -0.069887083864    -0.337352375926     0.768657736410
    H            2.934674990123     0.777940406821    -0.276195464562
    C            1.086476952932     1.085425825451    -1.298901526810
    H           -0.504600914404    -0.914185356032     1.560469325384
    C           -0.848567523403     0.169346160687    -0.251208943047
    H            1.545042133701     1.623768816354    -2.105892184808
    C           -0.276958772550     0.879352495322    -1.295078378179
    C           -2.313380510010    -0.130633332901    -0.293078563230
    H           -0.885794840097     1.261034984253    -2.092474491448
    O           -2.761255527914    -1.223551124438    -0.288419076277
    H           -2.971080068090     0.739056664787    -0.392530782020

  Mulliken Charges: (a.u.)
   Center  Symbol    Alpha    Beta     Spin     Total
       1     H     0.38666  0.38666  0.00000  0.22667
       2     O     4.17089  4.17089  0.00000 -0.34178
       3     C     2.83680  2.83680  0.00000  0.32640
       4     C     3.13653  3.13653  0.00000 -0.27306
       5     C     3.12839  3.12839  0.00000 -0.25677
       6     H     0.43237  0.43237  0.00000  0.13526
       7     C     3.05700  3.05700  0.00000 -0.11400
       8     H     0.41318  0.41318  0.00000  0.17364
       9     C     2.93603  2.93603  0.00000  0.12794
      10     H     0.41966  0.41966  0.00000  0.16067
      11     C     3.11529  3.11529  0.00000 -0.23059
      12     C     2.92894  2.92894  0.00000  0.14213
      13     H     0.42480  0.42480  0.00000  0.15039
      14     O     4.15784  4.15784  0.00000 -0.31568
      15     H     0.45561  0.45561  0.00000  0.08877

   Total alpha = 32.00000, Total beta = 32.00000, Total charge =  0.00000

*** Psi4 exiting successfully. Buy a developer a beer!
