  ==> Input File <==

--------------------------------------------------------------------------
set {
	reference rhf
	basis cc-pvtz
}

set_num_threads( 4 )
memory 2 gb

molecule MOL {
0 1

H	 -0.000342	 -0.223902	 -3.352295
C	 -0.027146	 0.371068	 -2.446756
C	 0.024493	 -0.518541	 -1.216015
H	 -0.932586	 0.964979	 -2.449855
H	 0.819708	 1.049865	 -2.473332
N	 -0.042516	 0.263377	 -0.000000
H	 -0.822211	 -1.197105	 -1.225584
H	 0.921114	 -1.142847	 -1.255206
C	 0.024493	 -0.518541	 1.216015
H	 0.682568	 0.950412	 -0.000000
C	 -0.292452	 0.330757	 2.435455
H	 -0.700021	 -1.322573	 1.138172
H	 1.000377	 -0.993710	 1.346736
H	 -1.276445	 0.773808	 2.345877
H	 -0.263214	 -0.267705	 3.338614
H	 0.428510	 1.134432	 2.549267

	symmetry c1
}
set optking {
	frozen_dihedral = ("
		12 9 6 3
	")
}

ee = optimize('scf')
oeprop('DIPOLE', 'QUADRUPOLE', 'MULLIKEN_CHARGES')
f=open( 'psi4out.xyz', 'w' )
f.write( "16  " )
f.write( str(ee) + "\n" )
f.write( MOL.save_string_xyz() )
f.close()
--------------------------------------------------------------------------

    Molecular point group: c1
  Charge       = 0
  Multiplicity = 1
  Basis Set: CC-PVTZ
  Basis Set:
  @DF-RHF Final Energy:  -212.39429220278564
    Total Energy =                       -212.3942922027854934
    Molecular point group: c1
  Basis Set: CC-PVTZ
  Basis Set:
  Basis Set: CC-PVTZ
  Basis Set:
  @DF-RHF Final Energy:  -212.39433337218580
    Total Energy =                       -212.3943333721861109
  Basis Set: CC-PVTZ
  Basis Set:
  Basis Set: CC-PVTZ
  Basis Set:
  @DF-RHF Final Energy:  -212.39433827249178
    Total Energy =                       -212.3943382724917797
  Basis Set: CC-PVTZ
  Basis Set:
  Charge       = 0
  Multiplicity = 1
  Basis Set: CC-PVTZ
  Basis Set:

    Orbital Energies (a.u.)
    -----------------------

    Doubly Occupied:

       1A    -15.528364     2A    -11.239201     3A    -11.239013
       4A    -11.206695     5A    -11.205116     6A     -1.206888
       7A     -1.028842     8A     -0.963937     9A     -0.832566
      10A     -0.821965    11A     -0.663539    12A     -0.629304
      13A     -0.600386    14A     -0.586342    15A     -0.554950
      16A     -0.521923    17A     -0.508268    18A     -0.489830
      19A     -0.481073    20A     -0.476505    21A     -0.360579

  @DF-RHF Final Energy:  -212.39433858742782

   => Energetics <=

    Nuclear Repulsion Energy =            189.3772951894154914
    One-Electron Energy =                -661.2526896327971144
    Two-Electron Energy =                 259.4810558559536275
    DFT Exchange-Correlation Energy =       0.0000000000000000
    Empirical Dispersion Energy =           0.0000000000000000
    PCM Polarization Energy =               0.0000000000000000
    EFP Energy =                            0.0000000000000000
    Total Energy =                       -212.3943385874280239
    Molecular point group: c1
  Basis Set: CC-PVTZ
  Basis Set:

  -Total Gradient:
     Atom            X                  Y                   Z
    ------   -----------------  -----------------  -----------------
       1        0.000002074089     0.000002934515    -0.000012432570
       2       -0.000009803670    -0.000000572115    -0.000006687359
       3       -0.001414738823    -0.000159107805    -0.000035673346
       4        0.000003044626    -0.000000294359     0.000001747388
       5       -0.000003210025    -0.000006757345     0.000004424198
       6        0.002327680417    -0.000010263161    -0.000173746558
       7        0.000006686134     0.000020363003     0.000014354134
       8       -0.000006989477     0.000011189589     0.000010227950
       9       -0.002205688690     0.001248595252     0.001001930355
      10       -0.000003343302    -0.000010048338    -0.000005904167
      11        0.000005709053    -0.000003104022    -0.000017957874
      12        0.001289642150    -0.001082594599    -0.000754319253
      13        0.000002356817     0.000004232310    -0.000003159488
      14        0.000006042139    -0.000002228736    -0.000005230625
      15        0.000001745951    -0.000004199255    -0.000005994127
      16       -0.000001207390    -0.000008144931    -0.000011578661

  **** Optimization is complete! (in 4 steps) ****
    Final optimized geometry and variables:
    Molecular point group: c1

    Geometry (in Angstrom), charge = 0, multiplicity = 1:

    H            0.062400514846    -0.210851167335    -3.351520679132
    C            0.035405990426     0.381501313124    -2.444296152356
    C            0.078686040294    -0.512051827921    -1.216048503997
    H           -0.867364767829     0.979551596869    -2.448380127838
    H            0.885570808475     1.056276339278    -2.466141587595
    N            0.004187662701     0.267063401286     0.000846879569
    H           -0.768987180882    -1.188796939011    -1.232589492559
    H            0.974996608060    -1.137294578067    -1.253859689738
    C            0.073566963514    -0.509681837456     1.220278358457
    H            0.711673699863     0.971588186572     0.002398312037
    C           -0.232746886949     0.341914073691     2.440330689817
    H           -0.645569045046    -1.317949080287     1.142232060952
    H            1.048173178254    -0.989142870592     1.346602928193
    H           -1.220896400485     0.777380608084     2.362211927474
    H           -0.184356133088    -0.251517702109     3.346365396372
    H            0.483027679720     1.152107801333     2.537766041155

  Mulliken Charges: (a.u.)
   Center  Symbol    Alpha    Beta     Spin     Total
       1     H     0.45387  0.45387  0.00000  0.09226
       2     C     3.14247  3.14247  0.00000 -0.28493
       3     C     3.02120  3.02120  0.00000 -0.04240
       4     H     0.44954  0.44954  0.00000  0.10091
       5     H     0.45940  0.45940  0.00000  0.08121
       6     N     3.63800  3.63800  0.00000 -0.27600
       7     H     0.45846  0.45846  0.00000  0.08308
       8     H     0.47490  0.47490  0.00000  0.05020
       9     C     3.02499  3.02499  0.00000 -0.04998
      10     H     0.44360  0.44360  0.00000  0.11281
      11     C     3.13923  3.13923  0.00000 -0.27846
      12     H     0.45832  0.45832  0.00000  0.08337
      13     H     0.47141  0.47141  0.00000  0.05718
      14     H     0.45040  0.45040  0.00000  0.09920
      15     H     0.45525  0.45525  0.00000  0.08951
      16     H     0.45897  0.45897  0.00000  0.08206

   Total alpha = 21.00000, Total beta = 21.00000, Total charge = -0.00000
