                              Psi4 1.0.54 Driver

  ==> Input File <==

--------------------------------------------------------------------------
set {
	reference rhf
	basis cc-pvtz
}

set_num_threads( 4 )
memory 2 gb

molecule MOL {
0 1

O	 3.219313	 0.959291	 -0.614106
C	 2.698710	 0.058177	 -0.050237
C	 1.246364	 -0.005813	 0.348416
O	 3.344101	 -1.038700	 0.312317
C	 0.453207	 1.232821	 -0.049003
H	 0.839270	 -0.907818	 -0.092281
H	 1.216683	 -0.160521	 1.422434
C	 -0.998367	 1.217982	 0.432195
H	 0.481498	 1.345443	 -1.127236
H	 0.951413	 2.105557	 0.354893
C	 -1.882951	 0.151251	 -0.211235
H	 -1.429490	 2.193659	 0.228843
H	 -1.019755	 1.099323	 1.513279
C	 -2.790426	 0.708744	 -1.304614
H	 -1.252046	 -0.628351	 -0.632009
H	 -2.498896	 -0.329040	 0.543396
C	 -3.683130	 -0.347059	 -1.950472
H	 -2.180403	 1.179217	 -2.071991
H	 -3.413278	 1.496629	 -0.887290
C	 -4.585364	 0.217174	 -3.042896
H	 -3.062164	 -1.134908	 -2.368105
H	 -4.295522	 -0.816325	 -1.185213
H	 -5.205198	 -0.557340	 -3.479837
H	 -4.001345	 0.662768	 -3.841318
H	 -5.243689	 0.984540	 -2.649239
C	 4.720529	 -1.114346	 0.001449
H	 4.874321	 -1.055557	 -1.065852
H	 5.057824	 -2.067950	 0.373977
H	 5.264321	 -0.313596	 0.480350

	symmetry c1
}
set optking {
	frozen_dihedral = ("
		15 11 8 5
	")
}

ee,wfn = optimize('scf', return_wfn=True)
oeprop( wfn, 'DIPOLE', 'QUADRUPOLE', 'MULLIKEN_CHARGES')
f=open( 'psi4out.xyz', 'w' )
f.write( "29  " )
f.write( str(ee) + "\n" )
f.write( MOL.save_string_xyz() )
f.close()
--------------------------------------------------------------------------

    Molecular point group: c1
  Charge       = 0
  Multiplicity = 1
  Basis Set: CC-PVTZ
  Basis Set:
  @DF-RHF Final Energy:  -501.21999523608201
    Total Energy =                       -501.2199952360813313
    Molecular point group: c1
  Basis Set: CC-PVTZ
  Basis Set:
  Basis Set: CC-PVTZ
  Basis Set:
  @DF-RHF Final Energy:  -501.21960764916105
    Total Energy =                       -501.2196076491610484
  Basis Set: CC-PVTZ
  Basis Set:
  Basis Set: CC-PVTZ
  Basis Set:
  @DF-RHF Final Energy:  -501.22044792903603
    Total Energy =                       -501.2204479290355721
  Basis Set: CC-PVTZ
  Basis Set:
  Basis Set: CC-PVTZ
  Basis Set:
  @DF-RHF Final Energy:  -501.22051783445124
    Total Energy =                       -501.2205178344510159
  Basis Set: CC-PVTZ
  Basis Set:
  @DF-RHF Final Energy:  -501.22029633385000
    Total Energy =                       -501.2202963338503423
  Basis Set: CC-PVTZ
  Basis Set:
  @DF-RHF Final Energy:  -501.22062087061306
    Total Energy =                       -501.2206208706129473
  Basis Set: CC-PVTZ
  Basis Set:
  Basis Set: CC-PVTZ
  Basis Set:
  @DF-RHF Final Energy:  -501.22062330570441
    Total Energy =                       -501.2206233057054305
  Basis Set: CC-PVTZ
  Basis Set:
  Basis Set: CC-PVTZ
  Basis Set:
  @DF-RHF Final Energy:  -501.22062567927685
    Total Energy =                       -501.2206256792774184
  Basis Set: CC-PVTZ
  Basis Set:
  Charge       = 0
  Multiplicity = 1
  Basis Set: CC-PVTZ
  Basis Set:

    Orbital Energies (a.u.)
    -----------------------

    Doubly Occupied:

       1A    -20.596153     2A    -20.534004     3A    -11.364420
       4A    -11.278383     5A    -11.233081     6A    -11.217471
       7A    -11.215320     8A    -11.213583     9A    -11.213111
      10A    -11.211672    11A    -11.206393    12A     -1.472049
      13A     -1.365632    14A     -1.098630    15A     -1.067308
      16A     -1.019325    17A     -0.977451    18A     -0.928176
      19A     -0.863286    20A     -0.803136    21A     -0.788007
      22A     -0.765039    23A     -0.702798    24A     -0.686030
      25A     -0.675679    26A     -0.651044    27A     -0.627909
      28A     -0.607910    29A     -0.594582    30A     -0.576222
      31A     -0.566328    32A     -0.559064    33A     -0.534373
      34A     -0.527247    35A     -0.520350    36A     -0.511637
      37A     -0.494476    38A     -0.477563    39A     -0.473856
      40A     -0.461209    41A     -0.459036    42A     -0.454206
      43A     -0.443932    44A     -0.437183

  @DF-RHF Final Energy:  -501.22062597636636

   => Energetics <=

    Nuclear Repulsion Energy =            616.0204715980580659
    One-Electron Energy =               -1903.5336708971797179
    Two-Electron Energy =                 786.2925733227552882
    DFT Exchange-Correlation Energy =       0.0000000000000000
    Empirical Dispersion Energy =           0.0000000000000000
    PCM Polarization Energy =               0.0000000000000000
    EFP Energy =                            0.0000000000000000
    Total Energy =                       -501.2206259763663638
    Molecular point group: c1
  Basis Set: CC-PVTZ
  Basis Set:

  -Total Gradient:
     Atom            X                  Y                   Z
    ------   -----------------  -----------------  -----------------
       1       -0.000020745560    -0.000009220930     0.000035718014
       2        0.000006257145    -0.000000418040    -0.000026043241
       3       -0.000000549482    -0.000011029826    -0.000024757766
       4       -0.000013995217     0.000010715988    -0.000007380499
       5        0.000464694771    -0.001170540618     0.001258613942
       6        0.000009181283     0.000015915620     0.000013185807
       7        0.000005633828     0.000006762975     0.000007014644
       8       -0.000631841045     0.001954758377    -0.002296098208
       9       -0.000001972162     0.000002012610     0.000009716087
      10       -0.000006828976    -0.000016805547    -0.000007960224
      11        0.000122581000    -0.002033207575     0.003103404878
      12       -0.000009793272    -0.000002903008    -0.000002266091
      13       -0.000003702359    -0.000003382159     0.000001570578
      14       -0.000009655113     0.000010979708     0.000008714634
      15        0.000071471717     0.001248312984    -0.002075943827
      16        0.000001809063     0.000003935056    -0.000000660634
      17       -0.000001162726     0.000000240411     0.000003485063
      18       -0.000002021694     0.000000541735     0.000000966012
      19        0.000000733612    -0.000002986442    -0.000007667638
      20        0.000000109070    -0.000000811676    -0.000000907433
      21       -0.000003517725     0.000003831580     0.000003437830
      22        0.000000524012     0.000001490512     0.000001480070
      23        0.000005145965     0.000003392519     0.000001106091
      24       -0.000001155932     0.000001417729    -0.000000896532
      25        0.000003154285    -0.000004806364    -0.000000723476
      26        0.000015716671    -0.000007583229     0.000001238105
      27        0.000001505338     0.000002564769     0.000006151531
      28        0.000000205562     0.000001494872    -0.000000386228
      29       -0.000001782056    -0.000004672032    -0.000004111487

  **** Optimization is complete! (in 9 steps) ****
    Final optimized geometry and variables:
    Molecular point group: c1

    Geometry (in Angstrom), charge = 0, multiplicity = 1:

    O            2.959170973059     0.667358176823    -0.215031492214
    C            2.484576749396    -0.134379351371     0.515071893992
    C            1.064486932540    -0.128115293581     1.020222363001
    O            3.159654710856    -1.166888701372     0.993701140660
    C            0.242875803884     1.050993745033     0.515094079793
    H            0.625552006537    -1.079003306212     0.741350971552
    H            1.110546983532    -0.131872014291     2.104410916189
    C           -1.202837905359     1.035421521953     1.018252373762
    H            0.259979579122     1.064697438164    -0.569065577255
    H            0.725585186241     1.967748152030     0.831724489013
    C           -2.102657234588    -0.024766907212     0.354996172622
    H           -1.636297205711     2.016721244721     0.859161511783
    H           -1.192354527472     0.888552401373     2.094389619456
    C           -3.002293308568     0.553615561792    -0.737185131198
    H           -1.491677285320    -0.801967227724    -0.093653761629
    H           -2.722424127068    -0.511004396801     1.100881358677
    C           -3.849169449934    -0.497754789563    -1.447699608175
    H           -2.389493173115     1.074588716853    -1.469436398652
    H           -3.655775262844     1.304696751500    -0.300078516339
    C           -4.754075147075     0.089120668889    -2.525996112365
    H           -3.196397489152    -1.243671579753    -1.893101793990
    H           -4.456170530746    -1.023806928285    -0.715611718320
    H           -5.339854244880    -0.683353458755    -3.010911262617
    H           -4.173988999124     0.593656750686    -3.291528306201
    H           -5.444619729721     0.812921218878    -2.106018907422
    C            4.510882280881    -1.297225522178     0.600965177923
    H            4.588087743347    -1.402546408746    -0.471036830497
    H            4.878573262296    -2.184962423739     1.089457683940
    H            5.083363490565    -0.436125187971     0.912418124295

  Mulliken Charges: (a.u.)
   Center  Symbol    Alpha    Beta     Spin     Total
       1     O     4.19681  4.19681  0.00000 -0.39362
       2     C     2.80458  2.80458  0.00000  0.39084
       3     C     3.10190  3.10190  0.00000 -0.20380
       4     O     4.14741  4.14741  0.00000 -0.29482
       5     C     3.09016  3.09016  0.00000 -0.18032
       6     H     0.43901  0.43901  0.00000  0.12197
       7     H     0.43925  0.43925  0.00000  0.12149
       8     C     3.11508  3.11508  0.00000 -0.23015
       9     H     0.44516  0.44516  0.00000  0.10969
      10     H     0.44133  0.44133  0.00000  0.11734
      11     C     3.09979  3.09979  0.00000 -0.19958
      12     H     0.44491  0.44491  0.00000  0.11017
      13     H     0.44680  0.44680  0.00000  0.10640
      14     C     3.08408  3.08408  0.00000 -0.16816
      15     H     0.45554  0.45554  0.00000  0.08892
      16     H     0.44641  0.44641  0.00000  0.10718
      17     C     3.08478  3.08478  0.00000 -0.16955
      18     H     0.45316  0.45316  0.00000  0.09367
      19     H     0.45380  0.45380  0.00000  0.09240
      20     C     3.15016  3.15016  0.00000 -0.30032
      21     H     0.45469  0.45469  0.00000  0.09062
      22     H     0.45496  0.45496  0.00000  0.09008
      23     H     0.44847  0.44847  0.00000  0.10306
      24     H     0.45471  0.45471  0.00000  0.09058
      25     H     0.45516  0.45516  0.00000  0.08967
      26     C     3.03798  3.03798  0.00000 -0.07596
      27     H     0.45438  0.45438  0.00000  0.09123
      28     H     0.44527  0.44527  0.00000  0.10947
      29     H     0.45424  0.45424  0.00000  0.09151

   Total alpha = 44.00000, Total beta = 44.00000, Total charge = -0.00000

*** Psi4 exiting successfully. Buy a developer a beer!
