  ==> Input File <==

--------------------------------------------------------------------------
set {
	reference rhf
	basis 6-31G*
}

set_num_threads( 4 )
memory 2 gb

molecule MOL {
0 1

H	 -0.821032	 -1.655889	 0.000000
O	 -1.037828	 -0.728600	 0.000000
C	 0.100509	 -0.036935	 0.000000
C	 1.258505	 -0.866162	 0.476793
O	 0.154418	 1.098283	 -0.342924
H	 1.062699	 -1.221985	 1.481664
H	 2.159377	 -0.271715	 0.462153
H	 1.373515	 -1.733523	 -0.162873

	symmetry c1
}
set optking {
	frozen_dihedral = ("
		4 3 2 1
	")
}

ee = optimize('scf')
oeprop('DIPOLE', 'QUADRUPOLE', 'MULLIKEN_CHARGES')
f=open( 'psi4out.xyz', 'w' )
f.write( "8  " )
f.write( str(ee) + "\n" )
f.write( MOL.save_string_xyz() )
f.close()
--------------------------------------------------------------------------

    Molecular point group: c1
  Charge       = 0
  Multiplicity = 1
  Basis Set: 6-31G*
  Basis Set:
  @DF-RHF Final Energy:  -227.79581614642959
    Total Energy =                       -227.7958161464296722
    Molecular point group: c1
  Basis Set: 6-31G*
  Basis Set:
  Basis Set: 6-31G*
  Basis Set:
  @DF-RHF Final Energy:  -227.79605306401322
    Total Energy =                       -227.7960530640133356
  Basis Set: 6-31G*
  Basis Set:
  Basis Set: 6-31G*
  Basis Set:
  @DF-RHF Final Energy:  -227.79727595224949
    Total Energy =                       -227.7972759522495210
  Basis Set: 6-31G*
  Basis Set:
  Basis Set: 6-31G*
  Basis Set:
  @DF-RHF Final Energy:  -227.79761179882826
    Total Energy =                       -227.7976117988281430
  Basis Set: 6-31G*
  Basis Set:
  @DF-RHF Final Energy:  -227.79766579042547
    Total Energy =                       -227.7976657904254125
  @DF-RHF Final Energy:  -227.79767639442301
    Total Energy =                       -227.7976763944230072
  @DF-RHF Final Energy:  -227.79767940954994
    Total Energy =                       -227.7976794095498576
  @DF-RHF Final Energy:  -227.79768085621367
    Total Energy =                       -227.7976808562136739
  @DF-RHF Final Energy:  -227.79670716799154
    Total Energy =                       -227.7967071679914852
  Basis Set: 6-31G*
  Basis Set:
  @DF-RHF Final Energy:  -227.79750614374331
    Total Energy =                       -227.7975061437432771
  Basis Set: 6-31G*
  Basis Set:
  Basis Set: 6-31G*
  Basis Set:
  @DF-RHF Final Energy:  -227.79767757194981
    Total Energy =                       -227.7976775719498050
  Basis Set: 6-31G*
  Basis Set:
  Basis Set: 6-31G*
  Basis Set:
  @DF-RHF Final Energy:  -227.79768126867970
    Total Energy =                       -227.7976812686797530
  Basis Set: 6-31G*
  Basis Set:
  Charge       = 0
  Multiplicity = 1
  Basis Set: 6-31G*
  Basis Set:

    Orbital Energies (a.u.)
    -----------------------

    Doubly Occupied:

       1A    -20.614317     2A    -20.550283     3A    -11.385630
       4A    -11.252098     5A     -1.470238     6A     -1.372617
       7A     -1.027295     8A     -0.839795     9A     -0.720584
      10A     -0.667920    11A     -0.656212    12A     -0.602120
      13A     -0.573754    14A     -0.550531    15A     -0.478060
      16A     -0.446141

  @DF-RHF Final Energy:  -227.79768158127160

   => Energetics <=

    Nuclear Repulsion Energy =            122.1834643327251655
    One-Electron Energy =                -553.5470993877436285
    Two-Electron Energy =                 203.5659534737469016
    DFT Exchange-Correlation Energy =       0.0000000000000000
    Empirical Dispersion Energy =           0.0000000000000000
    PCM Polarization Energy =               0.0000000000000000
    EFP Energy =                            0.0000000000000000
    Total Energy =                       -227.7976815812715472
    Molecular point group: c1
  Basis Set: 6-31G*
  Basis Set:

  -Total Gradient:
     Atom            X                  Y                   Z
    ------   -----------------  -----------------  -----------------
       1        0.000076163443     0.000041840214    -0.003860487687
       2       -0.000303173514     0.000300252466     0.005935637592
       3        0.000655370302    -0.001002084223    -0.004264166763
       4       -0.000450573186     0.000692830265     0.002284384478
       5        0.000004938239    -0.000030882499    -0.000084990069
       6        0.000006649698     0.000000345873    -0.000002537726
       7       -0.000001741347    -0.000004434266    -0.000003848337
       8        0.000012366364     0.000002132167    -0.000003991487

  **** Optimization is complete! (in 13 steps) ****
    Final optimized geometry and variables:
    Molecular point group: c1

    Geometry (in Angstrom), charge = 0, multiplicity = 1:

    H           -1.038655068276    -1.490787587549    -0.078436637026
    O           -1.160381765565    -0.550904865185    -0.072923126438
    C            0.005301900742     0.108959841664    -0.045035038458
    C            1.188578175068    -0.696431881163     0.438691573552
    O            0.051259472828     1.254921376828    -0.323932341207
    H            1.015115027899    -1.012944687408     1.462157854937
    H            2.078724383970    -0.088076632266     0.394603923300
    H            1.332065780823    -1.586515093984    -0.167141802346

  Mulliken Charges: (a.u.)
   Center  Symbol    Alpha    Beta     Spin     Total
       1     H     0.26928  0.26928  0.00000  0.46144
       2     O     4.34598  4.34598  0.00000 -0.69196
       3     C     2.62561  2.62561  0.00000  0.74878
       4     C     3.30839  3.30839  0.00000 -0.61678
       5     O     4.25761  4.25761  0.00000 -0.51522
       6     H     0.39769  0.39769  0.00000  0.20461
       7     H     0.38715  0.38715  0.00000  0.22570
       8     H     0.40829  0.40829  0.00000  0.18343

   Total alpha = 16.00000, Total beta = 16.00000, Total charge =  0.00000
