  ==> Input File <==

--------------------------------------------------------------------------
set {
	reference rhf
	basis cc-pvtz
}

set_num_threads( 4 )
memory 2 gb

molecule MOL {
0 1

H	 -2.465994	 0.915348	 1.031561
C	 -2.528158	 0.117938	 0.303211
C	 -1.266975	 -0.731818	 0.315338
H	 -2.680110	 0.573323	 -0.666197
H	 -3.393796	 -0.491010	 0.535064
C	 0.000000	 0.039916	 0.000014
H	 -1.343046	 -1.546280	 -0.400038
H	 -1.130784	 -1.207274	 1.282957
C	 1.286532	 -0.763243	 0.000268
O	 -0.014466	 1.204267	 -0.233345
C	 2.547023	 0.087626	 -0.000114
H	 1.264245	 -1.421103	 -0.864380
H	 1.264290	 -1.420353	 0.865489
H	 2.584452	 0.725630	 -0.872909
H	 3.427035	 -0.544422	 0.000125
H	 2.584484	 0.726356	 0.872143

	symmetry c1
}
set optking {
	frozen_dihedral = ("
		3 6 9 12
	")
}

ee = optimize('scf')
oeprop('DIPOLE', 'QUADRUPOLE', 'MULLIKEN_CHARGES')
f=open( 'psi4out.xyz', 'w' )
f.write( "16  " )
f.write( str(ee) + "\n" )
f.write( MOL.save_string_xyz() )
f.close()
--------------------------------------------------------------------------

    Molecular point group: c1
  Charge       = 0
  Multiplicity = 1
  Basis Set: CC-PVTZ
  Basis Set:
  @DF-RHF Final Energy:  -270.13161261444122
    Total Energy =                       -270.1316126144411669
    Molecular point group: c1
  Basis Set: CC-PVTZ
  Basis Set:
  Basis Set: CC-PVTZ
  Basis Set:
  @DF-RHF Final Energy:  -270.13171247903756
    Total Energy =                       -270.1317124790376738
  Basis Set: CC-PVTZ
  Basis Set:
  Basis Set: CC-PVTZ
  Basis Set:
  @DF-RHF Final Energy:  -270.13171261443330
    Total Energy =                       -270.1317126144330700
  Basis Set: CC-PVTZ
  Basis Set:
  Basis Set: CC-PVTZ
  Basis Set:
  @DF-RHF Final Energy:  -270.13176394347107
    Total Energy =                       -270.1317639434712987
  Basis Set: CC-PVTZ
  Basis Set:
  Basis Set: CC-PVTZ
  Basis Set:
  @DF-RHF Final Energy:  -270.13178047467068
    Total Energy =                       -270.1317804746708475
  Basis Set: CC-PVTZ
  Basis Set:
  Basis Set: CC-PVTZ
  Basis Set:
  @DF-RHF Final Energy:  -270.13178493847772
    Total Energy =                       -270.1317849384776082
  Basis Set: CC-PVTZ
  Basis Set:
  Basis Set: CC-PVTZ
  Basis Set:
  @DF-RHF Final Energy:  -270.13178721371787
    Total Energy =                       -270.1317872137178711
  Basis Set: CC-PVTZ
  Basis Set:
  Charge       = 0
  Multiplicity = 1
  Basis Set: CC-PVTZ
  Basis Set:

    Orbital Energies (a.u.)
    -----------------------

    Doubly Occupied:

       1A    -20.538913     2A    -11.317936     3A    -11.232329
       4A    -11.232221     5A    -11.212121     6A    -11.211940
       7A     -1.399284     8A     -1.069577     9A     -1.037282
      10A     -0.917070    11A     -0.846441    12A     -0.725933
      13A     -0.669483    14A     -0.648201    15A     -0.620920
      16A     -0.607893    17A     -0.561191    18A     -0.529253
      19A     -0.525939    20A     -0.511120    21A     -0.504549
      22A     -0.493293    23A     -0.487083    24A     -0.400870

  @DF-RHF Final Energy:  -270.13178792042800

   => Energetics <=

    Nuclear Repulsion Energy =            240.3448186966676587
    One-Electron Energy =                -842.3515339649702582
    Two-Electron Energy =                 331.8749273478746886
    DFT Exchange-Correlation Energy =       0.0000000000000000
    Empirical Dispersion Energy =           0.0000000000000000
    PCM Polarization Energy =               0.0000000000000000
    EFP Energy =                            0.0000000000000000
    Total Energy =                       -270.1317879204279393
    Molecular point group: c1
  Basis Set: CC-PVTZ
  Basis Set:

  -Total Gradient:
     Atom            X                  Y                   Z
    ------   -----------------  -----------------  -----------------
       1       -0.000000229962     0.000001442880    -0.000000010691
       2        0.000005058464    -0.000006467934    -0.000002904674
       3        0.000049892523     0.000059365901     0.000349925796
       4       -0.000000864129     0.000001941031     0.000001204182
       5       -0.000000265125     0.000000236077     0.000000553577
       6       -0.000046019618     0.000004712406    -0.000543992648
       7        0.000003170829    -0.000003805160    -0.000001013009
       8        0.000001035341    -0.000002140404    -0.000001755346
       9       -0.000216454148    -0.000388356833     0.000435391658
      10        0.000002446485    -0.000003874843    -0.000001672019
      11       -0.000000789761    -0.000001222445     0.000004813427
      12        0.000196146545     0.000334049979    -0.000240851057
      13        0.000002896512     0.000001642311    -0.000003778178
      14       -0.000000436351    -0.000003294281     0.000002479434
      15        0.000000825946     0.000001919967    -0.000000035586
      16        0.000003586445     0.000003851350     0.000001645135

  **** Optimization is complete! (in 8 steps) ****
    Final optimized geometry and variables:
    Molecular point group: c1

    Geometry (in Angstrom), charge = 0, multiplicity = 1:

    H           -2.520209426220     0.934338986160     0.837344833344
    C           -2.542018973523     0.092813568395     0.158695277622
    C           -1.269617601759    -0.732148006319     0.272975933359
    H           -2.662326349077     0.484652691740    -0.842991102395
    H           -3.407321219547    -0.515623038587     0.393051534948
    C           -0.001256458509     0.043787197162    -0.023000091293
    H           -1.301804615041    -1.593595104785    -0.388189746369
    H           -1.165042166326    -1.139430051244     1.275680569188
    C            1.274264293220    -0.772576784310    -0.105015138545
    O           -0.005789494564     1.220580205230    -0.182752439712
    C            2.544218763717     0.064880365592    -0.113146168248
    H            1.206649049366    -1.366791600039    -1.013534949044
    H            1.281111808237    -1.486278853956     0.713032534049
    H            2.547647850784     0.754391931305    -0.945716439095
    H            3.415767674656    -0.573966251549    -0.191297135930
    H            2.630851425285     0.648306667260     0.794666035012

  Mulliken Charges: (a.u.)
   Center  Symbol    Alpha    Beta     Spin     Total
       1     H     0.44595  0.44595  0.00000  0.10810
       2     C     3.14088  3.14088  0.00000 -0.28176
       3     C     3.09888  3.09888  0.00000 -0.19776
       4     H     0.44965  0.44965  0.00000  0.10070
       5     H     0.45068  0.45068  0.00000  0.09864
       6     C     2.87344  2.87344  0.00000  0.25312
       7     H     0.44596  0.44596  0.00000  0.10808
       8     H     0.44552  0.44552  0.00000  0.10896
       9     C     3.09838  3.09838  0.00000 -0.19675
      10     O     4.17205  4.17205  0.00000 -0.34409
      11     C     3.14109  3.14109  0.00000 -0.28218
      12     H     0.44564  0.44564  0.00000  0.10872
      13     H     0.44580  0.44580  0.00000  0.10840
      14     H     0.44488  0.44488  0.00000  0.11025
      15     H     0.45062  0.45062  0.00000  0.09876
      16     H     0.45059  0.45059  0.00000  0.09882

   Total alpha = 24.00000, Total beta = 24.00000, Total charge =  0.00000
