  ==> Input File <==

--------------------------------------------------------------------------
set {
	reference rhf
	basis 6-31G*
}

set_num_threads( 4 )
memory 2 gb

molecule MOL {
0 1

H	 -2.774551	 -1.371323	 0.866436
O	 -1.947751	 -1.048673	 0.537691
C	 -2.026376	 0.340750	 0.341611
C	 -0.673256	 0.843270	 -0.132153
H	 -2.786120	 0.576436	 -0.401476
H	 -2.305909	 0.842150	 1.267415
C	 0.486613	 -0.083066	 0.235839
H	 -0.715586	 0.970948	 -1.210718
H	 -0.508072	 1.829858	 0.297090
C	 1.840406	 0.433480	 -0.254303
H	 0.300215	 -1.068318	 -0.178947
H	 0.519509	 -0.203625	 1.318070
C	 3.000220	 -0.489290	 0.118523
H	 1.809207	 0.553576	 -1.335192
H	 2.021860	 1.424500	 0.157276
H	 2.864959	 -1.479103	 -0.307933
H	 3.946603	 -0.099227	 -0.243630
H	 3.080049	 -0.602997	 1.196117

	symmetry c1
}
set optking {
	frozen_dihedral = ("
		2 3 4 8
	")
}

ee = optimize('scf')
oeprop('DIPOLE', 'QUADRUPOLE', 'MULLIKEN_CHARGES')
f=open( 'psi4out.xyz', 'w' )
f.write( "18  " )
f.write( str(ee) + "\n" )
f.write( MOL.save_string_xyz() )
f.close()
--------------------------------------------------------------------------

    Molecular point group: c1
  Charge       = 0
  Multiplicity = 1
  Basis Set: 6-31G*
  Basis Set:
  @DF-RHF Final Energy:  -271.17267717409709
    Total Energy =                       -271.1726771740970889
    Molecular point group: c1
  Basis Set: 6-31G*
  Basis Set:
  Basis Set: 6-31G*
  Basis Set:
  @DF-RHF Final Energy:  -271.17329233571309
    Total Energy =                       -271.1732923357131995
  Basis Set: 6-31G*
  Basis Set:
  Basis Set: 6-31G*
  Basis Set:
  @DF-RHF Final Energy:  -271.17394914343720
    Total Energy =                       -271.1739491434369711
  Basis Set: 6-31G*
  Basis Set:
  Basis Set: 6-31G*
  Basis Set:
  @DF-RHF Final Energy:  -271.17396622750937
    Total Energy =                       -271.1739662275093679
  Basis Set: 6-31G*
  Basis Set:
  Basis Set: 6-31G*
  Basis Set:
  @DF-RHF Final Energy:  -271.17397381277789
    Total Energy =                       -271.1739738127779447
  Basis Set: 6-31G*
  Basis Set:
  Basis Set: 6-31G*
  Basis Set:
  @DF-RHF Final Energy:  -271.17397734118640
    Total Energy =                       -271.1739773411864007
  Basis Set: 6-31G*
  Basis Set:
  Charge       = 0
  Multiplicity = 1
  Basis Set: 6-31G*
  Basis Set:

    Orbital Energies (a.u.)
    -----------------------

    Doubly Occupied:

       1A    -20.552535     2A    -11.268844     3A    -11.212786
       4A    -11.209069     5A    -11.203957     6A    -11.202996
       7A     -1.359322     8A     -1.071868     9A     -1.005495
      10A     -0.913139    11A     -0.817365    12A     -0.782043
      13A     -0.697238    14A     -0.653528    15A     -0.617196
      16A     -0.579977    17A     -0.572515    18A     -0.551619
      19A     -0.517407    20A     -0.501336    21A     -0.491007
      22A     -0.463823    23A     -0.457596    24A     -0.443317
      25A     -0.425787

  @DF-RHF Final Energy:  -271.17397739575807

   => Energetics <=

    Nuclear Repulsion Energy =            249.6885793639581266
    One-Electron Energy =                -862.5815827925773647
    Two-Electron Energy =                 341.7190260328611089
    DFT Exchange-Correlation Energy =       0.0000000000000000
    Empirical Dispersion Energy =           0.0000000000000000
    PCM Polarization Energy =               0.0000000000000000
    EFP Energy =                            0.0000000000000000
    Total Energy =                       -271.1739773957581860
    Molecular point group: c1
  Basis Set: 6-31G*
  Basis Set:

  -Total Gradient:
     Atom            X                  Y                   Z
    ------   -----------------  -----------------  -----------------
       1       -0.000001768347    -0.000007144265     0.000002298177
       2        0.001492084941     0.000655601329     0.004489651348
       3       -0.002339828649     0.000579957989    -0.005713796116
       4        0.002476464022    -0.007114421292     0.000392938814
       5        0.000001204561    -0.000007675141    -0.000001541206
       6       -0.000005384602    -0.000001278443     0.000002507495
       7       -0.000012144745    -0.000009599190    -0.000027098050
       8       -0.001608599651     0.005888902087     0.000838401355
       9       -0.000002219544     0.000005979489     0.000000743143
      10        0.000003087780     0.000004130326     0.000005834724
      11        0.000003070364    -0.000007821287     0.000003128049
      12       -0.000006106073     0.000012290023     0.000000242133
      13        0.000000310766     0.000001145768     0.000001938604
      14       -0.000010478812     0.000002498829     0.000003670659
      15        0.000009990622    -0.000001591522     0.000002717518
      16       -0.000001130412     0.000000965936    -0.000000967202
      17       -0.000000110641    -0.000000578739    -0.000000826233
      18        0.000001558424    -0.000001361896     0.000000156787

  **** Optimization is complete! (in 7 steps) ****
    Final optimized geometry and variables:
    Molecular point group: c1

    Geometry (in Angstrom), charge = 0, multiplicity = 1:

    H           -2.962145854485    -1.276477971279     0.705857623471
    O           -2.105718020544    -1.012394958569     0.401546667700
    C           -2.092957245595     0.378895548394     0.199759542187
    C           -0.720974821047     0.828578052685    -0.321175023079
    H           -2.871414584114     0.674451707738    -0.499622996085
    H           -2.301021135289     0.878398041972     1.144281695238
    C            0.448329861850    -0.076884949724     0.064580921625
    H           -0.762236952185     0.970731406554    -1.398216415397
    H           -0.538378152370     1.825668460138     0.076247821762
    C            1.793731942268     0.480096824086    -0.404673349550
    H            0.295447423419    -1.065401413404    -0.353092271499
    H            0.465293716090    -0.203799272453     1.144517878632
    C            2.970329245867    -0.422725182186    -0.035224105338
    H            1.771531931249     0.617659379392    -1.484004324239
    H            1.949709380200     1.467910991142     0.024676486397
    H            2.862055918745    -1.407951486848    -0.479684564826
    H            3.911458001474    -0.005258219550    -0.380280437250
    H            3.040933155691    -0.553328648809     1.040985486408

  Mulliken Charges: (a.u.)
   Center  Symbol    Alpha    Beta     Spin     Total
       1     H     0.28060  0.28060  0.00000  0.43881
       2     O     4.37058  4.37058  0.00000 -0.74116
       3     C     2.99175  2.99175  0.00000  0.01651
       4     C     3.17234  3.17234  0.00000 -0.34468
       5     H     0.42926  0.42926  0.00000  0.14148
       6     H     0.43177  0.43177  0.00000  0.13646
       7     C     3.14445  3.14445  0.00000 -0.28891
       8     H     0.41931  0.41931  0.00000  0.16139
       9     H     0.42286  0.42286  0.00000  0.15427
      10     C     3.15312  3.15312  0.00000 -0.30623
      11     H     0.40939  0.40939  0.00000  0.18121
      12     H     0.42181  0.42181  0.00000  0.15639
      13     C     3.23860  3.23860  0.00000 -0.47720
      14     H     0.42438  0.42438  0.00000  0.15123
      15     H     0.42555  0.42555  0.00000  0.14890
      16     H     0.42114  0.42114  0.00000  0.15772
      17     H     0.42097  0.42097  0.00000  0.15806
      18     H     0.42211  0.42211  0.00000  0.15577

   Total alpha = 25.00000, Total beta = 25.00000, Total charge =  0.00000
