  ==> Input File <==

--------------------------------------------------------------------------
set {
	reference rhf
	basis 6-31G*
}

set_num_threads( 4 )
memory 2 gb

molecule MOL {
0 1

H	 -2.191744	 1.190836	 -2.412725
C	 -2.907659	 1.501235	 -1.641531
C	 -2.660244	 0.921717	 -0.272021
O	 -3.796513	 2.240853	 -1.914760
C	 -1.220012	 1.144545	 0.209990
H	 -3.381199	 1.348677	 0.415465
H	 -2.854428	 -0.148165	 -0.337601
C	 -0.252658	 0.041456	 -0.226725
H	 -0.873521	 2.100229	 -0.171974
H	 -1.211708	 1.231594	 1.295398
C	 1.180775	 0.282413	 0.250794
H	 -0.266029	 -0.034465	 -1.312038
H	 -0.597733	 -0.921000	 0.146291
C	 2.148627	 -0.814315	 -0.201312
H	 1.516199	 1.249228	 -0.115937
H	 1.192670	 0.346017	 1.338083
C	 3.580890	 -0.659131	 0.322722
H	 2.166869	 -0.852443	 -1.289387
H	 1.762857	 -1.776509	 0.128956
C	 4.324889	 0.564933	 -0.213704
H	 4.142010	 -1.551473	 0.056605
H	 3.564836	 -0.624694	 1.410140
H	 4.342616	 0.565491	 -1.300421
H	 3.866655	 1.493402	 0.110242
H	 5.353900	 0.572371	 0.132816

	symmetry c1
}
set optking {
	frozen_dihedral = ("
		6 3 5 8
	")
}

ee = optimize('scf')
oeprop('DIPOLE', 'QUADRUPOLE', 'MULLIKEN_CHARGES')
f=open( 'psi4out.xyz', 'w' )
f.write( "25  " )
f.write( str(ee) + "\n" )
f.write( MOL.save_string_xyz() )
f.close()
--------------------------------------------------------------------------

    Molecular point group: c1
  Charge       = 0
  Multiplicity = 1
  Basis Set: 6-31G*
  Basis Set:
  @DF-RHF Final Energy:  -387.11917546982636
    Total Energy =                       -387.1191754698261320
    Molecular point group: c1
  Basis Set: 6-31G*
  Basis Set:
  Basis Set: 6-31G*
  Basis Set:
  @DF-RHF Final Energy:  -387.11941571468412
    Total Energy =                       -387.1194157146845782
  Basis Set: 6-31G*
  Basis Set:
  Basis Set: 6-31G*
  Basis Set:
  @DF-RHF Final Energy:  -387.11607838098377
    Total Energy =                       -387.1160783809834811
  Basis Set: 6-31G*
  Basis Set:
  Basis Set: 6-31G*
  Basis Set:
  @DF-RHF Final Energy:  -387.11949580640925
    Total Energy =                       -387.1194958064095317
  Basis Set: 6-31G*
  Basis Set:
  @DF-RHF Final Energy:  -387.11954470414736
    Total Energy =                       -387.1195447041470743
  @DF-RHF Final Energy:  -387.11955336753618
    Total Energy =                       -387.1195533675364686
  @DF-RHF Final Energy:  -387.11956983066221
    Total Energy =                       -387.1195698306623854
  @DF-RHF Final Energy:  -387.11957764315417
    Total Energy =                       -387.1195776431543436
  Basis Set: 6-31G*
  Basis Set:
  @DF-RHF Final Energy:  -387.11958197583675
    Total Energy =                       -387.1195819758368089
  Basis Set: 6-31G*
  Basis Set:
  Basis Set: 6-31G*
  Basis Set:
  @DF-RHF Final Energy:  -387.11958034435082
    Total Energy =                       -387.1195803443511068
  Basis Set: 6-31G*
  Basis Set:
  Basis Set: 6-31G*
  Basis Set:
  @DF-RHF Final Energy:  -387.11958263948725
    Total Energy =                       -387.1195826394867936
  Basis Set: 6-31G*
  Basis Set:
  Charge       = 0
  Multiplicity = 1
  Basis Set: 6-31G*
  Basis Set:

    Orbital Energies (a.u.)
    -----------------------

    Doubly Occupied:

       1A    -20.561125     2A    -11.326185     3A    -11.235277
       4A    -11.234471     5A    -11.228275     6A    -11.222303
       7A    -11.220431     8A    -11.219845     9A    -11.212362
      10A     -1.401331    11A     -1.105458    12A     -1.070660
      13A     -1.014704    14A     -0.944153    15A     -0.876673
      16A     -0.822663    17A     -0.789470    18A     -0.784076
      19A     -0.669103    20A     -0.662326    21A     -0.633727
      22A     -0.619975    23A     -0.609471    24A     -0.590696
      25A     -0.571217    26A     -0.560424    27A     -0.540397
      28A     -0.520844    29A     -0.508976    30A     -0.504006
      31A     -0.485170    32A     -0.480492    33A     -0.467146
      34A     -0.461559    35A     -0.446067    36A     -0.408285

  @DF-RHF Final Energy:  -387.11958266788901

   => Energetics <=

    Nuclear Repulsion Energy =            435.0078763116862888
    One-Electron Energy =               -1386.2362368964181769
    Two-Electron Energy =                 564.1087779168433372
    DFT Exchange-Correlation Energy =       0.0000000000000000
    Empirical Dispersion Energy =           0.0000000000000000
    PCM Polarization Energy =               0.0000000000000000
    EFP Energy =                            0.0000000000000000
    Total Energy =                       -387.1195826678886078
    Molecular point group: c1
  Basis Set: 6-31G*
  Basis Set:

  -Total Gradient:
     Atom            X                  Y                   Z
    ------   -----------------  -----------------  -----------------
       1        0.000000215981     0.000000930614     0.000001528599
       2        0.000001175220    -0.000003669382    -0.000007524291
       3       -0.000029945615     0.002172002862    -0.000874396989
       4        0.000004108541    -0.000001967170     0.000006397828
       5        0.000453358271     0.000684961253    -0.001638754653
       6       -0.000082751670    -0.001993203006     0.001128649536
       7       -0.000002824348    -0.000001414875    -0.000001555936
       8       -0.000342437248    -0.000858717424     0.001382286712
       9       -0.000000292884     0.000010061772     0.000000904979
      10        0.000007166383    -0.000009687615    -0.000005593639
      11       -0.000001303937    -0.000000336727     0.000005035233
      12       -0.000007866362     0.000007602285     0.000005954715
      13        0.000001328628    -0.000008243431    -0.000002232855
      14       -0.000003592332     0.000000426782     0.000000154039
      15       -0.000002920910     0.000001455940     0.000000388533
      16        0.000005947489    -0.000002080793     0.000000264595
      17        0.000001590225    -0.000002183034    -0.000000733884
      18        0.000001586629    -0.000002473026    -0.000000881212
      19       -0.000003539304     0.000003789828     0.000000598924
      20       -0.000000911166     0.000002523459     0.000001487816
      21       -0.000000196224     0.000001187364    -0.000002251537
      22        0.000002504502    -0.000003141294     0.000000037484
      23        0.000002036643    -0.000001246945     0.000000491817
      24       -0.000001764185     0.000001334642    -0.000001817748
      25       -0.000000672333     0.000002087918     0.000001561938

  **** Optimization is complete! (in 12 steps) ****
    Final optimized geometry and variables:
    Molecular point group: c1

    Geometry (in Angstrom), charge = 0, multiplicity = 1:

    H           -2.159376653879     0.790894983164    -1.954263299535
    C           -2.958366165779     0.935224563299    -1.217754083530
    C           -2.699377420735     0.355887623682     0.149847551359
    O           -3.950384698231     1.514068355997    -1.523066928860
    C           -1.254157175526     0.569018033414     0.636058169909
    H           -3.424234278719     0.774617839582     0.837492378420
    H           -2.909070687887    -0.711946690341     0.092976487619
    C           -0.283143378547    -0.527908581443     0.190805609549
    H           -0.892995632123     1.540738945333     0.304491167106
    H           -1.259032741803     0.609350168422     1.721184361305
    C            1.151855396723    -0.284838414791     0.661818876168
    H           -0.292529561468    -0.615452659737    -0.894717739412
    H           -0.633814818494    -1.484062944747     0.574320408773
    C            2.115315013179    -1.393262428342     0.229080457179
    H            1.491231661729     0.674287914661     0.279426611439
    H            1.163179394085    -0.203156508885     1.747677134480
    C            3.546632161721    -1.238227361028     0.755720447161
    H            2.137935752417    -1.446664768151    -0.858309838383
    H            1.723328033492    -2.348813992164     0.571408149214
    C            4.297677232855    -0.023450634656     0.207585340080
    H            4.104556672350    -2.136264739452     0.502548465058
    H            3.526384216011    -1.190757000830     1.842595515507
    H            4.323226419907    -0.037968013953    -0.878764744676
    H            3.840248774723     0.910902923476     0.515575308417
    H            5.324106833474    -0.014160820331     0.560889104826

  Mulliken Charges: (a.u.)
   Center  Symbol    Alpha    Beta     Spin     Total
       1     H     0.43110  0.43110  0.00000  0.13780
       2     C     2.82983  2.82983  0.00000  0.34035
       3     C     3.21150  3.21150  0.00000 -0.42299
       4     O     4.23958  4.23958  0.00000 -0.47916
       5     C     3.16801  3.16801  0.00000 -0.33601
       6     H     0.39644  0.39644  0.00000  0.20711
       7     H     0.40512  0.40512  0.00000  0.18976
       8     C     3.15513  3.15513  0.00000 -0.31025
       9     H     0.41589  0.41589  0.00000  0.16821
      10     H     0.41147  0.41147  0.00000  0.17706
      11     C     3.15442  3.15442  0.00000 -0.30885
      12     H     0.42293  0.42293  0.00000  0.15414
      13     H     0.42037  0.42037  0.00000  0.15927
      14     C     3.15302  3.15302  0.00000 -0.30603
      15     H     0.41993  0.41993  0.00000  0.16013
      16     H     0.42250  0.42250  0.00000  0.15500
      17     C     3.15274  3.15274  0.00000 -0.30548
      18     H     0.42365  0.42365  0.00000  0.15270
      19     H     0.42174  0.42174  0.00000  0.15652
      20     C     3.24156  3.24156  0.00000 -0.48312
      21     H     0.41999  0.41999  0.00000  0.16001
      22     H     0.42283  0.42283  0.00000  0.15434
      23     H     0.42189  0.42189  0.00000  0.15621
      24     H     0.42013  0.42013  0.00000  0.15974
      25     H     0.41822  0.41822  0.00000  0.16355

   Total alpha = 36.00000, Total beta = 36.00000, Total charge =  0.00000
