                              Psi4 1.0.54 Driver

  ==> Input File <==

--------------------------------------------------------------------------
set {
	reference rhf
	basis cc-pvtz
}

set_num_threads( 4 )
memory 2 gb

molecule MOL {
0 1

H	 -1.412831	 -1.277224	 0.411356
O	 -1.432053	 -0.565244	 -0.200812
C	 -0.727158	 0.534527	 0.310686
C	 0.680222	 0.664433	 -0.252229
H	 -1.306802	 1.408001	 0.044211
H	 -0.690821	 0.490158	 1.397609
C	 1.605391	 -0.489360	 0.123098
H	 0.615089	 0.745647	 -1.332226
H	 1.101414	 1.597893	 0.110950
H	 1.247627	 -1.432485	 -0.275204
H	 2.601435	 -0.332816	 -0.273062
H	 1.691776	 -0.589902	 1.200774

	symmetry c1
}
set optking {
	frozen_dihedral = ("
		1 2 3 4
	")
}

ee,wfn = optimize('scf', return_wfn=True)
oeprop( wfn, 'DIPOLE', 'QUADRUPOLE', 'MULLIKEN_CHARGES')
f=open( 'psi4out.xyz', 'w' )
f.write( "12  " )
f.write( str(ee) + "\n" )
f.write( MOL.save_string_xyz() )
f.close()
--------------------------------------------------------------------------

    Molecular point group: c1
  Charge       = 0
  Multiplicity = 1
  Basis Set: CC-PVTZ
  Basis Set:
  @DF-RHF Final Energy:  -193.18990317974627
    Total Energy =                       -193.1899031797463238
    Molecular point group: c1
  Basis Set: CC-PVTZ
  Basis Set:
  Basis Set: CC-PVTZ
  Basis Set:
  @DF-RHF Final Energy:  -193.19002469523480
    Total Energy =                       -193.1900246952347686
  Basis Set: CC-PVTZ
  Basis Set:
  Basis Set: CC-PVTZ
  Basis Set:
  @DF-RHF Final Energy:  -193.19005325542165
    Total Energy =                       -193.1900532554215886
  Basis Set: CC-PVTZ
  Basis Set:
  Basis Set: CC-PVTZ
  Basis Set:
  @DF-RHF Final Energy:  -193.19005463153795
    Total Energy =                       -193.1900546315379472
  Basis Set: CC-PVTZ
  Basis Set:
  Charge       = 0
  Multiplicity = 1
  Basis Set: CC-PVTZ
  Basis Set:

    Orbital Energies (a.u.)
    -----------------------

    Doubly Occupied:

       1A    -20.546003     2A    -11.266506     3A    -11.214004
       4A    -11.209257     5A     -1.363582     6A     -1.049894
       7A     -0.925200     8A     -0.805099     9A     -0.705517
      10A     -0.637008    11A     -0.596847    12A     -0.588626
      13A     -0.528778    14A     -0.514754    15A     -0.490048
      16A     -0.468876    17A     -0.431797

  @DF-RHF Final Energy:  -193.19005499239333

   => Energetics <=

    Nuclear Repulsion Energy =            133.1623856218525646
    One-Electron Energy =                -526.0212902568378013
    Two-Electron Energy =                 199.6688496425919084
    DFT Exchange-Correlation Energy =       0.0000000000000000
    Empirical Dispersion Energy =           0.0000000000000000
    PCM Polarization Energy =               0.0000000000000000
    EFP Energy =                            0.0000000000000000
    Total Energy =                       -193.1900549923933568
    Molecular point group: c1
  Basis Set: CC-PVTZ
  Basis Set:

  -Total Gradient:
     Atom            X                  Y                   Z
    ------   -----------------  -----------------  -----------------
       1       -0.000772546622     0.000283915665     0.000373207269
       2        0.000875723768    -0.000218244800    -0.000619559678
       3        0.000084851760    -0.000408207995     0.000658567348
       4       -0.000183280976     0.000335995897    -0.000424133913
       5        0.000008813759     0.000004194925     0.000001162451
       6       -0.000001050145     0.000001487257     0.000005564091
       7       -0.000004383556     0.000001814057     0.000011609875
       8       -0.000005176959     0.000004555649    -0.000004327772
       9       -0.000000066180    -0.000000023952    -0.000002323469
      10        0.000000775215    -0.000003396628    -0.000004079281
      11       -0.000007794826     0.000002789279     0.000001783698
      12        0.000004134762    -0.000004879354     0.000002529382

  **** Optimization is complete! (in 5 steps) ****
    Final optimized geometry and variables:
    Molecular point group: c1

    Geometry (in Angstrom), charge = 0, multiplicity = 1:

    H           -1.395502983875    -1.288486652816     0.370793604121
    O           -1.410023065085    -0.567436941835    -0.228716881017
    C           -0.725678569148     0.536790800182     0.308726789013
    C            0.684034518854     0.665306745808    -0.245382766401
    H           -1.297522448059     1.419727215902     0.051102362535
    H           -0.698095459626     0.477260839255     1.393886180125
    C            1.598655072286    -0.494539611825     0.132853876242
    H            0.620748125385     0.745168020881    -1.325610346412
    H            1.105867838918     1.599222120832     0.116581180328
    H            1.214217493654    -1.433534042420    -0.246775177340
    H            2.592156052873    -0.357113248614    -0.277099953346
    H            1.697157154675    -0.581379313154     1.210930257722

  Mulliken Charges: (a.u.)
   Center  Symbol    Alpha    Beta     Spin     Total
       1     H     0.39074  0.39074  0.00000  0.21851
       2     O     4.20795  4.20795  0.00000 -0.41589
       3     C     2.97918  2.97918  0.00000  0.04164
       4     C     3.07485  3.07485  0.00000 -0.14970
       5     H     0.45254  0.45254  0.00000  0.09491
       6     H     0.46998  0.46998  0.00000  0.06004
       7     C     3.15934  3.15934  0.00000 -0.31867
       8     H     0.45288  0.45288  0.00000  0.09424
       9     H     0.45695  0.45695  0.00000  0.08610
      10     H     0.45140  0.45140  0.00000  0.09720
      11     H     0.44667  0.44667  0.00000  0.10666
      12     H     0.45751  0.45751  0.00000  0.08497

   Total alpha = 17.00000, Total beta = 17.00000, Total charge =  0.00000

*** Psi4 exiting successfully. Buy a developer a beer!
