                              Psi4 1.0.54 Driver

  ==> Input File <==

--------------------------------------------------------------------------
set {
	reference rhf
	basis cc-pvtz
}

set_num_threads( 4 )
memory 2 gb

molecule MOL {
0 1

H	 -2.816458	 -0.841657	 -0.064679
N	 -1.878861	 -0.711874	 0.250184
C	 -1.341419	 0.551458	 -0.220231
H	 -1.333674	 -1.468530	 -0.105118
C	 0.082190	 0.731516	 0.254705
H	 -1.357065	 0.652078	 -1.304747
H	 -1.939897	 1.357530	 0.189797
O	 0.131438	 1.819731	 1.127099
H	 0.419143	 -0.170874	 0.762964
H	 0.733120	 0.905104	 -0.599159
C	 1.404744	 2.134729	 1.583923
H	 1.319379	 2.982895	 2.247785
H	 1.847036	 1.305504	 2.132063
H	 2.068218	 2.397242	 0.763282

	symmetry c1
}
set optking {
	frozen_dihedral = ("
		8 5 3 6
	")
}

ee,wfn = optimize('scf', return_wfn=True)
oeprop( wfn, 'DIPOLE', 'QUADRUPOLE', 'MULLIKEN_CHARGES')
f=open( 'psi4out.xyz', 'w' )
f.write( "14  " )
f.write( str(ee) + "\n" )
f.write( MOL.save_string_xyz() )
f.close()
--------------------------------------------------------------------------

    Molecular point group: c1
  Charge       = 0
  Multiplicity = 1
  Basis Set: CC-PVTZ
  Basis Set:
  @DF-RHF Final Energy:  -248.21711295334057
    Total Energy =                       -248.2171129533406315
    Molecular point group: c1
  Basis Set: CC-PVTZ
  Basis Set:
  Basis Set: CC-PVTZ
  Basis Set:
  @DF-RHF Final Energy:  -248.21769022634643
    Total Energy =                       -248.2176902263464058
  Basis Set: CC-PVTZ
  Basis Set:
  Basis Set: CC-PVTZ
  Basis Set:
  @DF-RHF Final Energy:  -248.21791801249424
    Total Energy =                       -248.2179180124941240
  Basis Set: CC-PVTZ
  Basis Set:
  Basis Set: CC-PVTZ
  Basis Set:
  @DF-RHF Final Energy:  -248.21794168568633
    Total Energy =                       -248.2179416856864691
  Basis Set: CC-PVTZ
  Basis Set:
  Basis Set: CC-PVTZ
  Basis Set:
  @DF-RHF Final Energy:  -248.21794509576605
    Total Energy =                       -248.2179450957661402
  Basis Set: CC-PVTZ
  Basis Set:
  Charge       = 0
  Multiplicity = 1
  Basis Set: CC-PVTZ
  Basis Set:

    Orbital Energies (a.u.)
    -----------------------

    Doubly Occupied:

       1A    -20.546846     2A    -15.530451     3A    -11.263126
       4A    -11.260241     5A    -11.240115     6A     -1.380724
       7A     -1.179578     8A     -0.997550     9A     -0.900289
      10A     -0.824029    11A     -0.678355    12A     -0.673797
      13A     -0.645203    14A     -0.619289    15A     -0.609923
      16A     -0.533928    17A     -0.528040    18A     -0.501386
      19A     -0.468904    20A     -0.415117    21A     -0.388162

  @DF-RHF Final Energy:  -248.21794525388896

   => Energetics <=

    Nuclear Repulsion Energy =            191.3871780484001874
    One-Electron Energy =                -716.8401388619787440
    Two-Electron Energy =                 277.2350155596897139
    DFT Exchange-Correlation Energy =       0.0000000000000000
    Empirical Dispersion Energy =           0.0000000000000000
    PCM Polarization Energy =               0.0000000000000000
    EFP Energy =                            0.0000000000000000
    Total Energy =                       -248.2179452538888427
    Molecular point group: c1
  Basis Set: CC-PVTZ
  Basis Set:

  -Total Gradient:
     Atom            X                  Y                   Z
    ------   -----------------  -----------------  -----------------
       1        0.000008513940     0.000005925871    -0.000008545587
       2       -0.000003449985    -0.000017990037     0.000030799223
       3        0.000189121199    -0.000726647968    -0.000249292707
       4       -0.000003144953     0.000009017875    -0.000007178602
       5       -0.000143000609    -0.000267524792     0.000603727136
       6       -0.000130283320     0.000688365090     0.000066586443
       7       -0.000006685928    -0.000013411893     0.000005750674
       8        0.000099896163     0.000315670012    -0.000444255607
       9        0.000003049972    -0.000007898137    -0.000000688543
      10       -0.000003534861    -0.000001318596    -0.000000977704
      11       -0.000008500957     0.000020366406     0.000008238547
      12        0.000007812289     0.000004514708     0.000006240629
      13       -0.000007865383    -0.000004572960    -0.000006488397
      14       -0.000001927562    -0.000004495580    -0.000003915504

  **** Optimization is complete! (in 6 steps) ****
    Final optimized geometry and variables:
    Molecular point group: c1

    Geometry (in Angstrom), charge = 0, multiplicity = 1:

    H           -2.565903625909    -1.667562794800    -0.488073512348
    N           -1.583592137365    -1.613116341533    -0.321447196166
    C           -1.045117889649    -0.354472593181    -0.815653884329
    H           -1.165723430318    -2.391590402498    -0.786971352559
    C            0.402039862233    -0.144032015376    -0.367314599204
    H           -1.109147128938    -0.263134576908    -1.898448332967
    H           -1.630842069171     0.450629764452    -0.395414018923
    O            0.466674721398     0.946090103120     0.500477310817
    H            0.759474999315    -1.040656662234     0.133266727922
    H            1.048876366163     0.038054420848    -1.224213914165
    C            1.737165810006     1.205397876469     0.995976548406
    H            1.669617630629     2.063697519282     1.648708561070
    H            2.122876914248     0.362411726795     1.565150054011
    H            2.440171904402     1.429360942036     0.195838550942

  Mulliken Charges: (a.u.)
   Center  Symbol    Alpha    Beta     Spin     Total
       1     H     0.42853  0.42853  0.00000  0.14293
       2     N     3.68846  3.68846  0.00000 -0.37692
       3     C     3.03449  3.03449  0.00000 -0.06898
       4     H     0.43194  0.43194  0.00000  0.13612
       5     C     2.95886  2.95886  0.00000  0.08227
       6     H     0.46468  0.46468  0.00000  0.07065
       7     H     0.44851  0.44851  0.00000  0.10298
       8     O     4.17207  4.17207  0.00000 -0.34414
       9     H     0.47366  0.47366  0.00000  0.05269
      10     H     0.47758  0.47758  0.00000  0.04483
      11     C     3.02957  3.02957  0.00000 -0.05914
      12     H     0.44696  0.44696  0.00000  0.10608
      13     H     0.47135  0.47135  0.00000  0.05730
      14     H     0.47333  0.47333  0.00000  0.05335

   Total alpha = 21.00000, Total beta = 21.00000, Total charge = -0.00000

*** Psi4 exiting successfully. Buy a developer a beer!
