  ==> Input File <==

--------------------------------------------------------------------------
set {
	reference rhf
	basis 6-31G*
}

set_num_threads( 1 )
memory 2 gb

molecule MOL {
0 1

H	 2.418836	 -1.702661	 0.789816
O	 2.826016	 -1.159218	 0.122261
C	 2.077727	 -0.067559	 -0.035091
C	 0.624473	 -0.343591	 0.253101
O	 2.542965	 0.974826	 -0.363729
C	 -0.265902	 0.883932	 0.072916
H	 0.324016	 -1.163849	 -0.390541
H	 0.565024	 -0.726111	 1.268924
C	 -1.728698	 0.646073	 0.462102
H	 -0.209144	 1.219470	 -0.958188
H	 0.135059	 1.692851	 0.673903
C	 -2.482460	 -0.343073	 -0.431425
H	 -2.245265	 1.602650	 0.432430
H	 -1.779332	 0.308348	 1.496285
C	 -3.960546	 -0.461025	 -0.060175
H	 -2.395034	 -0.026811	 -1.468912
H	 -2.024850	 -1.327147	 -0.371646
H	 -4.472726	 -1.168004	 -0.705284
H	 -4.465146	 0.496508	 -0.151489
H	 -4.081218	 -0.800940	 0.964585

	symmetry c1
}
set optking {
	frozen_dihedral = ("
		16 12 9 6,
		7 4 6 10,
		12 9 6 10,
		5 3 4 7
	")
}

ee = energy('scf')
oeprop('DIPOLE', 'QUADRUPOLE', 'MULLIKEN_CHARGES')
f=open( 'psi4out.xyz', 'w' )
f.write( "20  " )
f.write( str(ee) + "\n" )
f.write( MOL.save_string_xyz() )
f.close()
--------------------------------------------------------------------------

    Molecular point group: c1

    Geometry (in Angstrom), charge = 0, multiplicity = 1:

       Center              X                  Y                   Z               Mass
    ------------   -----------------  -----------------  -----------------  -----------------
           H          2.430214923889    -1.695937984885     0.782346205615     1.007825032070
           O          2.837394923889    -1.152494984885     0.114791205615    15.994914619560
           C          2.089105923889    -0.060835984885    -0.042560794385    12.000000000000
           C          0.635851923889    -0.336867984885     0.245631205615    12.000000000000
           O          2.554343923889     0.981549015115    -0.371198794385    15.994914619560
           C         -0.254523076111     0.890655015115     0.065446205615    12.000000000000
           H          0.335394923889    -1.157125984885    -0.398010794385     1.007825032070
           H          0.576402923889    -0.719387984885     1.261454205615     1.007825032070
           C         -1.717319076111     0.652796015115     0.454632205615    12.000000000000
           H         -0.197765076111     1.226193015115    -0.965657794385     1.007825032070
           H          0.146437923889     1.699574015115     0.666433205615     1.007825032070
           C         -2.471081076111    -0.336349984885    -0.438894794385    12.000000000000
           H         -2.233886076111     1.609373015115     0.424960205615     1.007825032070
           H         -1.767953076111     0.315071015115     1.488815205615     1.007825032070
           C         -3.949167076111    -0.454301984885    -0.067644794385    12.000000000000
           H         -2.383655076111    -0.020087984885    -1.476381794385     1.007825032070
           H         -2.013471076111    -1.320423984885    -0.379115794385     1.007825032070
           H         -4.461347076111    -1.161280984885    -0.712753794385     1.007825032070
           H         -4.453767076111     0.503231015115    -0.158958794385     1.007825032070
           H         -4.069839076111    -0.794216984885     0.957115205615     1.007825032070

  Charge       = 0
  Multiplicity = 1
  Basis Set: 6-31G*
  Basis Set:

    Orbital Energies (a.u.)
    -----------------------

    Doubly Occupied:

       1A    -20.611519     2A    -20.551691     3A    -11.380688
       4A    -11.250640     5A    -11.228979     6A    -11.225745
       7A    -11.225146     8A    -11.216539     9A     -1.470125
      10A     -1.370580    11A     -1.102079    12A     -1.045413
      13A     -0.962285    14A     -0.866234    15A     -0.827551
      16A     -0.793982    17A     -0.720683    18A     -0.672692
      19A     -0.661639    20A     -0.636609    21A     -0.619751
      22A     -0.597252    23A     -0.565928    24A     -0.562715
      25A     -0.549769    26A     -0.515708    27A     -0.502754
      28A     -0.480273    29A     -0.473813    30A     -0.471617
      31A     -0.462746    32A     -0.440656

  @DF-RHF Final Energy:  -383.93318872441165

   => Energetics <=

    Nuclear Repulsion Energy =            376.5319176686196556
    One-Electron Energy =               -1268.8025643839482655
    Two-Electron Energy =                 508.3374579909171302
    DFT Exchange-Correlation Energy =       0.0000000000000000
    Empirical Dispersion Energy =           0.0000000000000000
    PCM Polarization Energy =               0.0000000000000000
    EFP Energy =                            0.0000000000000000
    Total Energy =                       -383.9331887244115364

  Mulliken Charges: (a.u.)
   Center  Symbol    Alpha    Beta     Spin     Total
       1     H     0.26869  0.26869  0.00000  0.46261
       2     O     4.34988  4.34988  0.00000 -0.69977
       3     C     2.60821  2.60821  0.00000  0.78358
       4     C     3.23755  3.23755  0.00000 -0.47510
       5     O     4.26475  4.26475  0.00000 -0.52951
       6     C     3.15349  3.15349  0.00000 -0.30697
       7     H     0.39560  0.39560  0.00000  0.20880
       8     H     0.41174  0.41174  0.00000  0.17652
       9     C     3.15618  3.15618  0.00000 -0.31236
      10     H     0.40874  0.40874  0.00000  0.18253
      11     H     0.40595  0.40595  0.00000  0.18811
      12     C     3.15471  3.15471  0.00000 -0.30941
      13     H     0.41645  0.41645  0.00000  0.16710
      14     H     0.42469  0.42469  0.00000  0.15062
      15     C     3.23930  3.23930  0.00000 -0.47861
      16     H     0.42008  0.42008  0.00000  0.15983
      17     H     0.42499  0.42499  0.00000  0.15002
      18     H     0.41771  0.41771  0.00000  0.16458
      19     H     0.41969  0.41969  0.00000  0.16061
      20     H     0.42159  0.42159  0.00000  0.15682

   Total alpha = 32.00000, Total beta = 32.00000, Total charge = -0.00000
