  ==> Input File <==

--------------------------------------------------------------------------
set {
	reference rhf
	basis cc-pvtz
}

set_num_threads( 4 )
memory 2 gb

molecule MOL {
0 1

H	 2.867672	 -0.456275	 0.875795
C	 2.403497	 -0.020426	 0.000000
N	 0.989899	 -0.304564	 0.000000
H	 2.867672	 -0.456275	 -0.875795
H	 2.620366	 1.051270	 0.000000
C	 0.218958	 0.722753	 -0.669205
C	 0.473633	 -0.544269	 1.331758
H	 0.332848	 1.693047	 -0.175946
H	 0.574442	 0.828834	 -1.687588
C	 -1.249396	 0.343419	 -0.686085
H	 1.015982	 -1.367844	 1.781546
H	 0.606680	 0.330725	 1.975519
C	 -1.001264	 -0.891049	 1.263465
H	 -1.843616	 1.145460	 -1.101127
H	 -1.388819	 -0.543261	 -1.301275
O	 -1.724418	 0.106939	 0.606036
H	 -1.416124	 -0.981328	 2.257632
H	 -1.127847	 -1.841609	 0.749159

	symmetry c1
}
set optking {
	frozen_dihedral = ("
		6 3 2 5
	")
}

ee = optimize('scf')
oeprop('DIPOLE', 'QUADRUPOLE', 'MULLIKEN_CHARGES')
f=open( 'psi4out.xyz', 'w' )
f.write( "18  " )
f.write( str(ee) + "\n" )
f.write( MOL.save_string_xyz() )
f.close()
--------------------------------------------------------------------------

    Molecular point group: c1
  Charge       = 0
  Multiplicity = 1
  Basis Set: CC-PVTZ
  Basis Set:
  @DF-RHF Final Energy:  -325.14208864406527
    Total Energy =                       -325.1420886440652112
    Molecular point group: c1
  Basis Set: CC-PVTZ
  Basis Set:
  Basis Set: CC-PVTZ
  Basis Set:
  @DF-RHF Final Energy:  -325.14230621541145
    Total Energy =                       -325.1423062154119066
  Basis Set: CC-PVTZ
  Basis Set:
  Basis Set: CC-PVTZ
  Basis Set:
  @DF-RHF Final Energy:  -325.14234287047140
    Total Energy =                       -325.1423428704716230
  Basis Set: CC-PVTZ
  Basis Set:
  Charge       = 0
  Multiplicity = 1
  Basis Set: CC-PVTZ
  Basis Set:

    Orbital Energies (a.u.)
    -----------------------

    Doubly Occupied:

       1A    -20.547250     2A    -15.544027     3A    -11.264049
       4A    -11.263906     5A    -11.242517     6A    -11.242452
       7A    -11.238952     8A     -1.386266     9A     -1.231858
      10A     -1.038634    11A     -0.981463    12A     -0.883307
      13A     -0.870163    14A     -0.775111    15A     -0.684758
      16A     -0.645981    17A     -0.644313    18A     -0.633566
      19A     -0.629435    20A     -0.573483    21A     -0.558445
      22A     -0.542544    23A     -0.527813    24A     -0.500801
      25A     -0.484188    26A     -0.453510    27A     -0.409982
      28A     -0.354972

  @DF-RHF Final Energy:  -325.14234431844744

   => Energetics <=

    Nuclear Repulsion Energy =            341.7080315142861195
    One-Electron Energy =               -1119.3932578303110859
    Two-Electron Energy =                 452.5428819975777515
    DFT Exchange-Correlation Energy =       0.0000000000000000
    Empirical Dispersion Energy =           0.0000000000000000
    PCM Polarization Energy =               0.0000000000000000
    EFP Energy =                            0.0000000000000000
    Total Energy =                       -325.1423443184471580
    Molecular point group: c1
  Basis Set: CC-PVTZ
  Basis Set:

  -Total Gradient:
     Atom            X                  Y                   Z
    ------   -----------------  -----------------  -----------------
       1        0.000009514709    -0.000001741719     0.000007818765
       2       -0.000133617105     0.000696267488     0.007653034718
       3        0.000528671131    -0.002456388709    -0.005817199107
       4        0.000001192971    -0.000001764326    -0.000024648768
       5       -0.000014445012    -0.000005780658    -0.004997990745
       6       -0.000323188784     0.001738282257     0.003304327452
       7        0.000029578773    -0.000018353331    -0.000145365484
       8        0.000009988438     0.000022420513    -0.000003892249
       9       -0.000004121869     0.000002860350     0.000007057032
      10       -0.000026197396     0.000011059616    -0.000038000192
      11       -0.000002125739     0.000013592676    -0.000004833268
      12       -0.000007913088    -0.000002037673     0.000002072500
      13       -0.000023949716    -0.000012638577     0.000065881520
      14       -0.000021757987     0.000002037702     0.000004943422
      15       -0.000006696064    -0.000002154431     0.000003670692
      16        0.000016588985    -0.000006789478    -0.000023061674
      17       -0.000035684144    -0.000006639829     0.000014462229
      18        0.000004161892     0.000027768128    -0.000008276844

  **** Optimization is complete! (in 4 steps) ****
    Final optimized geometry and variables:
    Molecular point group: c1

    Geometry (in Angstrom), charge = 0, multiplicity = 1:

    H            2.886430420877    -0.397535865597     0.578863377501
    C            2.397614856447     0.054867599545    -0.272808241108
    N            0.976751194942    -0.233454051385    -0.263385998846
    H            2.854011888074    -0.349886837125    -1.170158638425
    H            2.606170239093     1.124677091167    -0.273089355209
    C            0.205739607790     0.797863857597    -0.928146589267
    C            0.452106132796    -0.456910510596     1.070773071895
    H            0.318011449407     1.762266880899    -0.424339383117
    H            0.565832211600     0.915811073745    -1.944380706735
    C           -1.262280343777     0.419064246923    -0.958105218638
    H            0.988894288586    -1.276610586198     1.533136450949
    H            0.576738984446     0.423961292166     1.707925374713
    C           -1.021441314673    -0.809268079800     0.995529711868
    H           -1.852319900755     1.222683067067    -1.376435203207
    H           -1.397461761117    -0.466125121578    -1.576396105579
    O           -1.747001579547     0.181359521651     0.329927898996
    H           -1.441001736668    -0.897849336269     1.988046541173
    H           -1.139409806088    -1.762888524871     0.484654658327

  Mulliken Charges: (a.u.)
   Center  Symbol    Alpha    Beta     Spin     Total
       1     H     0.45417  0.45417  0.00000  0.09166
       2     C     3.09347  3.09347  0.00000 -0.18694
       3     N     3.61929  3.61929  0.00000 -0.23859
       4     H     0.44925  0.44925  0.00000  0.10150
       5     H     0.46585  0.46585  0.00000  0.06830
       6     C     3.04260  3.04260  0.00000 -0.08519
       7     C     3.03990  3.03990  0.00000 -0.07980
       8     H     0.46788  0.46788  0.00000  0.06425
       9     H     0.45383  0.45383  0.00000  0.09234
      10     C     2.98402  2.98402  0.00000  0.03196
      11     H     0.45408  0.45408  0.00000  0.09185
      12     H     0.46928  0.46928  0.00000  0.06145
      13     C     2.98441  2.98441  0.00000  0.03119
      14     H     0.45002  0.45002  0.00000  0.09997
      15     H     0.46770  0.46770  0.00000  0.06460
      16     O     4.18648  4.18648  0.00000 -0.37296
      17     H     0.44989  0.44989  0.00000  0.10022
      18     H     0.46790  0.46790  0.00000  0.06419

   Total alpha = 28.00000, Total beta = 28.00000, Total charge = -0.00000
