  ==> Input File <==

--------------------------------------------------------------------------
set {
	reference rhf
	basis cc-pvtz
}

set_num_threads( 4 )
memory 2 gb

molecule MOL {
0 1

H	 -2.070312	 0.372911	 -1.021921
N	 -1.851927	 0.161443	 -0.071573
C	 -0.561396	 -0.500007	 0.035200
H	 -2.582536	 -0.424366	 0.275375
C	 0.575129	 0.507849	 -0.048832
H	 -0.478089	 -1.200753	 -0.788956
H	 -0.456191	 -1.081816	 0.952176
C	 1.951750	 -0.141983	 0.035101
H	 0.478254	 1.061643	 -0.975981
H	 0.467676	 1.231891	 0.755499
H	 2.101550	 -0.848142	 -0.774949
H	 2.738260	 0.600794	 -0.026526
H	 2.078939	 -0.679792	 0.968824

	symmetry c1
}
set optking {
	frozen_dihedral = ("
		1 2 3 6
	")
}

ee = optimize('scf')
oeprop('DIPOLE', 'QUADRUPOLE', 'MULLIKEN_CHARGES')
f=open( 'psi4out.xyz', 'w' )
f.write( "13  " )
f.write( str(ee) + "\n" )
f.write( MOL.save_string_xyz() )
f.close()
--------------------------------------------------------------------------

    Molecular point group: c1
  Charge       = 0
  Multiplicity = 1
  Basis Set: CC-PVTZ
  Basis Set:
  @DF-RHF Final Energy:  -173.35019459295199
    Total Energy =                       -173.3501945929519934
    Molecular point group: c1
  Basis Set: CC-PVTZ
  Basis Set:
  Basis Set: CC-PVTZ
  Basis Set:
  @DF-RHF Final Energy:  -173.35169523760953
    Total Energy =                       -173.3516952376094764
  Basis Set: CC-PVTZ
  Basis Set:
  Basis Set: CC-PVTZ
  Basis Set:
  @DF-RHF Final Energy:  -173.35192367150916
    Total Energy =                       -173.3519236715091267
  Basis Set: CC-PVTZ
  Basis Set:
  Basis Set: CC-PVTZ
  Basis Set:
  @DF-RHF Final Energy:  -173.35192905889622
    Total Energy =                       -173.3519290588961042
  Basis Set: CC-PVTZ
  Basis Set:
  Charge       = 0
  Multiplicity = 1
  Basis Set: CC-PVTZ
  Basis Set:

    Orbital Energies (a.u.)
    -----------------------

    Doubly Occupied:

       1A    -15.527409     2A    -11.238879     3A    -11.207567
       4A    -11.205725     5A     -1.178189     6A     -1.035378
       7A     -0.899283     8A     -0.797338     9A     -0.669521
      10A     -0.622555    11A     -0.603657    12A     -0.569557
      13A     -0.525634    14A     -0.491161    15A     -0.480789
      16A     -0.466842    17A     -0.384963

  @DF-RHF Final Energy:  -173.35193009988475

   => Energetics <=

    Nuclear Repulsion Energy =            131.8273086656472231
    One-Electron Energy =                -494.5495846082800426
    Two-Electron Energy =                 189.3703458427480086
    DFT Exchange-Correlation Energy =       0.0000000000000000
    Empirical Dispersion Energy =           0.0000000000000000
    PCM Polarization Energy =               0.0000000000000000
    EFP Energy =                            0.0000000000000000
    Total Energy =                       -173.3519300998847825
    Molecular point group: c1
  Basis Set: CC-PVTZ
  Basis Set:

  -Total Gradient:
     Atom            X                  Y                   Z
    ------   -----------------  -----------------  -----------------
       1       -0.000987723526    -0.001966925661    -0.000152789737
       2        0.001478813866     0.002841707810    -0.000159909588
       3       -0.001281587634    -0.002292090692     0.001462675219
       4       -0.000020662473    -0.000000800905     0.000007602519
       5       -0.000011521094    -0.000024330144     0.000031953735
       6        0.000802803894     0.001447079602    -0.001200576977
       7        0.000018161000     0.000010963367     0.000004012965
       8        0.000012780305    -0.000003343339    -0.000005450537
       9       -0.000013111724    -0.000022019027     0.000008346542
      10       -0.000001627456     0.000007278704     0.000005790242
      11       -0.000002823342    -0.000001552087     0.000002825930
      12        0.000006157834    -0.000000263101    -0.000002065980
      13        0.000000340349     0.000004295471    -0.000002414334

  **** Optimization is complete! (in 5 steps) ****
    Final optimized geometry and variables:
    Molecular point group: c1

    Geometry (in Angstrom), charge = 0, multiplicity = 1:

    H           -2.095080369546     0.371353596164    -0.985260444301
    N           -1.854141085462     0.170078716728    -0.037473196043
    C           -0.560423291081    -0.495167678333     0.040804042543
    H           -2.577060620593    -0.419201269566     0.317274963234
    C            0.578627687696     0.513501356664    -0.021779207087
    H           -0.418468994856    -1.229712719612    -0.752206645928
    H           -0.511471423544    -1.030653498490     0.982471748749
    C            1.954324015995    -0.139213590578     0.055560032614
    H            0.496383695045     1.080958446599    -0.945248895416
    H            0.454310374817     1.225228200982     0.786595450380
    H            2.109139535592    -0.834465008378    -0.763165002549
    H            2.742278022891     0.603227816599     0.009673239859
    H            2.075497585843    -0.690572421283     0.982462050975

  Mulliken Charges: (a.u.)
   Center  Symbol    Alpha    Beta     Spin     Total
       1     H     0.43091  0.43091  0.00000  0.13818
       2     N     3.68966  3.68966  0.00000 -0.37933
       3     C     3.02978  3.02978  0.00000 -0.05956
       4     H     0.42875  0.42875  0.00000  0.14251
       5     C     3.07108  3.07108  0.00000 -0.14216
       6     H     0.46720  0.46720  0.00000  0.06559
       7     H     0.45684  0.45684  0.00000  0.08633
       8     C     3.15394  3.15394  0.00000 -0.30787
       9     H     0.45966  0.45966  0.00000  0.08069
      10     H     0.45118  0.45118  0.00000  0.09765
      11     H     0.45729  0.45729  0.00000  0.08542
      12     H     0.44770  0.44770  0.00000  0.10460
      13     H     0.45601  0.45601  0.00000  0.08798

   Total alpha = 17.00000, Total beta = 17.00000, Total charge = -0.00000
