  ==> Input File <==

--------------------------------------------------------------------------
set {
	reference rhf
	basis cc-pvtz
}

set_num_threads( 4 )
memory 2 gb

molecule MOL {
0 1

H	 -1.088256	 -1.364742	 0.152233
O	 -1.432053	 -0.565244	 -0.200812
C	 -0.727158	 0.534527	 0.310686
C	 0.680222	 0.664433	 -0.252229
H	 -1.306802	 1.408001	 0.044211
H	 -0.690821	 0.490158	 1.397609
C	 1.346265	 2.003384	 0.050500
H	 1.286855	 -0.144177	 0.141952
H	 0.624934	 0.523670	 -1.328230
H	 1.473576	 2.152758	 1.117085
H	 2.330330	 2.057829	 -0.399172
H	 0.760542	 2.830998	 -0.338010

	symmetry c1
}
set optking {
	frozen_dihedral = ("
		8 4 3 2
	")
}

ee = optimize('scf')
oeprop('DIPOLE', 'QUADRUPOLE', 'MULLIKEN_CHARGES')
f=open( 'psi4out.xyz', 'w' )
f.write( "12  " )
f.write( str(ee) + "\n" )
f.write( MOL.save_string_xyz() )
f.close()
--------------------------------------------------------------------------

    Molecular point group: c1
  Charge       = 0
  Multiplicity = 1
  Basis Set: CC-PVTZ
  Basis Set:
  @DF-RHF Final Energy:  -193.19048182707166
    Total Energy =                       -193.1904818270716646
    Molecular point group: c1
  Basis Set: CC-PVTZ
  Basis Set:
  Basis Set: CC-PVTZ
  Basis Set:
  @DF-RHF Final Energy:  -193.19076610095249
    Total Energy =                       -193.1907661009523451
  Basis Set: CC-PVTZ
  Basis Set:
  Basis Set: CC-PVTZ
  Basis Set:
  @DF-RHF Final Energy:  -193.19081056085861
    Total Energy =                       -193.1908105608586084
  Basis Set: CC-PVTZ
  Basis Set:
  Basis Set: CC-PVTZ
  Basis Set:
  @DF-RHF Final Energy:  -193.19081553038708
    Total Energy =                       -193.1908155303871695
  Basis Set: CC-PVTZ
  Basis Set:
  Charge       = 0
  Multiplicity = 1
  Basis Set: CC-PVTZ
  Basis Set:

    Orbital Energies (a.u.)
    -----------------------

    Doubly Occupied:

       1A    -20.546155     2A    -11.265561     3A    -11.217408
       4A    -11.213884     5A     -1.364109     6A     -1.054331
       7A     -0.918954     8A     -0.819647     9A     -0.696019
      10A     -0.636005    11A     -0.600563    12A     -0.589219
      13A     -0.543378    14A     -0.501976    15A     -0.499292
      16A     -0.469968    17A     -0.432843

  @DF-RHF Final Energy:  -193.19081578700650

   => Energetics <=

    Nuclear Repulsion Energy =            131.1630172053065735
    One-Electron Energy =                -521.9690391235992593
    Two-Electron Energy =                 197.6152061312861861
    DFT Exchange-Correlation Energy =       0.0000000000000000
    Empirical Dispersion Energy =           0.0000000000000000
    PCM Polarization Energy =               0.0000000000000000
    EFP Energy =                            0.0000000000000000
    Total Energy =                       -193.1908157870064997
    Molecular point group: c1
  Basis Set: CC-PVTZ
  Basis Set:

  -Total Gradient:
     Atom            X                  Y                   Z
    ------   -----------------  -----------------  -----------------
       1       -0.000010196160    -0.000017741997    -0.000004580005
       2       -0.000637501111     0.000947873303    -0.001316714866
       3        0.001001824482    -0.000982119203     0.002184345629
       4       -0.001000186655    -0.001270031030    -0.002558303323
       5        0.000017022012     0.000018254182     0.000004570126
       6        0.000011114895    -0.000009204778    -0.000002124134
       7        0.000008513614     0.000002302160     0.000005368725
       8        0.000625526631     0.001317313550     0.001686079330
       9       -0.000006993231    -0.000004498152     0.000000247495
      10        0.000000349176    -0.000006299604     0.000005039469
      11       -0.000008722818     0.000003536684     0.000007213397
      12       -0.000000750839     0.000000614888    -0.000011141843

  **** Optimization is complete! (in 5 steps) ****
    Final optimized geometry and variables:
    Molecular point group: c1

    Geometry (in Angstrom), charge = 0, multiplicity = 1:

    H           -0.949374921602    -1.977234012132     0.113118734307
    O           -1.372137347233    -1.179206299986    -0.147929315281
    C           -0.654356419736    -0.075240945947     0.332543565874
    C            0.741186943443     0.031547828310    -0.262544830555
    H           -1.237325567457     0.794478472855     0.056953306286
    H           -0.598844789972    -0.093501979878     1.418891163603
    C            1.407555871275     1.365884761287     0.059444786594
    H            1.360830162391    -0.772848426483     0.127415219968
    H            0.671167960890    -0.104399736984    -1.335790915792
    H            1.481756116231     1.521429023336     1.130825520716
    H            2.410043956922     1.409055030159    -0.348475971336
    H            0.845159726430     2.194771950868    -0.356453314217

  Mulliken Charges: (a.u.)
   Center  Symbol    Alpha    Beta     Spin     Total
       1     H     0.39495  0.39495  0.00000  0.21010
       2     O     4.20089  4.20089  0.00000 -0.40178
       3     C     2.96562  2.96562  0.00000  0.06875
       4     C     3.08978  3.08978  0.00000 -0.17955
       5     H     0.45770  0.45770  0.00000  0.08460
       6     H     0.47120  0.47120  0.00000  0.05761
       7     C     3.15283  3.15283  0.00000 -0.30566
       8     H     0.46201  0.46201  0.00000  0.07599
       9     H     0.44857  0.44857  0.00000  0.10285
      10     H     0.45594  0.45594  0.00000  0.08812
      11     H     0.44722  0.44722  0.00000  0.10557
      12     H     0.45329  0.45329  0.00000  0.09341

   Total alpha = 17.00000, Total beta = 17.00000, Total charge = -0.00000
