                              Psi4 1.0.54 Driver

  ==> Input File <==

--------------------------------------------------------------------------
set {
	reference rhf
	basis cc-pvtz
}

set_num_threads( 4 )
memory 2 gb

molecule MOL {
0 1

O	 2.754187	 1.530278	 -0.392021
C	 2.491684	 0.707466	 -1.206996
C	 1.205064	 -0.091784	 -1.166514
C	 3.433787	 0.401179	 -2.349298
C	 0.288398	 0.247429	 0.000314
H	 0.694691	 0.061229	 -2.114762
H	 1.474520	 -1.145429	 -1.151313
C	 -0.993089	 -0.581367	 -0.000217
H	 0.044480	 1.303084	 -0.034486
H	 0.825096	 0.095467	 0.929828
C	 -2.258482	 0.271340	 0.000669
H	 -1.002280	 -1.233920	 -0.870484
H	 -1.002061	 -1.235367	 0.868958
C	 -3.544441	 -0.550271	 -0.000253
H	 -2.250545	 0.925250	 -0.867923
H	 -2.250598	 0.923423	 0.870642
C	 -4.804551	 0.308747	 0.000556
H	 -3.553737	 -1.201524	 -0.870151
H	 -3.553831	 -1.203282	 0.868313
H	 -4.842050	 0.949078	 -0.874436
H	 -5.698404	 -0.304480	 -0.000254
H	 -4.842277	 0.947103	 0.876982
H	 2.938682	 0.572663	 -3.298778
H	 4.310500	 1.026282	 -2.278504
H	 3.726601	 -0.642658	 -2.322709

	symmetry c1
}
set optking {
	frozen_dihedral = ("
		9 5 8 12
	")
}

ee,wfn = optimize('scf', return_wfn=True)
oeprop( wfn, 'DIPOLE', 'QUADRUPOLE', 'MULLIKEN_CHARGES')
f=open( 'psi4out.xyz', 'w' )
f.write( "25  " )
f.write( str(ee) + "\n" )
f.write( MOL.save_string_xyz() )
f.close()
--------------------------------------------------------------------------

    Molecular point group: c1
  Charge       = 0
  Multiplicity = 1
  Basis Set: CC-PVTZ
  Basis Set:
  @DF-RHF Final Energy:  -387.26885728298180
    Total Energy =                       -387.2688572829817986
    Molecular point group: c1
  Basis Set: CC-PVTZ
  Basis Set:
  Basis Set: CC-PVTZ
  Basis Set:
  @DF-RHF Final Energy:  -387.26910021511549
    Total Energy =                       -387.2691002151154862
  Basis Set: CC-PVTZ
  Basis Set:
  Basis Set: CC-PVTZ
  Basis Set:
  @DF-RHF Final Energy:  -387.26915960193742
    Total Energy =                       -387.2691596019374174
  Basis Set: CC-PVTZ
  Basis Set:
  Basis Set: CC-PVTZ
  Basis Set:
  @DF-RHF Final Energy:  -387.26898096125814
    Total Energy =                       -387.2689809612581939
  Basis Set: CC-PVTZ
  Basis Set:
  Basis Set: CC-PVTZ
  Basis Set:
  @DF-RHF Final Energy:  -387.26916201278920
    Total Energy =                       -387.2691620127889109
  Basis Set: CC-PVTZ
  Basis Set:
  Charge       = 0
  Multiplicity = 1
  Basis Set: CC-PVTZ
  Basis Set:

    Orbital Energies (a.u.)
    -----------------------

    Doubly Occupied:

       1A    -20.538968     2A    -11.320339     3A    -11.230714
       4A    -11.226596     5A    -11.214883     6A    -11.214319
       7A    -11.213874     8A    -11.212703     9A    -11.207093
      10A     -1.398879    11A     -1.093620    12A     -1.057599
      13A     -1.014733    14A     -0.970170    15A     -0.891932
      16A     -0.816224    17A     -0.791787    18A     -0.732751
      19A     -0.660341    20A     -0.649110    21A     -0.638622
      22A     -0.624574    23A     -0.598207    24A     -0.579960
      25A     -0.568470    26A     -0.565342    27A     -0.541277
      28A     -0.524004    29A     -0.517709    30A     -0.494945
      31A     -0.486137    32A     -0.477201    33A     -0.464664
      34A     -0.460443    35A     -0.447854    36A     -0.401335

  @DF-RHF Final Energy:  -387.26916227042346

   => Energetics <=

    Nuclear Repulsion Energy =            440.3279664937750226
    One-Electron Energy =               -1397.4995069575902562
    Two-Electron Energy =                 569.9023781933913142
    DFT Exchange-Correlation Energy =       0.0000000000000000
    Empirical Dispersion Energy =           0.0000000000000000
    PCM Polarization Energy =               0.0000000000000000
    EFP Energy =                            0.0000000000000000
    Total Energy =                       -387.2691622704239762
    Molecular point group: c1
  Basis Set: CC-PVTZ
  Basis Set:

  -Total Gradient:
     Atom            X                  Y                   Z
    ------   -----------------  -----------------  -----------------
       1        0.000006026164     0.000021954250     0.000023933642
       2       -0.000018597225    -0.000011745919    -0.000010916472
       3        0.000014754216     0.000009675250    -0.000013301723
       4        0.000012676306    -0.000013894683     0.000002014770
       5        0.000120571905    -0.000245920504    -0.001219163355
       6       -0.000006584116    -0.000006599224     0.000010047659
       7       -0.000002932864     0.000000129988     0.000005431404
       8       -0.000595972920     0.001011980158    -0.000466422978
       9       -0.000018462798     0.000031095414     0.001110002403
      10        0.000005708947    -0.000003373807    -0.000012411312
      11        0.000001765804     0.000003434693    -0.000010583279
      12        0.000503038487    -0.000784778321     0.000586932463
      13       -0.000008427362     0.000006073447    -0.000000219144
      14        0.000003541913    -0.000002673943     0.000007100166
      15        0.000012092402    -0.000009196905    -0.000000605730
      16        0.000009699488    -0.000000636724    -0.000006262864
      17       -0.000015497036    -0.000010276171     0.000005196593
      18       -0.000003178328     0.000004028541     0.000003795194
      19       -0.000006861253    -0.000003790087    -0.000003961089
      20        0.000002942741    -0.000003905585     0.000002763153
      21       -0.000012621495     0.000006670646     0.000000891320
      22        0.000000626869    -0.000001481495    -0.000002586256
      23        0.000000442426     0.000003960947    -0.000003897104
      24       -0.000005869901    -0.000000557080     0.000002783966
      25        0.000001117626    -0.000000172883    -0.000010561429

  **** Optimization is complete! (in 6 steps) ****
    Final optimized geometry and variables:
    Molecular point group: c1

    Geometry (in Angstrom), charge = 0, multiplicity = 1:

    O            2.926880161842     1.277296614095     0.181180032446
    C            2.673363467173     0.450486026297    -0.632689939070
    C            1.385886332432    -0.347833275901    -0.603391119974
    C            3.628560152757     0.138113564514    -1.762578336830
    C            0.456603683035    -0.006256396554     0.553559761934
    H            0.884240524556    -0.196060508345    -1.556628817367
    H            1.653471184641    -1.401845129792    -0.583523192852
    C           -0.843770781104    -0.835822995966     0.552315150196
    H            0.224824049977     1.051014425006     0.518638996520
    H            0.992246516500    -0.149950509455     1.483076732334
    C           -2.111210199023     0.015060748349     0.566324433927
    H           -0.867384325738    -1.492032807474    -0.313490801131
    H           -0.854883458393    -1.495064899728     1.414590749834
    C           -3.396128985262    -0.807075702770     0.580719790334
    H           -2.112533185867     0.669265828316    -0.302836506537
    H           -2.092507965019     0.668116508549     1.435401527771
    C           -4.657083549529     0.050751478299     0.594790269168
    H           -3.414676057767    -1.459824921506    -0.288049583134
    H           -3.394806482693    -1.458940581246     1.450115612071
    H           -4.705591379109     0.689787707393    -0.280692142155
    H           -5.550319138984    -0.563274261133     0.605319718778
    H           -4.685234447121     0.690331886449     1.470648577759
    H            3.144070514531     0.303555770924    -2.718587192099
    H            4.503964094128     0.764400674283    -1.685747773147
    H            3.921943816603    -0.905274339190    -1.726358826192

  Mulliken Charges: (a.u.)
   Center  Symbol    Alpha    Beta     Spin     Total
       1     O     4.17043  4.17043  0.00000 -0.34087
       2     C     2.86407  2.86407  0.00000  0.27186
       3     C     3.11185  3.11185  0.00000 -0.22369
       4     C     3.15113  3.15113  0.00000 -0.30225
       5     C     3.09286  3.09286  0.00000 -0.18571
       6     H     0.44446  0.44446  0.00000  0.11108
       7     H     0.44336  0.44336  0.00000  0.11328
       8     C     3.09722  3.09722  0.00000 -0.19444
       9     H     0.44547  0.44547  0.00000  0.10907
      10     H     0.44163  0.44163  0.00000  0.11675
      11     C     3.08564  3.08564  0.00000 -0.17128
      12     H     0.45672  0.45672  0.00000  0.08656
      13     H     0.44875  0.44875  0.00000  0.10250
      14     C     3.08515  3.08515  0.00000 -0.17029
      15     H     0.45529  0.45529  0.00000  0.08942
      16     H     0.45153  0.45153  0.00000  0.09694
      17     C     3.14995  3.14995  0.00000 -0.29990
      18     H     0.45510  0.45510  0.00000  0.08981
      19     H     0.45451  0.45451  0.00000  0.09099
      20     H     0.45539  0.45539  0.00000  0.08922
      21     H     0.44856  0.44856  0.00000  0.10288
      22     H     0.45454  0.45454  0.00000  0.09093
      23     H     0.45061  0.45061  0.00000  0.09878
      24     H     0.43538  0.43538  0.00000  0.12923
      25     H     0.45042  0.45042  0.00000  0.09916

   Total alpha = 36.00000, Total beta = 36.00000, Total charge = -0.00000

*** Psi4 exiting successfully. Buy a developer a beer!
