  ==> Input File <==

--------------------------------------------------------------------------
set {
	reference rhf
	basis cc-pvtz
}

set_num_threads( 4 )
memory 2 gb

molecule MOL {
0 1

H	 -0.336940	 1.378669	 1.139636
C	 0.642408	 1.080697	 0.782916
N	 0.526300	 -0.128137	 0.000000
H	 1.265931	 0.898777	 1.649037
H	 1.063262	 1.922902	 0.229613
C	 -0.247113	 0.037112	 -1.209233
H	 1.432971	 -0.478236	 -0.221442
H	 -0.996493	 -0.743733	 -1.271440
H	 0.397975	 -0.057351	 -2.073512
H	 -0.763794	 0.997171	 -1.271673

	symmetry c1
}
set optking {
	frozen_dihedral = ("
		2 3 6 8
	")
}

ee = optimize('scf')
oeprop('DIPOLE', 'QUADRUPOLE', 'MULLIKEN_CHARGES')
f=open( 'psi4out.xyz', 'w' )
f.write( "10  " )
f.write( str(ee) + "\n" )
f.write( MOL.save_string_xyz() )
f.close()
--------------------------------------------------------------------------

    Molecular point group: c1
  Charge       = 0
  Multiplicity = 1
  Basis Set: CC-PVTZ
  Basis Set:
  @DF-RHF Final Energy:  -134.28728758676971
    Total Energy =                       -134.2872875867695939
    Molecular point group: c1
  Basis Set: CC-PVTZ
  Basis Set:
  Basis Set: CC-PVTZ
  Basis Set:
  @DF-RHF Final Energy:  -134.28815403841350
    Total Energy =                       -134.2881540384135235
  Basis Set: CC-PVTZ
  Basis Set:
  Basis Set: CC-PVTZ
  Basis Set:
  @DF-RHF Final Energy:  -134.28828041862340
    Total Energy =                       -134.2882804186234011
  Basis Set: CC-PVTZ
  Basis Set:
  Basis Set: CC-PVTZ
  Basis Set:
  @DF-RHF Final Energy:  -134.28829094933775
    Total Energy =                       -134.2882909493377497
  Basis Set: CC-PVTZ
  Basis Set:
  Charge       = 0
  Multiplicity = 1
  Basis Set: CC-PVTZ
  Basis Set:

    Orbital Energies (a.u.)
    -----------------------

    Doubly Occupied:

       1A    -15.528693     2A    -11.234407     3A    -11.233798
       4A     -1.195714     5A     -0.947933     6A     -0.855429
       7A     -0.660780     8A     -0.609118     9A     -0.588579
      10A     -0.545902    11A     -0.511415    12A     -0.506422
      13A     -0.357431

  @DF-RHF Final Energy:  -134.28829239654064

   => Energetics <=

    Nuclear Repulsion Energy =             84.4725112682664587
    One-Electron Energy =                -347.9703666823861568
    Two-Electron Energy =                 129.2095630175790575
    DFT Exchange-Correlation Energy =       0.0000000000000000
    Empirical Dispersion Energy =           0.0000000000000000
    PCM Polarization Energy =               0.0000000000000000
    EFP Energy =                            0.0000000000000000
    Total Energy =                       -134.2882923965406690
    Molecular point group: c1
  Basis Set: CC-PVTZ
  Basis Set:

  -Total Gradient:
     Atom            X                  Y                   Z
    ------   -----------------  -----------------  -----------------
       1        0.000003876785    -0.000003468887     0.000000399291
       2       -0.001087375321    -0.000229878191     0.000682376375
       3        0.001287927364     0.000656891607    -0.000657226133
       4       -0.000002276430     0.000007493100     0.000000748566
       5        0.000001121228    -0.000027934525     0.000002912600
       6        0.000871120583    -0.001434676762    -0.000877639705
       7       -0.000016935501    -0.000005549835    -0.000036006759
       8       -0.001070011076     0.001013091591     0.000822008606
       9        0.000007923569     0.000017893724     0.000046186340
      10        0.000004628800     0.000006138178     0.000016240819

  **** Optimization is complete! (in 5 steps) ****
    Final optimized geometry and variables:
    Molecular point group: c1

    Geometry (in Angstrom), charge = 0, multiplicity = 1:

    H           -0.645106270383     1.051943387394     1.299091971467
    C            0.331236923606     0.746019385459     0.942427569016
    N            0.208816986145    -0.460996046110     0.157997588880
    H            0.948721844779     0.552340771857     1.810710936465
    H            0.765914501451     1.587946724167     0.399731628206
    C           -0.561239979177    -0.332154674459    -1.067690477049
    H            1.105473975376    -0.849143503663    -0.027056890395
    H           -1.311332241600    -1.111597143211    -1.141505987304
    H            0.059308465435    -0.370432381246    -1.958502673988
    H           -1.085749643110     0.616366469567    -1.086258839540

  Mulliken Charges: (a.u.)
   Center  Symbol    Alpha    Beta     Spin     Total
       1     H     0.45667  0.45667  0.00000  0.08666
       2     C     3.08176  3.08176  0.00000 -0.16353
       3     N     3.63530  3.63530  0.00000 -0.27059
       4     H     0.45330  0.45330  0.00000  0.09339
       5     H     0.47447  0.47447  0.00000  0.05107
       6     C     3.07803  3.07803  0.00000 -0.15606
       7     H     0.43910  0.43910  0.00000  0.12181
       8     H     0.45561  0.45561  0.00000  0.08878
       9     H     0.46315  0.46315  0.00000  0.07370
      10     H     0.46262  0.46262  0.00000  0.07477

   Total alpha = 13.00000, Total beta = 13.00000, Total charge = -0.00000
