  ==> Input File <==

--------------------------------------------------------------------------
set {
	reference rhf
	basis cc-pvtz
}

set_num_threads( 4 )
memory 2 gb

molecule MOL {
0 1

H	 -1.179271	 -0.694268	 -0.820451
N	 -0.625934	 -0.663929	 -0.000707
C	 -1.028288	 -1.468225	 1.129034
C	 0.468494	 0.129045	 -0.002160
H	 -2.015069	 -1.184809	 1.475338
H	 -0.321399	 -1.311651	 1.925832
H	 -1.039284	 -2.520865	 0.872389
C	 1.785715	 -0.615093	 0.000603
O	 0.413285	 1.323206	 0.000532
H	 1.866994	 -1.243310	 -0.878792
H	 2.591506	 0.100263	 0.006422
H	 1.860358	 -1.250360	 0.875522

	symmetry c1
}
set optking {
	frozen_dihedral = ("
		3 2 4 9
	")
}

ee = optimize('scf')
oeprop('DIPOLE', 'QUADRUPOLE', 'MULLIKEN_CHARGES')
f=open( 'psi4out.xyz', 'w' )
f.write( "12  " )
f.write( str(ee) + "\n" )
f.write( MOL.save_string_xyz() )
f.close()
--------------------------------------------------------------------------

    Molecular point group: c1
  Charge       = 0
  Multiplicity = 1
  Basis Set: CC-PVTZ
  Basis Set:
  @DF-RHF Final Energy:  -247.06393216157085
    Total Energy =                       -247.0639321615710173
    Molecular point group: c1
  Basis Set: CC-PVTZ
  Basis Set:
  Basis Set: CC-PVTZ
  Basis Set:
  @DF-RHF Final Energy:  -247.07026107631455
    Total Energy =                       -247.0702610763146367
  Basis Set: CC-PVTZ
  Basis Set:
  Basis Set: CC-PVTZ
  Basis Set:
  @DF-RHF Final Energy:  -247.07576759637249
    Total Energy =                       -247.0757675963724864
  Basis Set: CC-PVTZ
  Basis Set:
  Basis Set: CC-PVTZ
  Basis Set:
  @DF-RHF Final Energy:  -247.08108908299994
    Total Energy =                       -247.0810890829997675
  Basis Set: CC-PVTZ
  Basis Set:
  @DF-RHF Final Energy:  -247.07230025743749
    Total Energy =                       -247.0723002574374618
  @DF-RHF Final Energy:  -247.08192577195379
    Total Energy =                       -247.0819257719539905
  @DF-RHF Final Energy:  -247.08433704089356
    Total Energy =                       -247.0843370408937858
  @DF-RHF Final Energy:  -247.08516382694711
    Total Energy =                       -247.0851638269471664
  @DF-RHF Final Energy:  -247.08629328919366
    Total Energy =                       -247.0862932891935770
  @DF-RHF Final Energy:  -247.08655964103141
    Total Energy =                       -247.0865596410313287
  @DF-RHF Final Energy:  -247.08657840737570
    Total Energy =                       -247.0865784073754412
  Basis Set: CC-PVTZ
  Basis Set:
  @DF-RHF Final Energy:  -247.08658542103117
    Total Energy =                       -247.0865854210312023
  Basis Set: CC-PVTZ
  Basis Set:
  Basis Set: CC-PVTZ
  Basis Set:
  @DF-RHF Final Energy:  -247.08658647784148
    Total Energy =                       -247.0865864778412515
  Basis Set: CC-PVTZ
  Basis Set:
  Basis Set: CC-PVTZ
  Basis Set:
  @DF-RHF Final Energy:  -247.08658675159998
    Total Energy =                       -247.0865867516000662
  Basis Set: CC-PVTZ
  Basis Set:
  Charge       = 0
  Multiplicity = 1
  Basis Set: CC-PVTZ
  Basis Set:

    Orbital Energies (a.u.)
    -----------------------

    Doubly Occupied:

       1A    -20.532671     2A    -15.564162     3A    -11.343968
       4A    -11.264135     5A    -11.228825     6A     -1.407927
       7A     -1.223617     8A     -1.009871     9A     -0.942344
      10A     -0.770234    11A     -0.681223    12A     -0.663938
      13A     -0.634239    14A     -0.602629    15A     -0.577384
      16A     -0.566094    17A     -0.549668    18A     -0.504998
      19A     -0.436628    20A     -0.399784

  @DF-RHF Final Energy:  -247.08658627199728

   => Energetics <=

    Nuclear Repulsion Energy =            181.3149269280716283
    One-Electron Energy =                -694.9943472639558877
    Two-Electron Energy =                 266.5928340638869827
    DFT Exchange-Correlation Energy =       0.0000000000000000
    Empirical Dispersion Energy =           0.0000000000000000
    PCM Polarization Energy =               0.0000000000000000
    EFP Energy =                            0.0000000000000000
    Total Energy =                       -247.0865862719973052
    Molecular point group: c1
  Basis Set: CC-PVTZ
  Basis Set:

  -Total Gradient:
     Atom            X                  Y                   Z
    ------   -----------------  -----------------  -----------------
       1        0.000013422847     0.000107052691    -0.000178597627
       2        0.005823575557    -0.006242522536     0.002648664464
       3       -0.004367564564     0.004549268953     0.000685041810
       4       -0.000040592444     0.000113532103    -0.011005197813
       5        0.000027711405     0.000025945838    -0.000029734003
       6       -0.000002627248     0.000013032392     0.000013078347
       7       -0.000007863606    -0.000023975941     0.000002875703
       8       -0.000158187266    -0.000093298178     0.000005940196
       9       -0.001486307633     0.001527691673     0.007863058979
      10        0.000018777710     0.000067952106     0.000032986676
      11        0.000035232568    -0.000010137081    -0.000023977057
      12        0.000144422675    -0.000034542022    -0.000014139675

  **** Optimization is complete! (in 15 steps) ****
    Final optimized geometry and variables:
    Molecular point group: c1

    Geometry (in Angstrom), charge = 0, multiplicity = 1:

    H           -1.536025819675    -0.185349022516    -0.726253981744
    N           -0.739556604138    -0.602564848401    -0.290819850502
    C           -1.145478849640    -1.159286955946     0.996444251707
    C            0.261883314102     0.371822655034    -0.283013577384
    H           -1.456760126722    -0.394891255045     1.702599009576
    H           -0.343456069489    -1.732895373919     1.438221382590
    H           -1.973446075599    -1.833070491138     0.830203455972
    C            1.651305418403    -0.112093285210     0.044317975895
    O            0.029410766048     1.508589064689    -0.538864385572
    H            2.019394764665    -0.687988614998    -0.796620900090
    H            2.297156255636     0.734892283837     0.212441265931
    H            1.661035318217    -0.759975606800     0.909948115475

  Mulliken Charges: (a.u.)
   Center  Symbol    Alpha    Beta     Spin     Total
       1     H     0.43211  0.43211  0.00000  0.13578
       2     N     3.62580  3.62580  0.00000 -0.25161
       3     C     3.08705  3.08705  0.00000 -0.17411
       4     C     2.83674  2.83674  0.00000  0.32652
       5     H     0.45898  0.45898  0.00000  0.08204
       6     H     0.45188  0.45188  0.00000  0.09624
       7     H     0.44546  0.44546  0.00000  0.10908
       8     C     3.14308  3.14308  0.00000 -0.28615
       9     O     4.18494  4.18494  0.00000 -0.36987
      10     H     0.44485  0.44485  0.00000  0.11030
      11     H     0.43706  0.43706  0.00000  0.12588
      12     H     0.45205  0.45205  0.00000  0.09590

   Total alpha = 20.00000, Total beta = 20.00000, Total charge =  0.00000
