                              Psi4 1.0.54 Driver

  ==> Input File <==

--------------------------------------------------------------------------
set {
	reference rhf
	basis cc-pvtz
}

set_num_threads( 4 )
memory 2 gb

molecule MOL {
0 1

H	 -2.525576	 1.562359	 -1.673898
C	 -1.763685	 0.971649	 -1.208181
C	 -2.105997	 -0.000418	 -0.398703
H	 -0.735777	 1.191895	 -1.419594
O	 -1.189946	 -0.765863	 0.237511
H	 -3.133093	 -0.235209	 -0.186395
C	 0.026572	 -0.995256	 -0.379403
C	 1.057223	 0.049888	 -0.004615
H	 -0.054361	 -1.010670	 -1.459674
H	 0.397526	 -1.952058	 -0.044198
F	 2.203233	 -0.234060	 -0.590375
F	 0.698147	 1.254887	 -0.392621
F	 1.266440	 0.094219	 1.288722

	symmetry c1
}
set optking {
	frozen_dihedral = ("
		6 3 5 7
	")
}

ee,wfn = optimize('scf', return_wfn=True)
oeprop( wfn, 'DIPOLE', 'QUADRUPOLE', 'MULLIKEN_CHARGES')
f=open( 'psi4out.xyz', 'w' )
f.write( "13  " )
f.write( str(ee) + "\n" )
f.write( MOL.save_string_xyz() )
f.close()
--------------------------------------------------------------------------

    Molecular point group: c1
  Charge       = 0
  Multiplicity = 1
  Basis Set: CC-PVTZ
  Basis Set:
  @DF-RHF Final Energy:  -527.72448152426011
    Total Energy =                       -527.7244815242602272
    Molecular point group: c1
  Basis Set: CC-PVTZ
  Basis Set:
  Basis Set: CC-PVTZ
  Basis Set:
  @DF-RHF Final Energy:  -527.73532996642325
    Total Energy =                       -527.7353299664234783
  Basis Set: CC-PVTZ
  Basis Set:
  Basis Set: CC-PVTZ
  Basis Set:
  @DF-RHF Final Energy:  -527.73614358639429
    Total Energy =                       -527.7361435863947463
  Basis Set: CC-PVTZ
  Basis Set:
  Basis Set: CC-PVTZ
  Basis Set:
  @DF-RHF Final Energy:  -527.73890175482074
    Total Energy =                       -527.7389017548208585
  Basis Set: CC-PVTZ
  Basis Set:
  @DF-RHF Final Energy:  -527.73943669747018
    Total Energy =                       -527.7394366974701825
  @DF-RHF Final Energy:  -527.74008496568956
    Total Energy =                       -527.7400849656895616
  @DF-RHF Final Energy:  -527.74032483419842
    Total Energy =                       -527.7403248341985318
  Basis Set: CC-PVTZ
  Basis Set:
  @DF-RHF Final Energy:  -527.74038527782068
    Total Energy =                       -527.7403852778205646
  Basis Set: CC-PVTZ
  Basis Set:
  Basis Set: CC-PVTZ
  Basis Set:
  @DF-RHF Final Energy:  -527.74040120190739
    Total Energy =                       -527.7404012019075026
  Basis Set: CC-PVTZ
  Basis Set:
  Basis Set: CC-PVTZ
  Basis Set:
  @DF-RHF Final Energy:  -527.74040434343715
    Total Energy =                       -527.7404043434369214
  Basis Set: CC-PVTZ
  Basis Set:
  Charge       = 0
  Multiplicity = 1
  Basis Set: CC-PVTZ
  Basis Set:

    Orbital Energies (a.u.)
    -----------------------

    Doubly Occupied:

       1A    -26.339362     2A    -26.338177     3A    -26.335655
       4A    -20.602916     5A    -11.496018     6A    -11.316648
       7A    -11.301751     8A    -11.219984     9A     -1.748197
      10A     -1.644526    11A     -1.642954    12A     -1.441678
      13A     -1.083514    14A     -1.027164    15A     -0.937709
      16A     -0.843649    17A     -0.837913    18A     -0.827601
      19A     -0.778909    20A     -0.734594    21A     -0.716005
      22A     -0.706567    23A     -0.680830    24A     -0.666132
      25A     -0.662464    26A     -0.648561    27A     -0.632500
      28A     -0.608974    29A     -0.551426    30A     -0.537163
      31A     -0.503244    32A     -0.366037

  @DF-RHF Final Energy:  -527.74040502882190

   => Energetics <=

    Nuclear Repulsion Energy =            417.7165896891379475
    One-Electron Energy =               -1559.3563427255558054
    Two-Electron Energy =                 613.8993480075957905
    DFT Exchange-Correlation Energy =       0.0000000000000000
    Empirical Dispersion Energy =           0.0000000000000000
    PCM Polarization Energy =               0.0000000000000000
    EFP Energy =                            0.0000000000000000
    Total Energy =                       -527.7404050288221242
    Molecular point group: c1
  Basis Set: CC-PVTZ
  Basis Set:

  -Total Gradient:
     Atom            X                  Y                   Z
    ------   -----------------  -----------------  -----------------
       1       -0.000002543095     0.000000779235    -0.000004212082
       2        0.000019124685    -0.000024465915     0.000048642274
       3        0.000041905714     0.001702575051     0.001465880165
       4        0.000002473685    -0.000003135654    -0.000009301849
       5        0.001538568167     0.002094582317    -0.000032173209
       6       -0.000526726154    -0.002035516794    -0.001272905492
       7       -0.001076163216    -0.001749840911    -0.000223636466
       8        0.000014282185     0.000018457936     0.000107583707
       9       -0.000000450346    -0.000002631764     0.000005775205
      10        0.000009863216     0.000008273750     0.000004373389
      11       -0.000031743633    -0.000009800717    -0.000022247398
      12        0.000013574012     0.000041649952    -0.000076686358
      13       -0.000002165216    -0.000040926481     0.000008908115

  **** Optimization is complete! (in 11 steps) ****
    Final optimized geometry and variables:
    Molecular point group: c1

    Geometry (in Angstrom), charge = 0, multiplicity = 1:

    H           -3.157256057430     1.412051205613    -1.584336788442
    C           -2.271740985045     0.953673057782    -1.193385047801
    C           -2.356834963770     0.287313892522    -0.064638509180
    H           -1.360443332250     1.081017217744    -1.741666092025
    O           -1.378197678083    -0.375968091524     0.589883548900
    H           -3.284675384773     0.197256593877     0.465438830100
    C           -0.314368944657    -0.940255143619    -0.098963285457
    C            0.963320366407    -0.154804121280     0.107116741433
    H           -0.504912786774    -1.013444624170    -1.159900875655
    H           -0.142945186855    -1.929971696742     0.300057704496
    F            1.950665027756    -0.758056241488    -0.525514962395
    F            0.882038950728     1.071442409971    -0.359664093004
    F            1.289537437362    -0.075602129649     1.375368869220

  Mulliken Charges: (a.u.)
   Center  Symbol    Alpha    Beta     Spin     Total
       1     H     0.42318  0.42318  0.00000  0.15364
       2     C     3.19650  3.19650  0.00000 -0.39301
       3     C     2.98051  2.98051  0.00000  0.03899
       4     H     0.42595  0.42595  0.00000  0.14810
       5     O     4.15536  4.15536  0.00000 -0.31073
       6     H     0.41300  0.41300  0.00000  0.17401
       7     C     3.01562  3.01562  0.00000 -0.03125
       8     C     2.67410  2.67410  0.00000  0.65180
       9     H     0.45080  0.45080  0.00000  0.09839
      10     H     0.43499  0.43499  0.00000  0.13001
      11     F     4.61338  4.61338  0.00000 -0.22677
      12     F     4.60897  4.60897  0.00000 -0.21795
      13     F     4.60762  4.60762  0.00000 -0.21524

   Total alpha = 32.00000, Total beta = 32.00000, Total charge = -0.00000

*** Psi4 exiting successfully. Buy a developer a beer!
