  ==> Input File <==

--------------------------------------------------------------------------
set {
	reference rhf
	basis cc-pvtz
}

set_num_threads( 4 )
memory 2 gb

molecule MOL {
0 1

H	 2.384361	 -0.943326	 -1.613623
O	 1.733825	 -1.176876	 -0.968648
C	 0.762502	 -0.269129	 -1.002517
C	 -0.318151	 -0.570512	 0.000144
O	 0.784924	 0.649123	 -1.747016
C	 -1.454884	 0.441630	 -0.000560
H	 -0.681352	 -1.571058	 -0.211715
H	 0.156555	 -0.629155	 0.974369
C	 -2.822577	 -0.232186	 0.000063
H	 -1.359760	 1.084704	 -0.867077
H	 -1.359641	 1.085996	 0.864983
H	 -2.954352	 -0.858985	 -0.875745
H	 -3.615886	 0.505352	 0.000019
H	 -2.953878	 -0.858359	 0.876394

	symmetry c1
}
set optking {
	frozen_dihedral = ("
		7 4 6 10
	")
}

ee = optimize('scf')
oeprop('DIPOLE', 'QUADRUPOLE', 'MULLIKEN_CHARGES')
f=open( 'psi4out.xyz', 'w' )
f.write( "14  " )
f.write( str(ee) + "\n" )
f.write( MOL.save_string_xyz() )
f.close()
--------------------------------------------------------------------------

    Molecular point group: c1
  Charge       = 0
  Multiplicity = 1
  Basis Set: CC-PVTZ
  Basis Set:
  @DF-RHF Final Energy:  -305.99645092869366
    Total Energy =                       -305.9964509286936618
    Molecular point group: c1
  Basis Set: CC-PVTZ
  Basis Set:
  Basis Set: CC-PVTZ
  Basis Set:
  @DF-RHF Final Energy:  -305.99674358359687
    Total Energy =                       -305.9967435835966398
  Basis Set: CC-PVTZ
  Basis Set:
  Basis Set: CC-PVTZ
  Basis Set:
  @DF-RHF Final Energy:  -305.99668455603614
    Total Energy =                       -305.9966845560363140
  Basis Set: CC-PVTZ
  Basis Set:
  Basis Set: CC-PVTZ
  Basis Set:
  @DF-RHF Final Energy:  -305.99682702769331
    Total Energy =                       -305.9968270276934277
  Basis Set: CC-PVTZ
  Basis Set:
  Basis Set: CC-PVTZ
  Basis Set:
  @DF-RHF Final Energy:  -305.99682840233095
    Total Energy =                       -305.9968284023304932
  Basis Set: CC-PVTZ
  Basis Set:
  Charge       = 0
  Multiplicity = 1
  Basis Set: CC-PVTZ
  Basis Set:

    Orbital Energies (a.u.)
    -----------------------

    Doubly Occupied:

       1A    -20.604696     2A    -20.541808     3A    -11.375013
       4A    -11.239715     5A    -11.222357     6A    -11.214861
       7A     -1.478718     8A     -1.370134     9A     -1.081408
      10A     -0.981227    11A     -0.859956    12A     -0.792510
      13A     -0.705295    14A     -0.695333    15A     -0.663961
      16A     -0.615966    17A     -0.598411    18A     -0.571360
      19A     -0.553456    20A     -0.500509    21A     -0.491840
      22A     -0.485616    23A     -0.477766    24A     -0.449837

  @DF-RHF Final Energy:  -305.99682928822983

   => Energetics <=

    Nuclear Repulsion Energy =            240.5938691569823504
    One-Electron Energy =                -894.0378880232354959
    Two-Electron Energy =                 347.4471895780231421
    DFT Exchange-Correlation Energy =       0.0000000000000000
    Empirical Dispersion Energy =           0.0000000000000000
    PCM Polarization Energy =               0.0000000000000000
    EFP Energy =                            0.0000000000000000
    Total Energy =                       -305.9968292882300034
    Molecular point group: c1
  Basis Set: CC-PVTZ
  Basis Set:

  -Total Gradient:
     Atom            X                  Y                   Z
    ------   -----------------  -----------------  -----------------
       1        0.000005432790    -0.000003805484     0.000001709953
       2       -0.000009400575     0.000009975596    -0.000013765104
       3        0.000012285741    -0.000010128952     0.000011268737
       4        0.000730552768     0.000852150911    -0.002795155592
       5       -0.000004594168     0.000003101086     0.000007321371
       6       -0.001793057583    -0.002048818913    -0.000988480348
       7       -0.000328229426    -0.000398745398     0.002461799052
       8        0.000011108931     0.000008166264     0.000003412079
       9       -0.000010516815     0.000002441841     0.000005139515
      10        0.001386443538     0.001580904063     0.001312944583
      11       -0.000009014105    -0.000005701099    -0.000006188494
      12        0.000007393498     0.000007966011     0.000002885272
      13       -0.000004319767     0.000001720954     0.000001799723
      14        0.000005915178     0.000000773118    -0.000004690747

  **** Optimization is complete! (in 6 steps) ****
    Final optimized geometry and variables:
    Molecular point group: c1

    Geometry (in Angstrom), charge = 0, multiplicity = 1:

    H            2.595821524916    -0.737794063462    -0.932615461296
    O            1.929711196427    -0.967173451231    -0.302269213526
    C            0.959093008002    -0.060278339230    -0.367445003401
    C           -0.142423560319    -0.364211662231     0.613265155685
    O            1.002663586441     0.851906611594    -1.118286062364
    C           -1.297504708771     0.644175957129     0.623781636493
    H           -0.490963662954    -1.368878627211     0.399374145184
    H            0.327979166149    -0.439653928976     1.587411415857
    C           -2.668901763200    -0.021056632023     0.661583809281
    H           -1.213364740160     1.290291842110    -0.238330903138
    H           -1.192016060047     1.292036319735     1.486796010765
    H           -2.829644375288    -0.633940079247    -0.218947785929
    H           -3.457367129303     0.721102447152     0.697029700919
    H           -2.775981352499    -0.658840846169     1.532961378553

  Mulliken Charges: (a.u.)
   Center  Symbol    Alpha    Beta     Spin     Total
       1     H     0.38247  0.38247  0.00000  0.23505
       2     O     4.16013  4.16013  0.00000 -0.32026
       3     C     2.80093  2.80093  0.00000  0.39813
       4     C     3.11276  3.11276  0.00000 -0.22552
       5     O     4.19052  4.19052  0.00000 -0.38103
       6     C     3.08788  3.08788  0.00000 -0.17575
       7     H     0.43782  0.43782  0.00000  0.12436
       8     H     0.43445  0.43445  0.00000  0.13110
       9     C     3.14882  3.14882  0.00000 -0.29765
      10     H     0.43557  0.43557  0.00000  0.12886
      11     H     0.45224  0.45224  0.00000  0.09553
      12     H     0.45416  0.45416  0.00000  0.09169
      13     H     0.44701  0.44701  0.00000  0.10599
      14     H     0.45525  0.45525  0.00000  0.08950

   Total alpha = 24.00000, Total beta = 24.00000, Total charge =  0.00000
