  ==> Input File <==

--------------------------------------------------------------------------
set {
	reference rhf
	basis 6-31G*
}

set_num_threads( 1 )
memory 2 gb

molecule MOL {
0 1

H	 2.335935	 -0.112599	 -0.157377
O	 1.586534	 -0.678666	 -0.000226
C	 0.489431	 0.077273	 0.000046
C	 -0.764129	 -0.759190	 0.000191
O	 0.537743	 1.263962	 0.000257
C	 -2.038368	 0.075731	 -0.000248
H	 -0.717284	 -1.412404	 -0.866059
H	 -0.717458	 -1.411724	 0.866967
H	 -2.086483	 0.712501	 -0.875098
H	 -2.908485	 -0.571682	 -0.000042
H	 -2.086576	 0.713280	 0.874068

	symmetry c1
}
set optking {
	frozen_dihedral = ("
		2 3 4 7
	")
}

ee = energy('scf')
oeprop('DIPOLE', 'QUADRUPOLE', 'MULLIKEN_CHARGES')
f=open( 'psi4out.xyz', 'w' )
f.write( "11  " )
f.write( str(ee) + "\n" )
f.write( MOL.save_string_xyz() )
f.close()
--------------------------------------------------------------------------

    Molecular point group: c1

    Geometry (in Angstrom), charge = 0, multiplicity = 1:

       Center              X                  Y                   Z               Mass
    ------------   -----------------  -----------------  -----------------  -----------------
           H          2.336041368774    -0.112445061865    -0.155237388820     1.007825032070
           O          1.586640368774    -0.678512061865     0.001913611180    15.994914619560
           C          0.489537368774     0.077426938135     0.002185611180    12.000000000000
           C         -0.764022631226    -0.759036061865     0.002330611180    12.000000000000
           O          0.537849368774     1.264115938135     0.002396611180    15.994914619560
           C         -2.038261631226     0.075884938135     0.001891611180    12.000000000000
           H         -0.717177631226    -1.412250061865    -0.863919388820     1.007825032070
           H         -0.717351631226    -1.411570061865     0.869106611180     1.007825032070
           H         -2.086376631226     0.712654938135    -0.872958388820     1.007825032070
           H         -2.908378631226    -0.571528061865     0.002097611180     1.007825032070
           H         -2.086469631226     0.713433938135     0.876207611180     1.007825032070

  Charge       = 0
  Multiplicity = 1
  Basis Set: 6-31G*
  Basis Set:

    Orbital Energies (a.u.)
    -----------------------

    Doubly Occupied:

       1A    -20.613355     2A    -20.552989     3A    -11.382097
       4A    -11.244148     5A    -11.220426     6A     -1.475669
       7A     -1.367050     8A     -1.065266     9A     -0.916935
      10A     -0.801330    11A     -0.702042    12A     -0.690562
      13A     -0.662607    14A     -0.598831    15A     -0.589634
      16A     -0.532101    17A     -0.525909    18A     -0.505258
      19A     -0.480139    20A     -0.445973

  @DF-RHF Final Energy:  -266.84552294416869

   => Energetics <=

    Nuclear Repulsion Energy =            179.7839675583861094
    One-Electron Energy =                -720.5143368943478208
    Two-Electron Energy =                 273.8848463917930189
    DFT Exchange-Correlation Energy =       0.0000000000000000
    Empirical Dispersion Energy =           0.0000000000000000
    PCM Polarization Energy =               0.0000000000000000
    EFP Energy =                            0.0000000000000000
    Total Energy =                       -266.8455229441687493

  Mulliken Charges: (a.u.)
   Center  Symbol    Alpha    Beta     Spin     Total
       1     H     0.26750  0.26750  0.00000  0.46500
       2     O     4.35045  4.35045  0.00000 -0.70091
       3     C     2.62539  2.62539  0.00000  0.74922
       4     C     3.20818  3.20818  0.00000 -0.41637
       5     O     4.27803  4.27803  0.00000 -0.55605
       6     C     3.23950  3.23950  0.00000 -0.47901
       7     H     0.39843  0.39843  0.00000  0.20314
       8     H     0.39781  0.39781  0.00000  0.20437
       9     H     0.40922  0.40922  0.00000  0.18155
      10     H     0.41669  0.41669  0.00000  0.16663
      11     H     0.40879  0.40879  0.00000  0.18242

   Total alpha = 20.00000, Total beta = 20.00000, Total charge = -0.00000
