  ==> Input File <==

--------------------------------------------------------------------------
set {
	reference rhf
	basis cc-pvtz
}

set_num_threads( 4 )
memory 2 gb

molecule MOL {
0 1

H	 2.332590	 -0.120492	 0.149108
O	 1.583947	 -0.677544	 -0.001533
C	 0.489979	 0.078084	 0.002623
C	 -0.763662	 -0.754014	 0.000816
O	 0.539051	 1.259395	 -0.000088
C	 -2.038001	 0.074705	 -0.000833
H	 -0.712945	 -1.405886	 -0.864342
H	 -0.715137	 -1.405770	 0.866182
H	 -2.087267	 0.710831	 -0.874232
H	 -2.903419	 -0.576199	 -0.001922
H	 -2.089467	 0.710909	 0.872389

	symmetry c1
}
set optking {
	frozen_dihedral = ("
		1 2 3 5
	")
}

ee = optimize('scf')
oeprop('DIPOLE', 'QUADRUPOLE', 'MULLIKEN_CHARGES')
f=open( 'psi4out.xyz', 'w' )
f.write( "11  " )
f.write( str(ee) + "\n" )
f.write( MOL.save_string_xyz() )
f.close()
--------------------------------------------------------------------------

    Molecular point group: c1
  Charge       = 0
  Multiplicity = 1
  Basis Set: CC-PVTZ
  Basis Set:
  @DF-RHF Final Energy:  -266.95273974738939
    Total Energy =                       -266.9527397473891597
    Molecular point group: c1
  Basis Set: CC-PVTZ
  Basis Set:
  Basis Set: CC-PVTZ
  Basis Set:
  @DF-RHF Final Energy:  -266.95202657389450
    Total Energy =                       -266.9520265738946136
  Basis Set: CC-PVTZ
  Basis Set:
  Basis Set: CC-PVTZ
  Basis Set:
  @DF-RHF Final Energy:  -266.95277168007965
    Total Energy =                       -266.9527716800797634
  Basis Set: CC-PVTZ
  Basis Set:
  Basis Set: CC-PVTZ
  Basis Set:
  @DF-RHF Final Energy:  -266.95277447800629
    Total Energy =                       -266.9527744780065746
  Basis Set: CC-PVTZ
  Basis Set:
  Basis Set: CC-PVTZ
  Basis Set:
  @DF-RHF Final Energy:  -266.95277564931530
    Total Energy =                       -266.9527756493154698
  Basis Set: CC-PVTZ
  Basis Set:
  Charge       = 0
  Multiplicity = 1
  Basis Set: CC-PVTZ
  Basis Set:

    Orbital Energies (a.u.)
    -----------------------

    Doubly Occupied:

       1A    -20.604672     2A    -20.541888     3A    -11.374423
       4A    -11.242847     5A    -11.218749     6A     -1.478181
       7A     -1.370391     8A     -1.066409     9A     -0.918695
      10A     -0.803771    11A     -0.705965    12A     -0.693320
      13A     -0.665311    14A     -0.600744    15A     -0.593283
      16A     -0.533737    17A     -0.527109    18A     -0.505861
      19A     -0.485553    20A     -0.448934

  @DF-RHF Final Energy:  -266.95277486758619

   => Energetics <=

    Nuclear Repulsion Energy =            180.1446006868950462
    One-Electron Energy =                -721.4350631352293703
    Two-Electron Energy =                 274.3376875807481952
    DFT Exchange-Correlation Energy =       0.0000000000000000
    Empirical Dispersion Energy =           0.0000000000000000
    PCM Polarization Energy =               0.0000000000000000
    EFP Energy =                            0.0000000000000000
    Total Energy =                       -266.9527748675861289
    Molecular point group: c1
  Basis Set: CC-PVTZ
  Basis Set:

  -Total Gradient:
     Atom            X                  Y                   Z
    ------   -----------------  -----------------  -----------------
       1       -0.000187707333    -0.000583281104     0.003564173791
       2        0.000285816989     0.000779793158    -0.006114830215
       3        0.000082841302    -0.000327977417     0.006284721299
       4       -0.000049505338     0.000018366145    -0.000143433524
       5       -0.000100461152     0.000106088265    -0.003547440058
       6       -0.000020827405    -0.000013083390    -0.000033783190
       7       -0.000008948224     0.000038230187    -0.000005600415
       8        0.000005411506    -0.000023670331    -0.000007063856
       9       -0.000007394345     0.000005644779     0.000000196833
      10       -0.000007033591     0.000005458148    -0.000000029881
      11        0.000007807589    -0.000005568441     0.000003089216

  **** Optimization is complete! (in 6 steps) ****
    Final optimized geometry and variables:
    Molecular point group: c1

    Geometry (in Angstrom), charge = 0, multiplicity = 1:

    H            2.338512456948    -0.123704906598     0.105902405465
    O            1.584613744536    -0.676527382773    -0.034145358378
    C            0.490051858707     0.078489447517     0.013250027716
    C           -0.763678270497    -0.753836203549     0.002469057301
    O            0.538742275411     1.259411958086     0.030403094821
    C           -2.038370493111     0.074081220710    -0.015611007721
    H           -0.703503620069    -1.410062805419    -0.858651753225
    H           -0.723836433021    -1.401427654058     0.871654487207
    H           -2.079809231241     0.705609756691    -0.892898151775
    H           -2.903683640421    -0.577061617152    -0.021500761930
    H           -2.098329386359     0.715011749899     0.853599354761

  Mulliken Charges: (a.u.)
   Center  Symbol    Alpha    Beta     Spin     Total
       1     H     0.38162  0.38162  0.00000  0.23676
       2     O     4.16114  4.16114  0.00000 -0.32229
       3     C     2.80317  2.80317  0.00000  0.39365
       4     C     3.10116  3.10116  0.00000 -0.20232
       5     O     4.18973  4.18973  0.00000 -0.37945
       6     C     3.13890  3.13890  0.00000 -0.27780
       7     H     0.43887  0.43887  0.00000  0.12226
       8     H     0.44007  0.44007  0.00000  0.11986
       9     H     0.44790  0.44790  0.00000  0.10419
      10     H     0.44967  0.44967  0.00000  0.10065
      11     H     0.44776  0.44776  0.00000  0.10448

   Total alpha = 20.00000, Total beta = 20.00000, Total charge = -0.00000
