                              Psi4 1.0.54 Driver

  ==> Input File <==

--------------------------------------------------------------------------
set {
	reference rhf
	basis cc-pvtz
}

set_num_threads( 4 )
memory 2 gb

molecule MOL {
0 1

O	 -2.817697	 1.304178	 0.001046
C	 -2.664672	 0.129869	 0.003507
C	 -3.797908	 -0.860100	 -0.001145
O	 -1.481217	 -0.452708	 0.001092
H	 -4.408836	 -0.679689	 -0.875387
H	 -3.443486	 -1.878443	 -0.002770
H	 -4.412123	 -0.683688	 0.871605
C	 -0.332055	 0.384012	 -0.000250
C	 0.892252	 -0.506059	 -0.000295
H	 -0.360822	 1.020205	 -0.874146
H	 -0.359817	 1.021310	 0.872861
C	 2.188199	 0.299473	 -0.001416
H	 0.857046	 -1.152781	 -0.871031
H	 0.857910	 -1.151798	 0.871202
C	 3.437151	 -0.577593	 -0.000991
H	 2.209565	 0.950707	 -0.871712
H	 2.210062	 0.952234	 0.867721
C	 4.008243	 -0.803548	 1.394647
H	 4.195149	 -0.121370	 -0.631352
H	 3.201309	 -1.536484	 -0.453753
H	 4.286013	 0.135841	 1.860736
H	 4.892500	 -1.429153	 1.359805
H	 3.284342	 -1.289951	 2.039809

	symmetry c1
}
set optking {
	frozen_dihedral = ("
		19 15 12 16
	")
}

ee,wfn = optimize('scf', return_wfn=True)
oeprop( wfn, 'DIPOLE', 'QUADRUPOLE', 'MULLIKEN_CHARGES')
f=open( 'psi4out.xyz', 'w' )
f.write( "23  " )
f.write( str(ee) + "\n" )
f.write( MOL.save_string_xyz() )
f.close()
--------------------------------------------------------------------------

    Molecular point group: c1
  Charge       = 0
  Multiplicity = 1
  Basis Set: CC-PVTZ
  Basis Set:
  @DF-RHF Final Energy:  -423.13061779381854
    Total Energy =                       -423.1306177938183737
    Molecular point group: c1
  Basis Set: CC-PVTZ
  Basis Set:
  Basis Set: CC-PVTZ
  Basis Set:
  @DF-RHF Final Energy:  -423.13070274183991
    Total Energy =                       -423.1307027418394000
  Basis Set: CC-PVTZ
  Basis Set:
  Basis Set: CC-PVTZ
  Basis Set:
  @DF-RHF Final Energy:  -423.12957240634444
    Total Energy =                       -423.1295724063445505
  Basis Set: CC-PVTZ
  Basis Set:
  Basis Set: CC-PVTZ
  Basis Set:
  @DF-RHF Final Energy:  -423.13093085239700
    Total Energy =                       -423.1309308523968866
  Basis Set: CC-PVTZ
  Basis Set:
  Basis Set: CC-PVTZ
  Basis Set:
  @DF-RHF Final Energy:  -423.13096034240021
    Total Energy =                       -423.1309603424003853
  Basis Set: CC-PVTZ
  Basis Set:
  Basis Set: CC-PVTZ
  Basis Set:
  @DF-RHF Final Energy:  -423.13096760553060
    Total Energy =                       -423.1309676055310547
  Basis Set: CC-PVTZ
  Basis Set:
  Charge       = 0
  Multiplicity = 1
  Basis Set: CC-PVTZ
  Basis Set:

    Orbital Energies (a.u.)
    -----------------------

    Doubly Occupied:

       1A    -20.596024     2A    -20.529556     3A    -11.366445
       4A    -11.279408     5A    -11.230712     6A    -11.222700
       7A    -11.221199     8A    -11.219348     9A    -11.211586
      10A     -1.471242    11A     -1.364052    12A     -1.094471
      13A     -1.042206    14A     -1.003447    15A     -0.931621
      16A     -0.849131    17A     -0.799348    18A     -0.775140
      19A     -0.694021    20A     -0.688554    21A     -0.672785
      22A     -0.635181    23A     -0.616897    24A     -0.597082
      25A     -0.580985    26A     -0.571941    27A     -0.548493
      28A     -0.534198    29A     -0.529765    30A     -0.506965
      31A     -0.500879    32A     -0.473563    33A     -0.466673
      34A     -0.464774    35A     -0.455295    36A     -0.438917

  @DF-RHF Final Energy:  -423.13096782332599

   => Energetics <=

    Nuclear Repulsion Energy =            453.3363434342068672
    One-Electron Energy =               -1474.5654175563868193
    Two-Electron Energy =                 598.0981062988541908
    DFT Exchange-Correlation Energy =       0.0000000000000000
    Empirical Dispersion Energy =           0.0000000000000000
    PCM Polarization Energy =               0.0000000000000000
    EFP Energy =                            0.0000000000000000
    Total Energy =                       -423.1309678233258182
    Molecular point group: c1
  Basis Set: CC-PVTZ
  Basis Set:

  -Total Gradient:
     Atom            X                  Y                   Z
    ------   -----------------  -----------------  -----------------
       1       -0.000017366683     0.000021658062     0.000004617995
       2        0.000081591175    -0.000074657775    -0.000006036390
       3       -0.000009655288     0.000017286534     0.000005464205
       4       -0.000077940484     0.000034064440    -0.000001297486
       5        0.000009047389    -0.000005241731     0.000010546010
       6       -0.000005851289     0.000001929729    -0.000000901999
       7        0.000006548252    -0.000000434726    -0.000013883791
       8        0.000036606033     0.000021804796    -0.000013291580
       9       -0.000014171010    -0.000013796659     0.000019073320
      10       -0.000008246844    -0.000004029829     0.000006250444
      11       -0.000000534284    -0.000012843231    -0.000008799612
      12       -0.002192887241    -0.003442016683    -0.002878598500
      13        0.000001572719     0.000006950294     0.000011268431
      14       -0.000000914802    -0.000000730066    -0.000003359929
      15        0.001727169343     0.002819154821     0.003744881316
      16        0.001569236474     0.002432793747     0.001810558813
      17        0.000000982711    -0.000011628228    -0.000003759711
      18       -0.000008027769    -0.000008324102     0.000014183037
      19       -0.001090041456    -0.001789804395    -0.002688768895
      20       -0.000003977304     0.000001765506     0.000004335055
      21        0.000004910042    -0.000009334306    -0.000006386366
      22       -0.000020463510     0.000006821063    -0.000002692207
      23        0.000012413820     0.000008612745    -0.000003402161

  **** Optimization is complete! (in 7 steps) ****
    Final optimized geometry and variables:
    Molecular point group: c1

    Geometry (in Angstrom), charge = 0, multiplicity = 1:

    O           -2.740874279730     1.403126307539    -0.131706789901
    C           -2.580197675162     0.229966463162    -0.152044823588
    C           -3.707127723060    -0.767363434521    -0.158258663364
    O           -1.393019503186    -0.344340275326    -0.171529372467
    H           -4.329595135253    -0.577584910541    -1.022346302285
    H           -3.346293701964    -1.783262874590    -0.179681416391
    H           -4.311928421207    -0.608287693269     0.724402348303
    C           -0.249733968648     0.500041434727    -0.167600924061
    C            0.980353754804    -0.381371267005    -0.192302366277
    H           -0.288920581829     1.150625557251    -1.030610709113
    H           -0.274443648927     1.122747364655     0.716079304429
    C            2.270688059025     0.433323394353    -0.206887143235
    H            0.938772991558    -1.020013064792    -1.068443360056
    H            0.961114106414    -1.035690578991     0.673295908353
    C            3.541935086931    -0.428242118767    -0.146170533973
    H            2.298492814680     1.069168462752    -1.086112472391
    H            2.269492998000     1.118452936757     0.637647352136
    C            4.064381664806    -0.655472526749     1.268445818167
    H            4.315951111292     0.020163112328    -0.759237672040
    H            3.338476496473    -1.390587929808    -0.607970608087
    H            4.355514669775     0.281400208064     1.730933245862
    H            4.930279875169    -1.307384241926     1.266088528577
    H            3.309918232306    -1.113643500063     1.899201308915

  Mulliken Charges: (a.u.)
   Center  Symbol    Alpha    Beta     Spin     Total
       1     O     4.20244  4.20244  0.00000 -0.40487
       2     C     2.81512  2.81512  0.00000  0.36976
       3     C     3.13993  3.13993  0.00000 -0.27986
       4     O     4.14498  4.14498  0.00000 -0.28996
       5     H     0.44208  0.44208  0.00000  0.11584
       6     H     0.44190  0.44190  0.00000  0.11620
       7     H     0.44212  0.44212  0.00000  0.11577
       8     C     2.97924  2.97924  0.00000  0.04153
       9     C     3.08215  3.08215  0.00000 -0.16429
      10     H     0.45369  0.45369  0.00000  0.09262
      11     H     0.45353  0.45353  0.00000  0.09294
      12     C     3.10544  3.10544  0.00000 -0.21088
      13     H     0.45026  0.45026  0.00000  0.09947
      14     H     0.45054  0.45054  0.00000  0.09891
      15     C     3.09082  3.09082  0.00000 -0.18164
      16     H     0.44524  0.44524  0.00000  0.10951
      17     H     0.45455  0.45455  0.00000  0.09089
      18     C     3.14709  3.14709  0.00000 -0.29417
      19     H     0.44657  0.44657  0.00000  0.10685
      20     H     0.45536  0.45536  0.00000  0.08927
      21     H     0.45425  0.45425  0.00000  0.09150
      22     H     0.44783  0.44783  0.00000  0.10434
      23     H     0.45486  0.45486  0.00000  0.09028

   Total alpha = 36.00000, Total beta = 36.00000, Total charge = -0.00000

*** Psi4 exiting successfully. Buy a developer a beer!
