  ==> Input File <==

--------------------------------------------------------------------------
set {
	reference rhf
	basis 6-31G*
}

set_num_threads( 1 )
memory 2 gb

molecule MOL {
0 1

O	 -0.625656	 -1.379326	 -0.302102
C	 0.477179	 -1.295955	 0.133631
C	 1.245376	 -0.013843	 0.345420
O	 1.194463	 -2.350926	 0.499924
C	 0.455112	 1.231400	 -0.050772
H	 1.545032	 0.009123	 1.387950
H	 2.166555	 -0.090952	 -0.226576
C	 -0.998893	 1.219485	 0.433193
H	 0.482531	 1.345121	 -1.130325
H	 0.957290	 2.103070	 0.354729
C	 -1.883438	 0.145884	 -0.207175
H	 -1.431207	 2.195402	 0.224832
H	 -1.019646	 1.105716	 1.516076
C	 -3.347647	 0.245583	 0.225435
H	 -1.822183	 0.231698	 -1.291012
H	 -1.510341	 -0.844814	 0.042401
C	 -4.239992	 -0.825570	 -0.404234
H	 -3.732888	 1.230466	 -0.033079
H	 -3.408585	 0.170602	 1.310038
C	 -5.701275	 -0.716658	 0.029921
H	 -4.179496	 -0.752714	 -1.488058
H	 -3.859041	 -1.810759	 -0.143352
H	 -6.308102	 -1.488908	 -0.432678
H	 -6.122175	 0.245478	 -0.248167
H	 -5.799072	 -0.820114	 1.106957
C	 0.589475	 -3.622397	 0.350807
H	 -0.310299	 -3.687288	 0.945534
H	 1.318605	 -4.338562	 0.696471
H	 0.344533	 -3.807700	 -0.685148

	symmetry c1
}
set optking {
	frozen_dihedral = ("
		21 17 14 11,
		17 14 11 15,
		15 11 8 5,
		11 8 5 9,
		2 4 26 27,
		1 2 4 26,
		6 3 2 1
	")
}

ee = energy('scf')
oeprop('DIPOLE', 'QUADRUPOLE', 'MULLIKEN_CHARGES')
f=open( 'psi4out.xyz', 'w' )
f.write( "29  " )
f.write( str(ee) + "\n" )
f.write( MOL.save_string_xyz() )
f.close()
--------------------------------------------------------------------------

    Molecular point group: c1

    Geometry (in Angstrom), charge = 0, multiplicity = 1:

       Center              X                  Y                   Z               Mass
    ------------   -----------------  -----------------  -----------------  -----------------
           O          0.542336791084    -0.668992528658    -0.399239191651    15.994914619560
           C          1.645171791084    -0.585621528658     0.036493808349    12.000000000000
           C          2.413368791084     0.696490471342     0.248282808349    12.000000000000
           O          2.362455791084    -1.640592528658     0.402786808349    15.994914619560
           C          1.623104791084     1.941733471342    -0.147909191651    12.000000000000
           H          2.713024791084     0.719456471342     1.290812808349     1.007825032070
           H          3.334547791084     0.619381471342    -0.323713191651     1.007825032070
           C          0.169099791084     1.929818471342     0.336055808349    12.000000000000
           H          1.650523791084     2.055454471342    -1.227462191651     1.007825032070
           H          2.125282791084     2.813403471342     0.257591808349     1.007825032070
           C         -0.715445208916     0.856217471342    -0.304312191651    12.000000000000
           H         -0.263214208916     2.905735471342     0.127694808349     1.007825032070
           H          0.148346791084     1.816049471342     1.418938808349     1.007825032070
           C         -2.179654208916     0.955916471342     0.128297808349    12.000000000000
           H         -0.654190208916     0.942031471342    -1.388149191651     1.007825032070
           H         -0.342348208916    -0.134480528658    -0.054736191651     1.007825032070
           C         -3.071999208916    -0.115236528658    -0.501371191651    12.000000000000
           H         -2.564895208916     1.940799471342    -0.130216191651     1.007825032070
           H         -2.240592208916     0.880935471342     1.212900808349     1.007825032070
           C         -4.533282208916    -0.006324528658    -0.067216191651    12.000000000000
           H         -3.011503208916    -0.042380528658    -1.585195191651     1.007825032070
           H         -2.691048208916    -1.100425528658    -0.240489191651     1.007825032070
           H         -5.140109208916    -0.778574528658    -0.529815191651     1.007825032070
           H         -4.954182208916     0.955811471342    -0.345304191651     1.007825032070
           H         -4.631079208916    -0.109780528658     1.009819808349     1.007825032070
           C          1.757467791084    -2.912063528658     0.253669808349    12.000000000000
           H          0.857693791084    -2.976954528658     0.848396808349     1.007825032070
           H          2.486597791084    -3.628228528658     0.599333808349     1.007825032070
           H          1.512525791084    -3.097366528658    -0.782285191651     1.007825032070

  Charge       = 0
  Multiplicity = 1
  Basis Set: 6-31G*
  Basis Set:

    Orbital Energies (a.u.)
    -----------------------

    Doubly Occupied:

       1A    -20.621384     2A    -20.563455     3A    -11.395495
       4A    -11.293690     5A    -11.246699     6A    -11.221973
       7A    -11.197921     8A    -11.190365     9A    -11.189708
      10A    -11.173323    11A    -11.126380    12A     -1.505312
      13A     -1.412359    14A     -1.090360    15A     -1.054193
      16A     -1.017388    17A     -0.973196    18A     -0.918971
      19A     -0.881762    20A     -0.843737    21A     -0.777024
      22A     -0.756353    23A     -0.724818    24A     -0.705853
      25A     -0.694714    26A     -0.644357    27A     -0.622286
      28A     -0.607958    29A     -0.581747    30A     -0.576544
      31A     -0.564240    32A     -0.553688    33A     -0.542404
      34A     -0.522961    35A     -0.516026    36A     -0.498786
      37A     -0.488956    38A     -0.482688    39A     -0.474306
      40A     -0.456704    41A     -0.445371    42A     -0.423799
      43A     -0.406943    44A     -0.291791

  @DF-RHF Final Energy:  -500.84960709841755

   => Energetics <=

    Nuclear Repulsion Energy =            666.1731277180030020
    One-Electron Energy =               -2003.4894318316341923
    Two-Electron Energy =                 836.4666970152147769
    DFT Exchange-Correlation Energy =       0.0000000000000000
    Empirical Dispersion Energy =           0.0000000000000000
    PCM Polarization Energy =               0.0000000000000000
    EFP Energy =                            0.0000000000000000
    Total Energy =                       -500.8496070984165272

  Mulliken Charges: (a.u.)
   Center  Symbol    Alpha    Beta     Spin     Total
       1     O     4.27742  4.27742  0.00000 -0.55484
       2     C     2.60712  2.60712  0.00000  0.78577
       3     C     3.20848  3.20848  0.00000 -0.41696
       4     O     4.30224  4.30224  0.00000 -0.60448
       5     C     3.15906  3.15906  0.00000 -0.31813
       6     H     0.39585  0.39585  0.00000  0.20829
       7     H     0.39486  0.39486  0.00000  0.21028
       8     C     3.16326  3.16326  0.00000 -0.32651
       9     H     0.41515  0.41515  0.00000  0.16971
      10     H     0.41451  0.41451  0.00000  0.17099
      11     C     3.17770  3.17770  0.00000 -0.35539
      12     H     0.42163  0.42163  0.00000  0.15674
      13     H     0.43128  0.43128  0.00000  0.13744
      14     C     3.13885  3.13885  0.00000 -0.27770
      15     H     0.44179  0.44179  0.00000  0.11643
      16     H     0.33790  0.33790  0.00000  0.32419
      17     C     3.14666  3.14666  0.00000 -0.29332
      18     H     0.44268  0.44268  0.00000  0.11465
      19     H     0.43911  0.43911  0.00000  0.12178
      20     C     3.23650  3.23650  0.00000 -0.47301
      21     H     0.42726  0.42726  0.00000  0.14548
      22     H     0.43055  0.43055  0.00000  0.13890
      23     H     0.42537  0.42537  0.00000  0.14927
      24     H     0.42361  0.42361  0.00000  0.15277
      25     H     0.42571  0.42571  0.00000  0.14858
      26     C     3.09639  3.09639  0.00000 -0.19278
      27     H     0.40806  0.40806  0.00000  0.18387
      28     H     0.40401  0.40401  0.00000  0.19198
      29     H     0.40701  0.40701  0.00000  0.18599

   Total alpha = 44.00000, Total beta = 44.00000, Total charge = -0.00000
