                              Psi4 1.0.54 Driver

  ==> Input File <==

--------------------------------------------------------------------------
set {
	reference rhf
	basis cc-pvtz
}

set_num_threads( 4 )
memory 2 gb

molecule MOL {
0 1

O	 -2.817697	 1.304178	 0.001046
C	 -2.664672	 0.129869	 0.003507
C	 -3.797908	 -0.860100	 -0.001145
O	 -1.481217	 -0.452708	 0.001092
H	 -4.408836	 -0.679689	 -0.875387
H	 -3.443486	 -1.878443	 -0.002770
H	 -4.412123	 -0.683688	 0.871605
C	 -0.332055	 0.384012	 -0.000250
C	 0.892252	 -0.506059	 -0.000295
H	 -0.360822	 1.020205	 -0.874146
H	 -0.359817	 1.021310	 0.872861
C	 2.188199	 0.299473	 -0.001416
H	 0.857046	 -1.152781	 -0.871031
H	 0.857910	 -1.151798	 0.871202
C	 3.437151	 -0.577593	 -0.000991
H	 2.209565	 0.950707	 -0.871712
H	 2.210062	 0.952234	 0.867721
C	 4.378893	 -0.276977	 -1.161922
H	 3.141062	 -1.622114	 -0.037929
H	 3.967708	 -0.444448	 0.937555
H	 3.886931	 -0.434383	 -2.115883
H	 5.254009	 -0.915567	 -1.132256
H	 4.719725	 0.752514	 -1.133019

	symmetry c1
}
set optking {
	frozen_dihedral = ("
		19 15 12 16
	")
}

ee,wfn = optimize('scf', return_wfn=True)
oeprop( wfn, 'DIPOLE', 'QUADRUPOLE', 'MULLIKEN_CHARGES')
f=open( 'psi4out.xyz', 'w' )
f.write( "23  " )
f.write( str(ee) + "\n" )
f.write( MOL.save_string_xyz() )
f.close()
--------------------------------------------------------------------------

    Molecular point group: c1
  Charge       = 0
  Multiplicity = 1
  Basis Set: CC-PVTZ
  Basis Set:
  @DF-RHF Final Energy:  -423.12895174692949
    Total Energy =                       -423.1289517469296015
    Molecular point group: c1
  Basis Set: CC-PVTZ
  Basis Set:
  Basis Set: CC-PVTZ
  Basis Set:
  @DF-RHF Final Energy:  -423.12901210906438
    Total Energy =                       -423.1290121090642060
  Basis Set: CC-PVTZ
  Basis Set:
  Basis Set: CC-PVTZ
  Basis Set:
  @DF-RHF Final Energy:  -423.12909489151423
    Total Energy =                       -423.1290948915142280
  Basis Set: CC-PVTZ
  Basis Set:
  Basis Set: CC-PVTZ
  Basis Set:
  @DF-RHF Final Energy:  -423.12923028655871
    Total Energy =                       -423.1292302865589363
  Basis Set: CC-PVTZ
  Basis Set:
  Basis Set: CC-PVTZ
  Basis Set:
  @DF-RHF Final Energy:  -423.12925621128221
    Total Energy =                       -423.1292562112826090
  Basis Set: CC-PVTZ
  Basis Set:
  Charge       = 0
  Multiplicity = 1
  Basis Set: CC-PVTZ
  Basis Set:

    Orbital Energies (a.u.)
    -----------------------

    Doubly Occupied:

       1A    -20.595981     2A    -20.529545     3A    -11.366423
       4A    -11.279268     5A    -11.230705     6A    -11.222837
       7A    -11.221099     8A    -11.219213     9A    -11.211509
      10A     -1.471206    11A     -1.364026    12A     -1.093514
      13A     -1.042158    14A     -1.004100    15A     -0.931369
      16A     -0.844561    17A     -0.802543    18A     -0.775993
      19A     -0.694119    20A     -0.688481    21A     -0.672237
      22A     -0.639100    23A     -0.611669    24A     -0.593943
      25A     -0.583130    26A     -0.571703    27A     -0.552281
      28A     -0.535097    29A     -0.527419    30A     -0.504717
      31A     -0.500018    32A     -0.475913    33A     -0.465344
      34A     -0.463701    35A     -0.455407    36A     -0.438800

  @DF-RHF Final Energy:  -423.12925640778468

   => Energetics <=

    Nuclear Repulsion Energy =            451.1959536918390654
    One-Electron Energy =               -1470.2921645699793771
    Two-Electron Energy =                 595.9669544703554038
    DFT Exchange-Correlation Energy =       0.0000000000000000
    Empirical Dispersion Energy =           0.0000000000000000
    PCM Polarization Energy =               0.0000000000000000
    EFP Energy =                            0.0000000000000000
    Total Energy =                       -423.1292564077848510
    Molecular point group: c1
  Basis Set: CC-PVTZ
  Basis Set:

  -Total Gradient:
     Atom            X                  Y                   Z
    ------   -----------------  -----------------  -----------------
       1        0.000018882599     0.000010508568    -0.000006211069
       2        0.000011606225    -0.000038203886    -0.000018523025
       3       -0.000001488543    -0.000001698821     0.000012455032
       4       -0.000048054046     0.000020666773    -0.000046840539
       5        0.000016025652     0.000004322751     0.000006989377
       6       -0.000000809543    -0.000004472323    -0.000001021060
       7        0.000000546873     0.000001691321     0.000000125737
       8        0.000004525523     0.000011993756     0.000110259986
       9        0.000001104778     0.000007765226    -0.000014071129
      10       -0.000022596415    -0.000003140159    -0.000017790687
      11        0.000017218477     0.000003725694    -0.000018830778
      12       -0.000671708260    -0.001049472259    -0.000493346325
      13        0.000014413097    -0.000002150984     0.000001323414
      14        0.000001101040     0.000007883715     0.000000172066
      15        0.000119812739     0.000262969833    -0.001328113891
      16        0.000557405780     0.000822261124     0.000620244938
      17       -0.000013281825     0.000002097646     0.000006090827
      18        0.000012874556    -0.000009471528     0.000005471196
      19       -0.000017817630    -0.000047847822     0.001168272673
      20        0.000009389557     0.000002123605    -0.000000235675
      21       -0.000003937805    -0.000002261707     0.000008096972
      22        0.000002060593     0.000000558885     0.000003272308
      23       -0.000007273429     0.000000150595     0.000002209653

  **** Optimization is complete! (in 6 steps) ****
    Final optimized geometry and variables:
    Molecular point group: c1

    Geometry (in Angstrom), charge = 0, multiplicity = 1:

    O           -2.782108327808     1.363158494434     0.136214510004
    C           -2.629668617890     0.188735827235     0.138511992249
    C           -3.763443963702    -0.800802385673     0.143598019250
    O           -1.446430828465    -0.394055098807     0.137012588112
    H           -4.378298128391    -0.623708350232    -0.728610708758
    H           -3.409500095790    -1.819353972806     0.144612631797
    H           -4.373462182130    -0.620324777163     1.018531697695
    C           -0.297379416351     0.442432041610     0.133272784793
    C            0.926762734534    -0.447391319226     0.129424558077
    H           -0.327897006960     1.079260859046    -0.740271603740
    H           -0.322118507875     1.079703449970     1.006630203022
    C            2.223799648182     0.357285038740     0.123418183753
    H            0.890303503306    -1.095088500277    -0.740876524774
    H            0.896589917569    -1.093015727363     1.001321566035
    C            3.490648337706    -0.522956531414     0.125284916271
    H            2.236661682791     1.011706494240    -0.743173423665
    H            2.235405800918     1.016120263663     0.986109497992
    C            4.447082902519    -0.219061884653    -1.023389436060
    H            3.206888518079    -1.569681703925     0.087058924445
    H            4.017998230563    -0.398666163483     1.064855293225
    H            3.966301829578    -0.376246903865    -1.983371484409
    H            5.323954743392    -0.855118166701    -0.983187736374
    H            4.783286146519     0.811814385335    -0.988811002911

  Mulliken Charges: (a.u.)
   Center  Symbol    Alpha    Beta     Spin     Total
       1     O     4.20242  4.20242  0.00000 -0.40484
       2     C     2.81499  2.81499  0.00000  0.37001
       3     C     3.13998  3.13998  0.00000 -0.27996
       4     O     4.14491  4.14491  0.00000 -0.28981
       5     H     0.44210  0.44210  0.00000  0.11580
       6     H     0.44190  0.44190  0.00000  0.11621
       7     H     0.44211  0.44211  0.00000  0.11578
       8     C     2.97909  2.97909  0.00000  0.04182
       9     C     3.08317  3.08317  0.00000 -0.16635
      10     H     0.45406  0.45406  0.00000  0.09189
      11     H     0.45428  0.45428  0.00000  0.09143
      12     C     3.10342  3.10342  0.00000 -0.20684
      13     H     0.45047  0.45047  0.00000  0.09907
      14     H     0.44977  0.44977  0.00000  0.10046
      15     C     3.08850  3.08850  0.00000 -0.17699
      16     H     0.45243  0.45243  0.00000  0.09513
      17     H     0.44852  0.44852  0.00000  0.10296
      18     C     3.14709  3.14709  0.00000 -0.29417
      19     H     0.45338  0.45338  0.00000  0.09324
      20     H     0.44961  0.44961  0.00000  0.10079
      21     H     0.45516  0.45516  0.00000  0.08968
      22     H     0.44887  0.44887  0.00000  0.10226
      23     H     0.45378  0.45378  0.00000  0.09244

   Total alpha = 36.00000, Total beta = 36.00000, Total charge =  0.00000

*** Psi4 exiting successfully. Buy a developer a beer!
