  ==> Input File <==

--------------------------------------------------------------------------
set {
	reference rhf
	basis 6-31G*
}

set_num_threads( 1 )
memory 2 gb

molecule MOL {
0 1

H	 1.538666	 -1.550036	 -0.292371
O	 1.654024	 -0.625927	 -0.460906
C	 1.135793	 0.118896	 0.612333
C	 0.031547	 1.023609	 0.088541
H	 1.915668	 0.729681	 1.063582
H	 0.754543	 -0.542641	 1.387006
C	 -1.134819	 0.293262	 -0.585751
H	 0.474374	 1.714721	 -0.623187
H	 -0.338529	 1.620940	 0.920081
C	 -1.917817	 -0.639439	 0.339494
H	 -0.758119	 -0.268455	 -1.433105
H	 -1.813832	 1.041889	 -0.986690
H	 -2.777680	 -1.057197	 -0.174994
H	 -1.310268	 -1.471279	 0.680599
H	 -2.283753	 -0.111424	 1.216626

	symmetry c1
}
set optking {
	frozen_dihedral = ("
		8 4 7 11,
		2 3 4 8
	")
}

ee = energy('scf')
oeprop('DIPOLE', 'QUADRUPOLE', 'MULLIKEN_CHARGES')
f=open( 'psi4out.xyz', 'w' )
f.write( "15  " )
f.write( str(ee) + "\n" )
f.write( MOL.save_string_xyz() )
f.close()
--------------------------------------------------------------------------

    Molecular point group: c1

    Geometry (in Angstrom), charge = 0, multiplicity = 1:

       Center              X                  Y                   Z               Mass
    ------------   -----------------  -----------------  -----------------  -----------------
           H          1.549499830533    -1.545328722907    -0.290407424444     1.007825032070
           O          1.664857830533    -0.621219722907    -0.458942424444    15.994914619560
           C          1.146626830533     0.123603277093     0.614296575556    12.000000000000
           C          0.042380830533     1.028316277093     0.090504575556    12.000000000000
           H          1.926501830533     0.734388277093     1.065545575556     1.007825032070
           H          0.765376830533    -0.537933722907     1.388969575556     1.007825032070
           C         -1.123985169467     0.297969277093    -0.583787424444    12.000000000000
           H          0.485207830533     1.719428277093    -0.621223424444     1.007825032070
           H         -0.327695169467     1.625647277093     0.922044575556     1.007825032070
           C         -1.906983169467    -0.634731722907     0.341457575556    12.000000000000
           H         -0.747285169467    -0.263747722907    -1.431141424444     1.007825032070
           H         -1.802998169467     1.046596277093    -0.984726424444     1.007825032070
           H         -2.766846169467    -1.052489722907    -0.173030424444     1.007825032070
           H         -1.299434169467    -1.466571722907     0.682562575556     1.007825032070
           H         -2.272919169467    -0.106716722907     1.218589575556     1.007825032070

  Charge       = 0
  Multiplicity = 1
  Basis Set: 6-31G*
  Basis Set:

    Orbital Energies (a.u.)
    -----------------------

    Doubly Occupied:

       1A    -20.553135     2A    -11.267987     3A    -11.212340
       4A    -11.210883     5A    -11.210596     6A     -1.360626
       7A     -1.065607     8A     -0.972906     9A     -0.872551
      10A     -0.776717    11A     -0.705088    12A     -0.646959
      13A     -0.610847    14A     -0.579604    15A     -0.562874
      16A     -0.539139    17A     -0.506009    18A     -0.483017
      19A     -0.469393    20A     -0.456245    21A     -0.425873

  @DF-RHF Final Energy:  -232.14147771334888

   => Energetics <=

    Nuclear Repulsion Energy =            192.3649800402257597
    One-Electron Energy =                -696.0361918181881720
    Two-Electron Energy =                 271.5297340646139332
    DFT Exchange-Correlation Energy =       0.0000000000000000
    Empirical Dispersion Energy =           0.0000000000000000
    PCM Polarization Energy =               0.0000000000000000
    EFP Energy =                            0.0000000000000000
    Total Energy =                       -232.1414777133484790

  Mulliken Charges: (a.u.)
   Center  Symbol    Alpha    Beta     Spin     Total
       1     H     0.27915  0.27915  0.00000  0.44169
       2     O     4.36993  4.36993  0.00000 -0.73986
       3     C     3.00324  3.00324  0.00000 -0.00648
       4     C     3.15703  3.15703  0.00000 -0.31406
       5     H     0.42047  0.42047  0.00000  0.15907
       6     H     0.43011  0.43011  0.00000  0.13979
       7     C     3.15651  3.15651  0.00000 -0.31302
       8     H     0.41429  0.41429  0.00000  0.17142
       9     H     0.42750  0.42750  0.00000  0.14500
      10     C     3.24186  3.24186  0.00000 -0.48372
      11     H     0.41175  0.41175  0.00000  0.17650
      12     H     0.42087  0.42087  0.00000  0.15825
      13     H     0.41775  0.41775  0.00000  0.16449
      14     H     0.42738  0.42738  0.00000  0.14524
      15     H     0.42216  0.42216  0.00000  0.15569

   Total alpha = 21.00000, Total beta = 21.00000, Total charge = -0.00000
