  ==> Input File <==

--------------------------------------------------------------------------
set {
	reference rhf
	basis cc-pvtz
}

set_num_threads( 4 )
memory 2 gb

molecule MOL {
0 1

H	 -3.402940	 -1.024479	 -0.134363
O	 -3.113621	 -0.142218	 0.014854
C	 -1.775048	 -0.059117	 0.004177
C	 -0.968249	 -1.170593	 -0.205898
C	 -1.209489	 1.187911	 0.212134
H	 -1.414416	 -2.134733	 -0.366512
C	 0.399141	 -1.029397	 -0.206934
H	 -1.849649	 2.032064	 0.372200
C	 0.161469	 1.312342	 0.208092
H	 1.032541	 -1.879115	 -0.367848
C	 0.981121	 0.213562	 0.000000
H	 0.601313	 2.279327	 0.369324
C	 2.447402	 0.371303	 0.000000
O	 3.227427	 -0.521847	 0.000000
H	 2.796538	 1.409525	 0.000000

	symmetry c1
}
set optking {
	frozen_dihedral = ("
		7 11 13 14
	")
}

ee = optimize('scf')
oeprop('DIPOLE', 'QUADRUPOLE', 'MULLIKEN_CHARGES')
f=open( 'psi4out.xyz', 'w' )
f.write( "15  " )
f.write( str(ee) + "\n" )
f.write( MOL.save_string_xyz() )
f.close()
--------------------------------------------------------------------------

    Molecular point group: c1
  Charge       = 0
  Multiplicity = 1
  Basis Set: CC-PVTZ
  Basis Set:
  @DF-RHF Final Energy:  -418.44222124973271
    Total Energy =                       -418.4422212497327109
    Molecular point group: c1
  Basis Set: CC-PVTZ
  Basis Set:
  Basis Set: CC-PVTZ
  Basis Set:
  @DF-RHF Final Energy:  -418.44186847101236
    Total Energy =                       -418.4418684710122989
  Basis Set: CC-PVTZ
  Basis Set:
  Basis Set: CC-PVTZ
  Basis Set:
  @DF-RHF Final Energy:  -418.44226417861950
    Total Energy =                       -418.4422641786192116
  Basis Set: CC-PVTZ
  Basis Set:
  Basis Set: CC-PVTZ
  Basis Set:
  @DF-RHF Final Energy:  -418.44228265518535
    Total Energy =                       -418.4422826551854087
  Basis Set: CC-PVTZ
  Basis Set:
  Charge       = 0
  Multiplicity = 1
  Basis Set: CC-PVTZ
  Basis Set:

    Orbital Energies (a.u.)
    -----------------------

    Doubly Occupied:

       1A    -20.604799     2A    -20.545823     3A    -11.322823
       4A    -11.322449     5A    -11.258140     6A    -11.254726
       7A    -11.242344     8A    -11.236878     9A    -11.236572
      10A     -1.437999    11A     -1.402007    12A     -1.175244
      13A     -1.044811    14A     -1.042511    15A     -0.892103
      16A     -0.871007    17A     -0.797570    18A     -0.762527
      19A     -0.717817    20A     -0.671084    21A     -0.646509
      22A     -0.631431    23A     -0.615275    24A     -0.610843
      25A     -0.587847    26A     -0.563135    27A     -0.554329
      28A     -0.509105    29A     -0.490463    30A     -0.421686
      31A     -0.362493    32A     -0.331419

  @DF-RHF Final Energy:  -418.44228297059630

   => Energetics <=

    Nuclear Repulsion Energy =            402.2883197559759196
    One-Electron Energy =               -1367.1336705075839291
    Two-Electron Energy =                 546.4030677810119414
    DFT Exchange-Correlation Energy =       0.0000000000000000
    Empirical Dispersion Energy =           0.0000000000000000
    PCM Polarization Energy =               0.0000000000000000
    EFP Energy =                            0.0000000000000000
    Total Energy =                       -418.4422829705961249
    Molecular point group: c1
  Basis Set: CC-PVTZ
  Basis Set:

  -Total Gradient:
     Atom            X                  Y                   Z
    ------   -----------------  -----------------  -----------------
       1       -0.000002637616     0.000005973939    -0.000012641930
       2       -0.000004503206     0.000009801899    -0.000074502516
       3        0.000014585153    -0.000073306359     0.000250295746
       4       -0.000027974715     0.000019777844    -0.000045795386
       5        0.000025177627     0.000041668946    -0.000089685705
       6        0.000003726384     0.000000956542    -0.000004201073
       7       -0.000031757808     0.000361073737    -0.001873487982
       8       -0.000003476879    -0.000004169454     0.000002231132
       9       -0.000037562820     0.000021335812    -0.000024369530
      10       -0.000001084625     0.000000707056     0.000014756079
      11        0.000118879988    -0.000533036890     0.003762802955
      12        0.000002420318    -0.000013127053     0.000047765941
      13       -0.000089876284     0.000207944139    -0.004278269687
      14        0.000043094193    -0.000039805596     0.002336762520
      15       -0.000009009714    -0.000005794567    -0.000011660567

  **** Optimization is complete! (in 5 steps) ****
    Final optimized geometry and variables:
    Molecular point group: c1

    Geometry (in Angstrom), charge = 0, multiplicity = 1:

    H           -3.402760889301    -1.024453700590    -0.134566460722
    O           -3.113945430846    -0.141749259407     0.013786761189
    C           -1.775423399824    -0.059025849675     0.006007003002
    C           -0.968514396297    -1.170328898058    -0.205924125593
    C           -1.209641853569     1.187931186435     0.212206743161
    H           -1.415033346460    -2.133259916906    -0.373110058234
    C            0.398869323573    -1.030198574083    -0.202185397511
    H           -1.849218715445     2.033124424213     0.369488596240
    C            0.161554961415     1.312805629465     0.204579753878
    H            1.031845339423    -1.880561839833    -0.361990024400
    C            0.981144995399     0.211767674187     0.010453482405
    H            0.601017832842     2.281466139570     0.356844789716
    C            2.447641032021     0.371848507988    -0.004292393861
    O            3.228282894125    -0.520318332914    -0.021682180161
    H            2.795283067177     1.410429590723     0.020440562467

  Mulliken Charges: (a.u.)
   Center  Symbol    Alpha    Beta     Spin     Total
       1     H     0.38536  0.38536  0.00000  0.22928
       2     O     4.16626  4.16626  0.00000 -0.33253
       3     C     2.84440  2.84440  0.00000  0.31119
       4     C     3.13223  3.13223  0.00000 -0.26447
       5     C     3.10846  3.10846  0.00000 -0.21692
       6     H     0.43107  0.43107  0.00000  0.13786
       7     C     3.06754  3.06754  0.00000 -0.13508
       8     H     0.41667  0.41667  0.00000  0.16666
       9     C     3.06636  3.06636  0.00000 -0.13271
      10     H     0.40736  0.40736  0.00000  0.18528
      11     C     3.00157  3.00157  0.00000 -0.00314
      12     H     0.42150  0.42150  0.00000  0.15700
      13     C     2.91182  2.91182  0.00000  0.17636
      14     O     4.17872  4.17872  0.00000 -0.35744
      15     H     0.46067  0.46067  0.00000  0.07866

   Total alpha = 32.00000, Total beta = 32.00000, Total charge = -0.00000
