  ==> Input File <==

--------------------------------------------------------------------------
set {
	reference rhf
	basis 6-31G*
}

set_num_threads( 4 )
memory 2 gb

molecule MOL {
0 1

H	 -3.269016	 -0.876744	 0.468090
C	 -2.809304	 0.000122	 0.025886
N	 -1.391456	 0.000019	 0.300661
H	 -3.037557	 -0.000063	 -1.044252
H	 -3.269223	 0.876956	 0.468000
C	 -0.687133	 1.027277	 -0.441268
C	 -0.787982	 -1.299424	 0.079128
H	 -0.768201	 0.870259	 -1.521212
H	 -1.133561	 1.989919	 -0.214144
C	 0.782648	 1.050663	 -0.051696
H	 -1.307990	 -2.033674	 0.685779
H	 -0.875724	 -1.610463	 -0.966369
C	 0.681799	 -1.276037	 0.468701
H	 1.302655	 1.784914	 -0.658346
H	 0.870390	 1.361702	 0.993801
N	 1.386122	 -0.248779	 -0.273229
H	 1.128227	 -2.238679	 0.241576
H	 0.762867	 -1.119019	 1.548645
C	 2.803970	 -0.248883	 0.001545
H	 3.298254	 0.490207	 -0.619102
H	 3.224345	 -1.219665	 -0.236558
H	 3.037035	 -0.024969	 1.046935

	symmetry c1
}
set optking {
	frozen_dihedral = ("
		6 3 2 4
	")
}

ee = optimize('scf')
oeprop('DIPOLE', 'QUADRUPOLE', 'MULLIKEN_CHARGES')
f=open( 'psi4out.xyz', 'w' )
f.write( "22  " )
f.write( str(ee) + "\n" )
f.write( MOL.save_string_xyz() )
f.close()
--------------------------------------------------------------------------

    Molecular point group: c1
  Charge       = 0
  Multiplicity = 1
  Basis Set: 6-31G*
  Basis Set:
  @DF-RHF Final Energy:  -344.22992081914214
    Total Energy =                       -344.2299208191420803
    Molecular point group: c1
  Basis Set: 6-31G*
  Basis Set:
  Basis Set: 6-31G*
  Basis Set:
  @DF-RHF Final Energy:  -344.23000151086211
    Total Energy =                       -344.2300015108621665
  Basis Set: 6-31G*
  Basis Set:
  Basis Set: 6-31G*
  Basis Set:
  @DF-RHF Final Energy:  -344.23000691565568
    Total Energy =                       -344.2300069156556219
  Basis Set: 6-31G*
  Basis Set:
  Charge       = 0
  Multiplicity = 1
  Basis Set: 6-31G*
  Basis Set:

    Orbital Energies (a.u.)
    -----------------------

    Doubly Occupied:

       1A    -15.542364     2A    -15.541875     3A    -11.238796
       4A    -11.238763     5A    -11.238168     6A    -11.238137
       7A    -11.235923     8A    -11.235921     9A     -1.255242
      10A     -1.204202    11A     -1.024475    12A     -0.991712
      13A     -0.911402    14A     -0.866609    15A     -0.835438
      16A     -0.755480    17A     -0.665460    18A     -0.636345
      19A     -0.630021    20A     -0.626430    21A     -0.621270
      22A     -0.581113    23A     -0.550040    24A     -0.545686
      25A     -0.541822    26A     -0.517955    27A     -0.496539
      28A     -0.490428    29A     -0.464256    30A     -0.455447
      31A     -0.350807    32A     -0.345500

  @DF-RHF Final Energy:  -344.23000735861154

   => Energetics <=

    Nuclear Repulsion Energy =            421.4265272369448780
    One-Electron Energy =               -1301.5658148290378904
    Two-Electron Energy =                 535.9092802334815815
    DFT Exchange-Correlation Energy =       0.0000000000000000
    Empirical Dispersion Energy =           0.0000000000000000
    PCM Polarization Energy =               0.0000000000000000
    EFP Energy =                            0.0000000000000000
    Total Energy =                       -344.2300073586114877
    Molecular point group: c1
  Basis Set: 6-31G*
  Basis Set:

  -Total Gradient:
     Atom            X                  Y                   Z
    ------   -----------------  -----------------  -----------------
       1        0.000025476625     0.000006645172     0.000008665216
       2        0.000127302718    -0.004504055108    -0.000610524340
       3       -0.000483195396     0.002868199925     0.002319844631
       4        0.000011077784     0.003058466597    -0.000026480926
       5       -0.000022297196     0.000021731797     0.000000309091
       6        0.000331645340    -0.001503547078    -0.001709876572
       7       -0.000012568998     0.000054599388     0.000023578362
       8       -0.000009058829     0.000005510627    -0.000019670472
       9        0.000005762620     0.000000493483    -0.000001508458
      10        0.000005829889     0.000005824846     0.000024066086
      11       -0.000009872964     0.000000268789    -0.000001167240
      12        0.000002702202     0.000000279532     0.000001291346
      13        0.000024263140    -0.000016226653    -0.000005688118
      14       -0.000009649580    -0.000003957769    -0.000000579168
      15        0.000015256991     0.000001278443     0.000007898771
      16        0.000002200748    -0.000000720095    -0.000004683537
      17        0.000011219469    -0.000002775025    -0.000000411070
      18       -0.000006596325     0.000000899046    -0.000007335632
      19       -0.000004885660     0.000003929183     0.000005799431
      20       -0.000000825505     0.000002336835    -0.000001410947
      21       -0.000004614182     0.000001235690    -0.000000992930
      22        0.000000827108    -0.000000417628    -0.000001123525

  **** Optimization is complete! (in 4 steps) ****
    Final optimized geometry and variables:
    Molecular point group: c1

    Geometry (in Angstrom), charge = 0, multiplicity = 1:

    H           -3.283450770574    -0.731540122697     0.469826339532
    C           -2.807363039831     0.127098018585     0.012104202054
    N           -1.389749218785     0.121511292736     0.297427778509
    H           -3.026534941444     0.122086444263    -1.059314018191
    H           -3.259566329463     1.021214146491     0.429730779913
    C           -0.686962806010     1.145796158678    -0.451479658050
    C           -0.783622011690    -1.176406073184     0.061761358739
    H           -0.771679995160     0.979978147925    -1.529561592911
    H           -1.135394420737     2.109451206659    -0.230906941846
    C            0.783512026646     1.175357357178    -0.065967111619
    H           -1.299393603896    -1.917026966041     0.663835559625
    H           -0.871641019847    -1.479251150483    -0.985988093944
    C            0.686678577339    -1.152676887085     0.449612161929
    H            1.299163554677     1.910838558512    -0.674916937708
    H            0.873444995330     1.487704229932     0.978902444278
    N            1.390158812588    -0.122352105465    -0.288967025289
    H            1.133887818367    -2.114186196753     0.219011583001
    H            0.767842182785    -0.999396552009     1.530085948094
    C            2.807523903467    -0.120148133664    -0.012615899125
    H            3.301177307971     0.621525906607    -0.630752398682
    H            3.230158479970    -1.089464534195    -0.252731767715
    H            3.039074161667     0.101412875409     1.033628252575

  Mulliken Charges: (a.u.)
   Center  Symbol    Alpha    Beta     Spin     Total
       1     H     0.41729  0.41729  0.00000  0.16543
       2     C     3.14086  3.14086  0.00000 -0.28172
       3     N     3.78598  3.78598  0.00000 -0.57195
       4     H     0.43270  0.43270  0.00000  0.13461
       5     H     0.41611  0.41611  0.00000  0.16778
       6     C     3.05815  3.05815  0.00000 -0.11629
       7     C     3.05770  3.05770  0.00000 -0.11540
       8     H     0.42789  0.42789  0.00000  0.14422
       9     H     0.41770  0.41770  0.00000  0.16459
      10     C     3.05602  3.05602  0.00000 -0.11205
      11     H     0.41781  0.41781  0.00000  0.16437
      12     H     0.42844  0.42844  0.00000  0.14312
      13     C     3.05638  3.05638  0.00000 -0.11276
      14     H     0.41795  0.41795  0.00000  0.16410
      15     H     0.42835  0.42835  0.00000  0.14331
      16     N     3.78703  3.78703  0.00000 -0.57406
      17     H     0.41797  0.41797  0.00000  0.16405
      18     H     0.42839  0.42839  0.00000  0.14321
      19     C     3.14030  3.14030  0.00000 -0.28061
      20     H     0.41679  0.41679  0.00000  0.16642
      21     H     0.41678  0.41678  0.00000  0.16644
      22     H     0.43340  0.43340  0.00000  0.13320

   Total alpha = 32.00000, Total beta = 32.00000, Total charge = -0.00000
