                              Psi4 1.0.54 Driver

  ==> Input File <==

--------------------------------------------------------------------------
set {
	reference rhf
	basis cc-pvtz
}

set_num_threads( 4 )
memory 2 gb

molecule MOL {
0 1

H	 -3.314393	 1.254628	 0.861439
C	 -3.320767	 0.633720	 -0.044827
C	 -2.395953	 1.097639	 -1.137250
O	 -4.027908	 -0.311321	 -0.109307
C	 -0.963486	 1.324061	 -0.644859
H	 -2.431037	 0.379601	 -1.946278
H	 -2.799491	 2.037749	 -1.506917
C	 -0.247837	 0.040196	 -0.230469
H	 -0.402169	 1.810545	 -1.435172
H	 -0.975729	 2.021129	 0.189491
C	 1.181757	 0.280428	 0.247371
H	 -0.237160	 -0.647393	 -1.072023
H	 -0.809712	 -0.457009	 0.555986
C	 2.151032	 -0.811012	 -0.202643
H	 1.515939	 1.247397	 -0.115449
H	 1.191514	 0.341223	 1.333422
C	 3.580021	 -0.656538	 0.320835
H	 2.170545	 -0.847575	 -1.289412
H	 1.766632	 -1.772905	 0.124928
C	 4.327657	 0.562694	 -0.213579
H	 4.138806	 -1.549270	 0.057813
H	 3.561991	 -0.620783	 1.406976
H	 4.355973	 0.557257	 -1.298551
H	 3.867136	 1.491650	 0.100501
H	 5.351524	 0.571613	 0.142204

	symmetry c1
}
set optking {
	frozen_dihedral = ("
		12 8 11 14
	")
}

ee,wfn = optimize('scf', return_wfn=True)
oeprop( wfn, 'DIPOLE', 'QUADRUPOLE', 'MULLIKEN_CHARGES')
f=open( 'psi4out.xyz', 'w' )
f.write( "25  " )
f.write( str(ee) + "\n" )
f.write( MOL.save_string_xyz() )
f.close()
--------------------------------------------------------------------------

    Molecular point group: c1
  Charge       = 0
  Multiplicity = 1
  Basis Set: CC-PVTZ
  Basis Set:
  @DF-RHF Final Energy:  -387.25650306644474
    Total Energy =                       -387.2565030664444521
    Molecular point group: c1
  Basis Set: CC-PVTZ
  Basis Set:
  Basis Set: CC-PVTZ
  Basis Set:
  @DF-RHF Final Energy:  -387.25672833515580
    Total Energy =                       -387.2567283351560263
  Basis Set: CC-PVTZ
  Basis Set:
  Basis Set: CC-PVTZ
  Basis Set:
  @DF-RHF Final Energy:  -387.25678751585303
    Total Energy =                       -387.2567875158528068
  Basis Set: CC-PVTZ
  Basis Set:
  Basis Set: CC-PVTZ
  Basis Set:
  @DF-RHF Final Energy:  -387.25644230122668
    Total Energy =                       -387.2564423012269117
  Basis Set: CC-PVTZ
  Basis Set:
  Basis Set: CC-PVTZ
  Basis Set:
  @DF-RHF Final Energy:  -387.25679789287034
    Total Energy =                       -387.2567978928706225
  Basis Set: CC-PVTZ
  Basis Set:
  Basis Set: CC-PVTZ
  Basis Set:
  @DF-RHF Final Energy:  -387.25680134028119
    Total Energy =                       -387.2568013402809584
  Basis Set: CC-PVTZ
  Basis Set:
  Basis Set: CC-PVTZ
  Basis Set:
  @DF-RHF Final Energy:  -387.25680243727555
    Total Energy =                       -387.2568024372751552
  Basis Set: CC-PVTZ
  Basis Set:
  Charge       = 0
  Multiplicity = 1
  Basis Set: CC-PVTZ
  Basis Set:

    Orbital Energies (a.u.)
    -----------------------

    Doubly Occupied:

       1A    -20.551386     2A    -11.321027     3A    -11.233862
       4A    -11.233239     5A    -11.221468     6A    -11.217562
       7A    -11.216366     8A    -11.215650     9A    -11.209163
      10A     -1.406481    11A     -1.104435    12A     -1.071190
      13A     -1.013593    14A     -0.943672    15A     -0.876573
      16A     -0.822306    17A     -0.789108    18A     -0.782213
      19A     -0.668969    20A     -0.656676    21A     -0.636777
      22A     -0.626021    23A     -0.607595    24A     -0.597146
      25A     -0.569418    26A     -0.560037    27A     -0.528960
      28A     -0.528095    29A     -0.515813    30A     -0.499622
      31A     -0.489795    32A     -0.478216    33A     -0.462868
      34A     -0.458248    35A     -0.442618    36A     -0.411993

  @DF-RHF Final Energy:  -387.25680255195016

   => Energetics <=

    Nuclear Repulsion Energy =            439.5892895556050917
    One-Electron Energy =               -1395.7558642667236199
    Two-Electron Energy =                 568.9097721591676873
    DFT Exchange-Correlation Energy =       0.0000000000000000
    Empirical Dispersion Energy =           0.0000000000000000
    PCM Polarization Energy =               0.0000000000000000
    EFP Energy =                            0.0000000000000000
    Total Energy =                       -387.2568025519508410
    Molecular point group: c1
  Basis Set: CC-PVTZ
  Basis Set:

  -Total Gradient:
     Atom            X                  Y                   Z
    ------   -----------------  -----------------  -----------------
       1       -0.000014272297    -0.000027193562    -0.000064773090
       2       -0.000042585558    -0.000074984754     0.000084036297
       3       -0.000029248068    -0.000010097310    -0.000020537943
       4        0.000084044031     0.000124721215    -0.000017724345
       5       -0.000002985953     0.000005094885     0.000041093595
       6        0.000001094480    -0.000007820643     0.000001583214
       7        0.000015393184    -0.000000300411    -0.000006989361
       8        0.000624086812     0.004351771180    -0.004166001848
       9       -0.000008693041     0.000014058912    -0.000011026735
      10       -0.000008137357    -0.000000305035     0.000009701056
      11       -0.000861817272    -0.002760299393     0.004046113355
      12       -0.000339414357    -0.003072632706     0.002597994940
      13        0.000013066456    -0.000007169331    -0.000009021739
      14        0.000581986111     0.001476629369    -0.002474919104
      15       -0.000009555479    -0.000016389634     0.000003540189
      16       -0.000001828479     0.000008076062    -0.000014768488
      17       -0.000009118145     0.000010401822     0.000013886331
      18        0.000004429390     0.000005595344    -0.000008487953
      19        0.000002697503    -0.000007862199    -0.000003534312
      20       -0.000002400737    -0.000004173788    -0.000005962267
      21       -0.000002590922    -0.000005447981     0.000001753847
      22       -0.000002655652     0.000004481869     0.000007662626
      23       -0.000001551216     0.000003505395    -0.000006119111
      24        0.000007021934    -0.000002174973     0.000002545956
      25        0.000003034633    -0.000007484334    -0.000000045108

  **** Optimization is complete! (in 8 steps) ****
    Final optimized geometry and variables:
    Molecular point group: c1

    Geometry (in Angstrom), charge = 0, multiplicity = 1:

    H           -3.313893232742     1.019348402683     1.125819274220
    C           -3.351243528460     0.388778066349     0.227125710017
    C           -2.466978225537     0.842512821379    -0.902592138732
    O           -4.058825292102    -0.557549653081     0.197477230808
    C           -1.020162606502     1.084149635997    -0.463732849265
    H           -2.525290074407     0.113123158727    -1.700131144627
    H           -2.888998261761     1.774962029113    -1.271059381641
    C           -0.279126710780    -0.189370515165    -0.066775419311
    H           -0.490103050987     1.569350302782    -1.276086458352
    H           -1.007289822863     1.786693154919     0.366350871577
    C            1.159048411739     0.058997219702     0.414806325360
    H           -0.275031751704    -0.889696846740    -0.896768831924
    H           -0.831283567797    -0.699594360521     0.718095085576
    C            2.131055731110    -1.039764196095    -0.013082082376
    H            1.505106709856     1.008353220613     0.018645598139
    H            1.172599685134     0.161917115762     1.495725904549
    C            3.548348045322    -0.898418971342     0.543574719262
    H            2.172422344121    -1.069317548203    -1.099330012645
    H            1.732911444006    -2.001432820654     0.300168749808
    C            4.311325571666     0.326492378280     0.044746260328
    H            4.109898074677    -1.789091588886     0.279259069686
    H            3.506283395432    -0.879127771591     1.629398411440
    H            4.359358721517     0.340612181647    -1.039537118423
    H            3.849690147253     1.251939174664     0.367422734963
    H            5.328613375236     0.323584762197     0.418955552231

  Mulliken Charges: (a.u.)
   Center  Symbol    Alpha    Beta     Spin     Total
       1     H     0.46424  0.46424  0.00000  0.07152
       2     C     2.90499  2.90499  0.00000  0.19001
       3     C     3.08858  3.08858  0.00000 -0.17715
       4     O     4.16613  4.16613  0.00000 -0.33226
       5     C     3.11663  3.11663  0.00000 -0.23325
       6     H     0.44282  0.44282  0.00000  0.11435
       7     H     0.44053  0.44053  0.00000  0.11895
       8     C     3.09433  3.09433  0.00000 -0.18865
       9     H     0.44305  0.44305  0.00000  0.11389
      10     H     0.44829  0.44829  0.00000  0.10342
      11     C     3.09504  3.09504  0.00000 -0.19008
      12     H     0.44888  0.44888  0.00000  0.10224
      13     H     0.44598  0.44598  0.00000  0.10804
      14     C     3.09497  3.09497  0.00000 -0.18994
      15     H     0.45365  0.45365  0.00000  0.09271
      16     H     0.45059  0.45059  0.00000  0.09883
      17     C     3.09093  3.09093  0.00000 -0.18185
      18     H     0.45354  0.45354  0.00000  0.09291
      19     H     0.44715  0.44715  0.00000  0.10569
      20     C     3.15323  3.15323  0.00000 -0.30647
      21     H     0.44782  0.44782  0.00000  0.10436
      22     H     0.45419  0.45419  0.00000  0.09163
      23     H     0.45480  0.45480  0.00000  0.09041
      24     H     0.45404  0.45404  0.00000  0.09192
      25     H     0.44561  0.44561  0.00000  0.10878

   Total alpha = 36.00000, Total beta = 36.00000, Total charge = -0.00000

*** Psi4 exiting successfully. Buy a developer a beer!
