  ==> Input File <==

--------------------------------------------------------------------------
set {
	reference rhf
	basis 6-31G*
}

set_num_threads( 4 )
memory 2 gb

molecule MOL {
0 1

H	 2.576379	 -0.439545	 -0.561970
O	 1.654024	 -0.625927	 -0.460906
C	 1.135793	 0.118896	 0.612333
C	 0.031547	 1.023609	 0.088541
H	 1.915668	 0.729681	 1.063582
H	 0.754543	 -0.542641	 1.387006
C	 -1.134819	 0.293262	 -0.585751
H	 0.474374	 1.714721	 -0.623187
H	 -0.338529	 1.620940	 0.920081
C	 -1.917817	 -0.639439	 0.339494
H	 -0.758119	 -0.268455	 -1.433105
H	 -1.813832	 1.041889	 -0.986690
H	 -2.777680	 -1.057197	 -0.174994
H	 -1.310268	 -1.471279	 0.680599
H	 -2.283753	 -0.111424	 1.216626

	symmetry c1
}
set optking {
	frozen_dihedral = ("
		1 2 3 4
	")
}

ee = optimize('scf')
oeprop('DIPOLE', 'QUADRUPOLE', 'MULLIKEN_CHARGES')
f=open( 'psi4out.xyz', 'w' )
f.write( "15  " )
f.write( str(ee) + "\n" )
f.write( MOL.save_string_xyz() )
f.close()
--------------------------------------------------------------------------

    Molecular point group: c1
  Charge       = 0
  Multiplicity = 1
  Basis Set: 6-31G*
  Basis Set:
  @DF-RHF Final Energy:  -232.14131578119688
    Total Energy =                       -232.1413157811970791
    Molecular point group: c1
  Basis Set: 6-31G*
  Basis Set:
  Basis Set: 6-31G*
  Basis Set:
  @DF-RHF Final Energy:  -232.14170304943545
    Total Energy =                       -232.1417030494353071
  Basis Set: 6-31G*
  Basis Set:
  Basis Set: 6-31G*
  Basis Set:
  @DF-RHF Final Energy:  -232.14179026334975
    Total Energy =                       -232.1417902633499466
  Basis Set: 6-31G*
  Basis Set:
  Basis Set: 6-31G*
  Basis Set:
  @DF-RHF Final Energy:  -232.14177153570054
    Total Energy =                       -232.1417715357005704
  Basis Set: 6-31G*
  Basis Set:
  Basis Set: 6-31G*
  Basis Set:
  @DF-RHF Final Energy:  -232.14179496693410
    Total Energy =                       -232.1417949669342420
  Basis Set: 6-31G*
  Basis Set:
  Charge       = 0
  Multiplicity = 1
  Basis Set: 6-31G*
  Basis Set:

    Orbital Energies (a.u.)
    -----------------------

    Doubly Occupied:

       1A    -20.551765     2A    -11.267823     3A    -11.212062
       4A    -11.208244     5A    -11.203134     6A     -1.357988
       7A     -1.063043     8A     -0.968881     9A     -0.869552
      10A     -0.778211    11A     -0.698123    12A     -0.642756
      13A     -0.613646    14A     -0.572845    15A     -0.560478
      16A     -0.531580    17A     -0.507109    18A     -0.481320
      19A     -0.466109    20A     -0.451511    21A     -0.424808

  @DF-RHF Final Energy:  -232.14179516873881

   => Energetics <=

    Nuclear Repulsion Energy =            191.5304067398296581
    One-Electron Energy =                -694.4824248320901461
    Two-Electron Energy =                 270.8102229235217919
    DFT Exchange-Correlation Energy =       0.0000000000000000
    Empirical Dispersion Energy =           0.0000000000000000
    PCM Polarization Energy =               0.0000000000000000
    EFP Energy =                            0.0000000000000000
    Total Energy =                       -232.1417951687386676
    Molecular point group: c1
  Basis Set: 6-31G*
  Basis Set:

  -Total Gradient:
     Atom            X                  Y                   Z
    ------   -----------------  -----------------  -----------------
       1        0.000039711065    -0.000081426448     0.000078787433
       2       -0.000083219038     0.000088826944    -0.000100287596
       3        0.000109827152     0.000043041886    -0.000023574295
       4       -0.000052515499    -0.000080211140     0.000027208038
       5        0.000008794524     0.000008646155    -0.000001392187
       6       -0.000011818051     0.000018451902     0.000010185268
       7        0.000013722122     0.000018609689    -0.000006251026
       8       -0.000004011177    -0.000013861933     0.000010956880
       9       -0.000014494373     0.000005856988     0.000003379672
      10       -0.000003824203    -0.000015328863     0.000005552475
      11       -0.000000425890    -0.000004900500    -0.000000648070
      12        0.000011762386     0.000006545403    -0.000004467517
      13        0.000002395287    -0.000001918794     0.000001939627
      14       -0.000004285005     0.000006614557    -0.000002614508
      15       -0.000011619303     0.000001054155     0.000001225808

  **** Optimization is complete! (in 6 steps) ****
    Final optimized geometry and variables:
    Molecular point group: c1

    Geometry (in Angstrom), charge = 0, multiplicity = 1:

    H            2.578615549097    -0.481995003212    -0.563652336951
    O            1.658820889780    -0.661767121644    -0.447259531184
    C            1.137437132110     0.120014993802     0.603730071945
    C            0.018939138067     1.024263866993     0.101759842674
    H            1.918229432047     0.728930641133     1.052136637636
    H            0.773831030189    -0.547018516650     1.378050820867
    C           -1.139002876815     0.287616804721    -0.580050114621
    H            0.445971524580     1.735140734942    -0.601416579648
    H           -0.357901272451     1.602300327884     0.944684016136
    C           -1.925438215058    -0.645205796453     0.342551578794
    H           -0.750667054463    -0.276148408014    -1.421302573498
    H           -1.818103637246     1.030754873787    -0.990849562881
    H           -2.774147778012    -1.075140161929    -0.180381733047
    H           -1.315098563995    -1.468265259261     0.699122540214
    H           -2.308419577889    -0.112816273753     1.209648926572

  Mulliken Charges: (a.u.)
   Center  Symbol    Alpha    Beta     Spin     Total
       1     H     0.27905  0.27905  0.00000  0.44191
       2     O     4.37270  4.37270  0.00000 -0.74540
       3     C     3.00192  3.00192  0.00000 -0.00385
       4     C     3.15765  3.15765  0.00000 -0.31531
       5     H     0.42918  0.42918  0.00000  0.14163
       6     H     0.42153  0.42153  0.00000  0.15694
       7     C     3.15417  3.15417  0.00000 -0.30834
       8     H     0.42151  0.42151  0.00000  0.15698
       9     H     0.42653  0.42653  0.00000  0.14694
      10     C     3.24357  3.24357  0.00000 -0.48714
      11     H     0.40781  0.40781  0.00000  0.18439
      12     H     0.42311  0.42311  0.00000  0.15378
      13     H     0.41920  0.41920  0.00000  0.16160
      14     H     0.41689  0.41689  0.00000  0.16621
      15     H     0.42517  0.42517  0.00000  0.14966

   Total alpha = 21.00000, Total beta = 21.00000, Total charge = -0.00000
