  ==> Input File <==

--------------------------------------------------------------------------
set {
	reference rhf
	basis 6-31G*
}

set_num_threads( 4 )
memory 2 gb

molecule MOL {
0 1

H	 -3.420663	 1.227371	 -1.044276
O	 -3.452007	 0.283848	 -0.965577
C	 -3.181085	 -0.079926	 0.364119
C	 -1.765924	 0.277073	 0.805136
H	 -3.327791	 -1.152017	 0.410903
H	 -3.905698	 0.375695	 1.036898
C	 -1.460264	 1.773222	 0.723710
H	 -1.613342	 -0.074132	 1.826085
H	 -1.063976	 -0.278633	 0.185717
C	 -0.045513	 2.123186	 1.189740
H	 -2.187255	 2.318477	 1.317757
H	 -1.594364	 2.106768	 -0.303985
C	 0.255057	 3.621734	 1.099757
H	 0.085080	 1.778853	 2.212872
H	 0.679562	 1.575958	 0.588565
C	 1.690147	 4.011741	 1.472003
H	 -0.440823	 4.166872	 1.735580
H	 0.059976	 3.955132	 0.082601
C	 2.054505	 3.771177	 2.938214
H	 1.829454	 5.066450	 1.247342
H	 2.386621	 3.471811	 0.833565
H	 1.366581	 4.289358	 3.601077
H	 3.054817	 4.135423	 3.151611
H	 2.031121	 2.717361	 3.195293

	symmetry c1
}
set optking {
	frozen_dihedral = ("
		7 4 3 2
	")
}

ee = optimize('scf')
oeprop('DIPOLE', 'QUADRUPOLE', 'MULLIKEN_CHARGES')
f=open( 'psi4out.xyz', 'w' )
f.write( "24  " )
f.write( str(ee) + "\n" )
f.write( MOL.save_string_xyz() )
f.close()
--------------------------------------------------------------------------

    Molecular point group: c1
  Charge       = 0
  Multiplicity = 1
  Basis Set: 6-31G*
  Basis Set:
  @DF-RHF Final Energy:  -349.24682887211810
    Total Energy =                       -349.2468288721178169
    Molecular point group: c1
  Basis Set: 6-31G*
  Basis Set:
  Basis Set: 6-31G*
  Basis Set:
  @DF-RHF Final Energy:  -349.24700893801736
    Total Energy =                       -349.2470089380176432
  Basis Set: 6-31G*
  Basis Set:
  Basis Set: 6-31G*
  Basis Set:
  @DF-RHF Final Energy:  -349.24710262744054
    Total Energy =                       -349.2471026274404267
  Basis Set: 6-31G*
  Basis Set:
  Basis Set: 6-31G*
  Basis Set:
  @DF-RHF Final Energy:  -349.24710862208281
    Total Energy =                       -349.2471086220830330
  Basis Set: 6-31G*
  Basis Set:
  Basis Set: 6-31G*
  Basis Set:
  @DF-RHF Final Energy:  -349.24710993114405
    Total Energy =                       -349.2471099311441094
  Basis Set: 6-31G*
  Basis Set:
  Charge       = 0
  Multiplicity = 1
  Basis Set: 6-31G*
  Basis Set:

    Orbital Energies (a.u.)
    -----------------------

    Doubly Occupied:

       1A    -20.552314     2A    -11.267222     3A    -11.220281
       4A    -11.216880     5A    -11.216691     6A    -11.215634
       7A    -11.215475     8A    -11.209520     9A     -1.359240
      10A     -1.092554    11A     -1.050420    12A     -0.987882
      13A     -0.919329    14A     -0.853310    15A     -0.796535
      16A     -0.780333    17A     -0.694662    18A     -0.652340
      19A     -0.624972    20A     -0.613137    21A     -0.599576
      22A     -0.588459    23A     -0.563399    24A     -0.536972
      25A     -0.524992    26A     -0.511349    27A     -0.489666
      28A     -0.486955    29A     -0.474107    30A     -0.462685
      31A     -0.457517    32A     -0.446150    33A     -0.422194

  @DF-RHF Final Energy:  -349.24711004668904

   => Energetics <=

    Nuclear Repulsion Energy =            384.4596897804871105
    One-Electron Energy =               -1235.2080959842123775
    Two-Electron Energy =                 501.5012961570362222
    DFT Exchange-Correlation Energy =       0.0000000000000000
    Empirical Dispersion Energy =           0.0000000000000000
    PCM Polarization Energy =               0.0000000000000000
    EFP Energy =                            0.0000000000000000
    Total Energy =                       -349.2471100466890448
    Molecular point group: c1
  Basis Set: 6-31G*
  Basis Set:

  -Total Gradient:
     Atom            X                  Y                   Z
    ------   -----------------  -----------------  -----------------
       1        0.000005078732     0.000001586452     0.000004764571
       2       -0.000265739980     0.000718737419     0.000267280010
       3        0.000449889510    -0.001014578946    -0.000664387409
       4       -0.000417705806     0.000388491296     0.001109019170
       5        0.000002285376     0.000000480657    -0.000006011810
       6        0.000001898968    -0.000002577944     0.000005816848
       7        0.000212204451    -0.000072823577    -0.000710460138
       8       -0.000000064309     0.000004718896    -0.000003860552
       9        0.000003257376    -0.000005584295    -0.000000053071
      10        0.000006477203     0.000002700235     0.000014685898
      11        0.000004574942    -0.000008636860    -0.000007485635
      12       -0.000007735297    -0.000001774356    -0.000004828556
      13       -0.000002854982    -0.000011384897    -0.000009334293
      14        0.000006901818    -0.000001311138     0.000007523853
      15        0.000002171315     0.000008198830     0.000002369960
      16        0.000002174769     0.000001680150    -0.000000124543
      17        0.000001703422    -0.000004375378    -0.000000642428
      18       -0.000002937312     0.000000197927    -0.000002757837
      19       -0.000001833622    -0.000003074645    -0.000001864575
      20       -0.000000432581     0.000000301740     0.000000391751
      21        0.000001251856     0.000001335791     0.000000647614
      22        0.000000761266     0.000000408363    -0.000001315417
      23        0.000000806424    -0.000000645500    -0.000000711185
      24       -0.000002133544    -0.000002070214     0.000001337773

  **** Optimization is complete! (in 6 steps) ****
    Final optimized geometry and variables:
    Molecular point group: c1

    Geometry (in Angstrom), charge = 0, multiplicity = 1:

    H           -2.799293644061    -0.733199500855    -1.936442368985
    O           -2.702042967139    -1.672520031410    -1.879366724525
    C           -2.395466279279    -2.035831227675    -0.557557817563
    C           -0.972622753741    -1.671572991144    -0.146409529327
    H           -2.528753258251    -3.108727098671    -0.506372995008
    H           -3.109088969865    -1.588333659435     0.133452820389
    C           -0.665788818195    -0.174638378457    -0.226973265041
    H           -0.813979442670    -2.022404717058     0.871899690608
    H           -0.277847766995    -2.216370957294    -0.780547911755
    C            0.742979234056     0.176078102954     0.257049185685
    H           -1.395183820747     0.378674012680     0.364796198931
    H           -0.777725663652     0.162522719330    -1.254989183720
    C            1.050188528858     1.672834884307     0.161860278642
    H            0.857593362031    -0.163676773022     1.283092489603
    H            1.471332485188    -0.377979157170    -0.332765597132
    C            2.481499879865     2.058856799016     0.552411294954
    H            0.348117649480     2.225313930747     0.784709678105
    H            0.871626921315     2.000610722182    -0.860280063355
    C            2.823177490654     1.826243473888     2.025307612459
    H            2.628621871416     3.111313694777     0.322702117101
    H            3.184246775663     1.511485230930    -0.072454470829
    H            2.128423923232     2.352180185414     2.674805831936
    H            3.821986987068     2.187247005439     2.250502732288
    H            2.791171781804     0.774353568130     2.289014502811

  Mulliken Charges: (a.u.)
   Center  Symbol    Alpha    Beta     Spin     Total
       1     H     0.27956  0.27956  0.00000  0.44087
       2     O     4.37088  4.37088  0.00000 -0.74177
       3     C     2.99746  2.99746  0.00000  0.00509
       4     C     3.16067  3.16067  0.00000 -0.32133
       5     H     0.41440  0.41440  0.00000  0.17121
       6     H     0.43209  0.43209  0.00000  0.13583
       7     C     3.16246  3.16246  0.00000 -0.32493
       8     H     0.42421  0.42421  0.00000  0.15157
       9     H     0.41562  0.41562  0.00000  0.16877
      10     C     3.15249  3.15249  0.00000 -0.30498
      11     H     0.42554  0.42554  0.00000  0.14892
      12     H     0.42334  0.42334  0.00000  0.15333
      13     C     3.15273  3.15273  0.00000 -0.30545
      14     H     0.42099  0.42099  0.00000  0.15801
      15     H     0.42190  0.42190  0.00000  0.15620
      16     C     3.15253  3.15253  0.00000 -0.30506
      17     H     0.42466  0.42466  0.00000  0.15068
      18     H     0.42233  0.42233  0.00000  0.15535
      19     C     3.24131  3.24131  0.00000 -0.48262
      20     H     0.42078  0.42078  0.00000  0.15844
      21     H     0.42275  0.42275  0.00000  0.15449
      22     H     0.42243  0.42243  0.00000  0.15514
      23     H     0.41889  0.41889  0.00000  0.16223
      24     H     0.41999  0.41999  0.00000  0.16002

   Total alpha = 33.00000, Total beta = 33.00000, Total charge =  0.00000
