                              Psi4 1.0.54 Driver

  ==> Input File <==

--------------------------------------------------------------------------
set {
	reference rhf
	basis cc-pvtz
}

set_num_threads( 4 )
memory 2 gb

molecule MOL {
0 1

H	 -1.293951	 -0.899742	 0.699521
N	 -1.173824	 -0.310545	 -0.096857
C	 -0.022588	 0.563366	 0.065815
H	 -1.059112	 -0.906471	 -0.890158
C	 1.270420	 -0.230572	 -0.014245
H	 -0.045354	 1.293678	 -0.735129
H	 -0.043155	 1.123061	 1.001180
H	 1.336273	 -0.754933	 -0.959364
H	 2.130728	 0.422015	 0.082222
H	 1.323344	 -0.967006	 0.781773

	symmetry c1
}
set optking {
	frozen_dihedral = ("
		1 2 3 6
	")
}

ee,wfn = optimize('scf', return_wfn=True)
oeprop( wfn, 'DIPOLE', 'QUADRUPOLE', 'MULLIKEN_CHARGES')
f=open( 'psi4out.xyz', 'w' )
f.write( "10  " )
f.write( str(ee) + "\n" )
f.write( MOL.save_string_xyz() )
f.close()
--------------------------------------------------------------------------

    Molecular point group: c1
  Charge       = 0
  Multiplicity = 1
  Basis Set: CC-PVTZ
  Basis Set:
  @DF-RHF Final Energy:  -134.30236061866185
    Total Energy =                       -134.3023606186618792
    Molecular point group: c1
  Basis Set: CC-PVTZ
  Basis Set:
  Basis Set: CC-PVTZ
  Basis Set:
  @DF-RHF Final Energy:  -134.30314716599659
    Total Energy =                       -134.3031471659966201
  Basis Set: CC-PVTZ
  Basis Set:
  Basis Set: CC-PVTZ
  Basis Set:
  @DF-RHF Final Energy:  -134.30445359076276
    Total Energy =                       -134.3044535907627619
  Basis Set: CC-PVTZ
  Basis Set:
  Basis Set: CC-PVTZ
  Basis Set:
  @DF-RHF Final Energy:  -134.30448716371188
    Total Energy =                       -134.3044871637118831
  Basis Set: CC-PVTZ
  Basis Set:
  Charge       = 0
  Multiplicity = 1
  Basis Set: CC-PVTZ
  Basis Set:

    Orbital Energies (a.u.)
    -----------------------

    Doubly Occupied:

       1A    -15.526751     2A    -11.241196     3A    -11.208295
       4A     -1.178203     5A     -0.988317     6A     -0.832363
       7A     -0.675696     8A     -0.600303     9A     -0.573775
      10A     -0.561931    11A     -0.507549    12A     -0.482871
      13A     -0.383284

  @DF-RHF Final Energy:  -134.30448958786690

   => Energetics <=

    Nuclear Repulsion Energy =             83.3251801141678214
    One-Electron Energy =                -345.7382766109536760
    Two-Electron Energy =                 128.1086069089190005
    DFT Exchange-Correlation Energy =       0.0000000000000000
    Empirical Dispersion Energy =           0.0000000000000000
    PCM Polarization Energy =               0.0000000000000000
    EFP Energy =                            0.0000000000000000
    Total Energy =                       -134.3044895878668399
    Molecular point group: c1
  Basis Set: CC-PVTZ
  Basis Set:

  -Total Gradient:
     Atom            X                  Y                   Z
    ------   -----------------  -----------------  -----------------
       1       -0.000713542838     0.000616450175     0.000497734131
       2        0.000706014024    -0.000744166518    -0.000475947097
       3        0.000730631090    -0.000310555247    -0.000552087967
       4       -0.000008625815    -0.000051770769    -0.000017481462
       5       -0.000076873254    -0.000060340264    -0.000010623010
       6       -0.000605733246     0.000559463559     0.000537460254
       7       -0.000014910413    -0.000001390832     0.000011732418
       8        0.000009734642     0.000008932665     0.000013245015
       9       -0.000047609551    -0.000003481097    -0.000004210481
      10        0.000020915362    -0.000013141672     0.000000178200

  **** Optimization is complete! (in 5 steps) ****
    Final optimized geometry and variables:
    Molecular point group: c1

    Geometry (in Angstrom), charge = 0, multiplicity = 1:

    H           -1.263401033567    -1.031672230736     0.636360170886
    N           -1.178650366556    -0.417988148174    -0.146274759940
    C           -0.109240810154     0.544460474986     0.054611445177
    H           -1.015021180708    -0.980681130437    -0.954604087403
    C            1.299037446295    -0.038435624790     0.095362519071
    H           -0.175164410545     1.289038681125    -0.731123932927
    H           -0.310896317195     1.070106972918     0.981304650610
    H            1.536326368098    -0.545227963133    -0.834772130936
    H            2.039561180458     0.739731992196     0.248446321310
    H            1.398471715309    -0.758773784157     0.901067459151

  Mulliken Charges: (a.u.)
   Center  Symbol    Alpha    Beta     Spin     Total
       1     H     0.43099  0.43099  0.00000  0.13802
       2     N     3.68835  3.68835  0.00000 -0.37671
       3     C     3.02822  3.02822  0.00000 -0.05645
       4     H     0.43140  0.43140  0.00000  0.13721
       5     C     3.13746  3.13746  0.00000 -0.27492
       6     H     0.45416  0.45416  0.00000  0.09168
       7     H     0.45458  0.45458  0.00000  0.09084
       8     H     0.45952  0.45952  0.00000  0.08096
       9     H     0.45593  0.45593  0.00000  0.08814
      10     H     0.45939  0.45939  0.00000  0.08122

   Total alpha = 13.00000, Total beta = 13.00000, Total charge = -0.00000

*** Psi4 exiting successfully. Buy a developer a beer!
