  ==> Input File <==

--------------------------------------------------------------------------
set {
	reference rhf
	basis 6-31G*
}

set_num_threads( 1 )
memory 2 gb

molecule MOL {
0 1

H	 -1.363192	 -0.583923	 -1.141191
O	 -1.422729	 -0.573567	 -0.196946
C	 -0.731407	 0.539437	 0.309156
C	 0.680193	 0.672443	 -0.251532
H	 -1.319765	 1.404033	 0.030086
H	 -0.700012	 0.506517	 1.397677
C	 1.599139	 -0.492137	 0.118598
H	 0.616402	 0.758534	 -1.332349
H	 1.107032	 1.602637	 0.117369
H	 1.239738	 -1.428634	 -0.297334
H	 2.601428	 -0.335055	 -0.265730
H	 1.674954	 -0.608418	 1.197020

	symmetry c1
}
set optking {
	frozen_dihedral = ("
		8 4 3 2
	")
}

ee = energy('scf')
oeprop('DIPOLE', 'QUADRUPOLE', 'MULLIKEN_CHARGES')
f=open( 'psi4out.xyz', 'w' )
f.write( "12  " )
f.write( str(ee) + "\n" )
f.write( MOL.save_string_xyz() )
f.close()
--------------------------------------------------------------------------

    Molecular point group: c1

    Geometry (in Angstrom), charge = 0, multiplicity = 1:

       Center              X                  Y                   Z               Mass
    ------------   -----------------  -----------------  -----------------  -----------------
           H         -1.358287268576    -0.597056196275    -1.119008487890     1.007825032070
           O         -1.417824268576    -0.586700196275    -0.174763487890    15.994914619560
           C         -0.726502268576     0.526303803725     0.331338512110    12.000000000000
           C          0.685097731424     0.659309803725    -0.229349487890    12.000000000000
           H         -1.314860268576     1.390899803725     0.052268512110     1.007825032070
           H         -0.695107268576     0.493383803725     1.419859512110     1.007825032070
           C          1.604043731424    -0.505270196275     0.140780512110    12.000000000000
           H          0.621306731424     0.745400803725    -1.310166487890     1.007825032070
           H          1.111936731424     1.589503803725     0.139551512110     1.007825032070
           H          1.244642731424    -1.441767196275    -0.275151487890     1.007825032070
           H          2.606332731424    -0.348188196275    -0.243547487890     1.007825032070
           H          1.679858731424    -0.621551196275     1.219202512110     1.007825032070

  Charge       = 0
  Multiplicity = 1
  Basis Set: 6-31G*
  Basis Set:

    Orbital Energies (a.u.)
    -----------------------

    Doubly Occupied:

       1A    -20.551557     2A    -11.268332     3A    -11.222821
       4A    -11.211420     5A     -1.359746     6A     -1.050608
       7A     -0.922942     8A     -0.816015     9A     -0.670884
      10A     -0.642561    11A     -0.632087    12A     -0.569855
      13A     -0.533882    14A     -0.516750    15A     -0.489229
      16A     -0.464896    17A     -0.428344

  @DF-RHF Final Energy:  -193.10826145412253

   => Energetics <=

    Nuclear Repulsion Energy =            132.9862569664098544
    One-Electron Energy =                -525.4853219722768927
    Two-Electron Energy =                 199.3908035517443977
    DFT Exchange-Correlation Energy =       0.0000000000000000
    Empirical Dispersion Energy =           0.0000000000000000
    PCM Polarization Energy =               0.0000000000000000
    EFP Energy =                            0.0000000000000000
    Total Energy =                       -193.1082614541226121

  Mulliken Charges: (a.u.)
   Center  Symbol    Alpha    Beta     Spin     Total
       1     H     0.28246  0.28246  0.00000  0.43508
       2     O     4.37055  4.37055  0.00000 -0.74110
       3     C     2.99083  2.99083  0.00000  0.01833
       4     C     3.17210  3.17210  0.00000 -0.34419
       5     H     0.42817  0.42817  0.00000  0.14365
       6     H     0.41693  0.41693  0.00000  0.16614
       7     C     3.23864  3.23864  0.00000 -0.47728
       8     H     0.42681  0.42681  0.00000  0.14638
       9     H     0.41995  0.41995  0.00000  0.16009
      10     H     0.41403  0.41403  0.00000  0.17195
      11     H     0.41950  0.41950  0.00000  0.16099
      12     H     0.42003  0.42003  0.00000  0.15995

   Total alpha = 17.00000, Total beta = 17.00000, Total charge =  0.00000
