  ==> Input File <==

--------------------------------------------------------------------------
set {
	reference rhf
	basis cc-pvtz
}

set_num_threads( 4 )
memory 2 gb

molecule MOL {
0 1

H	 -3.162190	 0.493205	 -0.000107
C	 -2.363908	 -0.234727	 0.000005
O	 -1.158738	 0.454634	 -0.000087
H	 -2.464314	 -0.863616	 -0.882153
H	 -2.464327	 -0.863359	 0.882345
C	 -0.028611	 -0.359694	 0.000037
C	 0.676956	 -0.234601	 -1.335223
H	 -0.314906	 -1.396513	 0.178024
H	 0.642345	 -0.067942	 0.808332
C	 1.929925	 -1.099499	 -1.415027
H	 -0.018162	 -0.510675	 -2.120411
H	 0.931520	 0.807318	 -1.495082
H	 1.694287	 -2.150115	 -1.281732
H	 2.413394	 -0.991119	 -2.378112
H	 2.650430	 -0.823123	 -0.652428

	symmetry c1
}
set optking {
	frozen_dihedral = ("
		8 6 3 2
	")
}

ee = optimize('scf')
oeprop('DIPOLE', 'QUADRUPOLE', 'MULLIKEN_CHARGES')
f=open( 'psi4out.xyz', 'w' )
f.write( "15  " )
f.write( str(ee) + "\n" )
f.write( MOL.save_string_xyz() )
f.close()
--------------------------------------------------------------------------

    Molecular point group: c1
  Charge       = 0
  Multiplicity = 1
  Basis Set: CC-PVTZ
  Basis Set:
  @DF-RHF Final Energy:  -232.22383876084390
    Total Energy =                       -232.2238387608439893
    Molecular point group: c1
  Basis Set: CC-PVTZ
  Basis Set:
  Basis Set: CC-PVTZ
  Basis Set:
  @DF-RHF Final Energy:  -232.22432909873339
    Total Energy =                       -232.2243290987333921
  Basis Set: CC-PVTZ
  Basis Set:
  Basis Set: CC-PVTZ
  Basis Set:
  @DF-RHF Final Energy:  -232.22444478133946
    Total Energy =                       -232.2244447813395709
  Basis Set: CC-PVTZ
  Basis Set:
  Basis Set: CC-PVTZ
  Basis Set:
  @DF-RHF Final Energy:  -232.22444606675154
    Total Energy =                       -232.2244460667515682
  Basis Set: CC-PVTZ
  Basis Set:
  Charge       = 0
  Multiplicity = 1
  Basis Set: CC-PVTZ
  Basis Set:

    Orbital Energies (a.u.)
    -----------------------

    Doubly Occupied:

       1A    -20.544172     2A    -11.264041     3A    -11.262477
       4A    -11.213018     5A    -11.211201     6A     -1.376781
       7A     -1.057255     8A     -0.957536     9A     -0.879892
      10A     -0.808376    11A     -0.670931    12A     -0.654931
      13A     -0.637727    14A     -0.600332    15A     -0.568990
      16A     -0.537540    17A     -0.508839    18A     -0.495252
      19A     -0.482691    20A     -0.462782    21A     -0.406776

  @DF-RHF Final Energy:  -232.22444616388415

   => Energetics <=

    Nuclear Repulsion Energy =            190.5477124516558263
    One-Electron Energy =                -692.3412316251781249
    Two-Electron Energy =                 269.5690730096383163
    DFT Exchange-Correlation Energy =       0.0000000000000000
    Empirical Dispersion Energy =           0.0000000000000000
    PCM Polarization Energy =               0.0000000000000000
    EFP Energy =                            0.0000000000000000
    Total Energy =                       -232.2244461638840107
    Molecular point group: c1
  Basis Set: CC-PVTZ
  Basis Set:

  -Total Gradient:
     Atom            X                  Y                   Z
    ------   -----------------  -----------------  -----------------
       1        0.000006242928    -0.000001633307    -0.000000607232
       2        0.000002701438    -0.000024952217     0.000453719609
       3        0.000001764678    -0.000000904393    -0.000806701137
       4       -0.000002152281     0.000000960206     0.000003826861
       5       -0.000001308753    -0.000000278062    -0.000000842869
       6        0.000063510987     0.000113038273     0.000900053307
       7       -0.000004553552    -0.000015137298     0.000012454153
       8       -0.000072877127    -0.000077123813    -0.000551079333
       9       -0.000000538997    -0.000000655871     0.000003599674
      10        0.000002320504     0.000011081394    -0.000007828918
      11       -0.000001251537     0.000001721865    -0.000004497016
      12       -0.000000129568    -0.000002119478     0.000000122401
      13       -0.000000756151     0.000003615153    -0.000000093204
      14        0.000006684422    -0.000004041012    -0.000002059326
      15        0.000000343008    -0.000003571437    -0.000000066971

  **** Optimization is complete! (in 5 steps) ****
    Final optimized geometry and variables:
    Molecular point group: c1

    Geometry (in Angstrom), charge = 0, multiplicity = 1:

    H           -2.952298198235     0.841397657946     0.567042075996
    C           -2.178048247733     0.087517912436     0.570737936645
    O           -0.952119222277     0.741447582691     0.552014194475
    H           -2.311440154493    -0.548466029750    -0.301587674004
    H           -2.292865966224    -0.523556111964     1.462931318251
    C            0.181885648107    -0.077683507463     0.511360795833
    C            0.909242675208     0.057895073202    -0.816184435066
    H           -0.091615870167    -1.116799447266     0.677767318488
    H            0.837939633342     0.216473988103     1.324520616795
    C            2.179997135927    -0.782830650918    -0.873577707822
    H            0.236616786831    -0.230222710868    -1.618217873130
    H            1.146532315995     1.104719155140    -0.971021285880
    H            1.962115435174    -1.838447519618    -0.747597775266
    H            2.683089790090    -0.662750095680    -1.825311429705
    H            2.877666125628    -0.495072923256    -0.094047019598

  Mulliken Charges: (a.u.)
   Center  Symbol    Alpha    Beta     Spin     Total
       1     H     0.44915  0.44915  0.00000  0.10170
       2     C     3.03152  3.03152  0.00000 -0.06303
       3     O     4.18030  4.18030  0.00000 -0.36059
       4     H     0.47305  0.47305  0.00000  0.05390
       5     H     0.46920  0.46920  0.00000  0.06159
       6     C     2.97088  2.97088  0.00000  0.05824
       7     C     3.07856  3.07856  0.00000 -0.15711
       8     H     0.47403  0.47403  0.00000  0.05194
       9     H     0.45410  0.45410  0.00000  0.09179
      10     C     3.15468  3.15468  0.00000 -0.30937
      11     H     0.45634  0.45634  0.00000  0.08733
      12     H     0.45080  0.45080  0.00000  0.09840
      13     H     0.45590  0.45590  0.00000  0.08819
      14     H     0.44667  0.44667  0.00000  0.10667
      15     H     0.45483  0.45483  0.00000  0.09035

   Total alpha = 21.00000, Total beta = 21.00000, Total charge =  0.00000
