  ==> Input File <==

--------------------------------------------------------------------------
set {
	reference rhf
	basis 6-31G*
}

set_num_threads( 4 )
memory 2 gb

molecule MOL {
0 1

H	 -1.008068	 -0.946291	 -0.874528
N	 -0.626943	 -0.667432	 -0.000092
C	 -1.270800	 -1.134794	 1.206448
C	 0.469286	 0.129090	 0.000148
H	 -2.300290	 -0.795786	 1.253667
H	 -0.732359	 -0.737309	 2.051324
H	 -1.258454	 -2.218353	 1.259152
C	 1.788933	 -0.616240	 -0.000037
O	 0.411098	 1.327768	 -0.000049
H	 1.872803	 -1.245775	 -0.880381
H	 2.595421	 0.101576	 0.003713
H	 1.870096	 -1.252171	 0.875943

	symmetry c1
}
set optking {
	frozen_dihedral = ("
		3 2 4 9
	")
}

ee = optimize('scf')
oeprop('DIPOLE', 'QUADRUPOLE', 'MULLIKEN_CHARGES')
f=open( 'psi4out.xyz', 'w' )
f.write( "12  " )
f.write( str(ee) + "\n" )
f.write( MOL.save_string_xyz() )
f.close()
--------------------------------------------------------------------------

    Molecular point group: c1
  Charge       = 0
  Multiplicity = 1
  Basis Set: 6-31G*
  Basis Set:
  @DF-RHF Final Energy:  -246.96292539352729
    Total Energy =                       -246.9629253935271436
    Molecular point group: c1
  Basis Set: 6-31G*
  Basis Set:
  Basis Set: 6-31G*
  Basis Set:
  @DF-RHF Final Energy:  -246.96647801747540
    Total Energy =                       -246.9664780174755379
  Basis Set: 6-31G*
  Basis Set:
  Basis Set: 6-31G*
  Basis Set:
  @DF-RHF Final Energy:  -246.96740482931236
    Total Energy =                       -246.9674048293123860
  Basis Set: 6-31G*
  Basis Set:
  Basis Set: 6-31G*
  Basis Set:
  @DF-RHF Final Energy:  -246.96802076014671
    Total Energy =                       -246.9680207601466009
  Basis Set: 6-31G*
  Basis Set:
  @DF-RHF Final Energy:  -246.96781514332224
    Total Energy =                       -246.9678151433220137
  @DF-RHF Final Energy:  -246.96672704499127
    Total Energy =                       -246.9667270449913303
  @DF-RHF Final Energy:  -246.96718008331359
    Total Energy =                       -246.9671800833135649
  @DF-RHF Final Energy:  -246.96789027845441
    Total Energy =                       -246.9678902784543766
  @DF-RHF Final Energy:  -246.96876788537858
    Total Energy =                       -246.9687678853786110
  @DF-RHF Final Energy:  -246.96909966492871
    Total Energy =                       -246.9690996649285353
  @DF-RHF Final Energy:  -246.96947709353609
    Total Energy =                       -246.9694770935358861
  @DF-RHF Final Energy:  -246.97026283399092
    Total Energy =                       -246.9702628339908301
  @DF-RHF Final Energy:  -246.97014817732358
    Total Energy =                       -246.9701481773234377
  @DF-RHF Final Energy:  -246.97217183893792
    Total Energy =                       -246.9721718389379816
  @DF-RHF Final Energy:  -246.97449200898612
    Total Energy =                       -246.9744920089861466
  @DF-RHF Final Energy:  -246.97725835627983
    Total Energy =                       -246.9772583562797195
  @DF-RHF Final Energy:  -246.97955029381095
    Total Energy =                       -246.9795502938110872
  @DF-RHF Final Energy:  -246.98273093409082
    Total Energy =                       -246.9827309340909096
  @DF-RHF Final Energy:  -246.98302583778596
    Total Energy =                       -246.9830258377858172
  @DF-RHF Final Energy:  -246.98340236603133
    Total Energy =                       -246.9834023660314415
  @DF-RHF Final Energy:  -246.98561763629615
    Total Energy =                       -246.9856176362961264
  @DF-RHF Final Energy:  -246.96748509602892
    Total Energy =                       -246.9674850960291792
  @DF-RHF Final Energy:  -246.98363969184268
    Total Energy =                       -246.9836396918427113
  @DF-RHF Final Energy:  -246.97665272709918
    Total Energy =                       -246.9766527270991787
  @DF-RHF Final Energy:  -246.98358304154019
    Total Energy =                       -246.9835830415400437
  @DF-RHF Final Energy:  -246.98532981184755
    Total Energy =                       -246.9853298118475209
  @DF-RHF Final Energy:  -246.98559851582345
    Total Energy =                       -246.9855985158232556
  @DF-RHF Final Energy:  -246.98561147671526
    Total Energy =                       -246.9856114767151212
  @DF-RHF Final Energy:  -246.98561481893594
    Total Energy =                       -246.9856148189359146
  @DF-RHF Final Energy:  -246.98561774375059
    Total Energy =                       -246.9856177437504812
  @DF-RHF Final Energy:  -246.98314533081546
    Total Energy =                       -246.9831453308154892
  @DF-RHF Final Energy:  -246.95475264122032
    Total Energy =                       -246.9547526412204093
  @DF-RHF Final Energy:  -246.91887342599881
    Total Energy =                       -246.9188734259989246
  @DF-RHF Final Energy:  -246.92839854424108
    Total Energy =                       -246.9283985442410767
  @DF-RHF Final Energy:  -246.93057087812471
    Total Energy =                       -246.9305708781247404
  @DF-RHF Final Energy:  -246.95769876707678
    Total Energy =                       -246.9576987670768631
  Basis Set: 6-31G*
  Basis Set:
  @DF-RHF Final Energy:  -246.97482273730725
    Total Energy =                       -246.9748227373075338
  Basis Set: 6-31G*
  Basis Set:
  Basis Set: 6-31G*
  Basis Set:
  @DF-RHF Final Energy:  -246.98108554821340
    Total Energy =                       -246.9810855482134571
  Basis Set: 6-31G*
  Basis Set:
  Basis Set: 6-31G*
  Basis Set:
  @DF-RHF Final Energy:  -246.98310544750970
    Total Energy =                       -246.9831054475097858
  Basis Set: 6-31G*
  Basis Set:
  Charge       = 0
  Multiplicity = 1
  Basis Set: 6-31G*
  Basis Set:

    Orbital Energies (a.u.)
    -----------------------

    Doubly Occupied:

       1A    -20.552919     2A    -15.567390     3A    -11.354918
       4A    -11.262446     5A    -11.230499     6A     -1.408554
       7A     -1.216959     8A     -1.005115     9A     -0.936715
      10A     -0.768144    11A     -0.679745    12A     -0.656932
      13A     -0.629938    14A     -0.600973    15A     -0.573184
      16A     -0.567386    17A     -0.546044    18A     -0.495752
      19A     -0.437104    20A     -0.401278

  @DF-RHF Final Energy:  -246.98434245149443

   => Energetics <=

    Nuclear Repulsion Energy =            180.1086545704589241
    One-Electron Energy =                -692.4020048484978815
    Two-Electron Energy =                 265.3090078265445868
    DFT Exchange-Correlation Energy =       0.0000000000000000
    Empirical Dispersion Energy =           0.0000000000000000
    PCM Polarization Energy =               0.0000000000000000
    EFP Energy =                            0.0000000000000000
    Total Energy =                       -246.9843424514943422
    Molecular point group: c1
  Basis Set: 6-31G*
  Basis Set:

  -Total Gradient:
     Atom            X                  Y                   Z
    ------   -----------------  -----------------  -----------------
       1        0.002998661282    -0.002275587451     0.005220676213
       2        0.004121779921    -0.006713022439    -0.000970472982
       3       -0.006965043809    -0.003274893364     0.004928629305
       4       -0.009554772987    -0.001832429852    -0.010248991635
       5       -0.000339187019     0.000938503354    -0.001392577293
       6       -0.006595081280     0.000594298687    -0.006654840083
       7        0.003473339414     0.002651919857     0.004741329244
       8        0.007679472914     0.013823875628    -0.008009004634
       9        0.003374681053     0.009673093376     0.005727246148
      10        0.003034178020    -0.002677069599     0.003446762299
      11       -0.001829422512    -0.003544815364    -0.000758218336
      12        0.000601395003    -0.007363872839     0.003969461755

    Molecular point group: c1

    Geometry (in Angstrom), charge = 0, multiplicity = 1:

    H           -1.405891648200    -0.450858690961    -0.869026434363
    N           -0.675636262000    -0.729015874037    -0.239738642740
    C           -1.297310541661    -0.852760284233     1.087434822963
    C            0.301687017452     0.294356567288    -0.312818613446
    H           -1.676616788747     0.097757818923     1.454132013525
    H           -0.577707455549    -1.245528855381     1.791125665944
    H           -2.116242266932    -1.556534316891     1.019807463195
    C            1.708702682077    -0.141154536441     0.019215412620
    O            0.032937728350     1.411161490320    -0.616068523029
    H            2.099966306897    -0.716154258166    -0.814665564028
    H            2.323964932793     0.728526916642     0.189484465899
    H            1.726796776072    -0.794643337838     0.885592466807

  Mulliken Charges: (a.u.)
   Center  Symbol    Alpha    Beta     Spin     Total
       1     H     0.32000  0.32000  0.00000  0.36000
       2     N     3.86480  3.86480  0.00000 -0.72961
       3     C     3.16204  3.16204  0.00000 -0.32409
       4     C     2.67566  2.67566  0.00000  0.64867
       5     H     0.41333  0.41333  0.00000  0.17333
       6     H     0.41039  0.41039  0.00000  0.17921
       7     H     0.40568  0.40568  0.00000  0.18863
       8     C     3.27950  3.27950  0.00000 -0.55900
       9     O     4.25968  4.25968  0.00000 -0.51936
      10     H     0.39910  0.39910  0.00000  0.20179
      11     H     0.39832  0.39832  0.00000  0.20337
      12     H     0.41148  0.41148  0.00000  0.17705

   Total alpha = 20.00000, Total beta = 20.00000, Total charge = -0.00000
