                              Psi4 1.0.54 Driver

  ==> Input File <==

--------------------------------------------------------------------------
set {
	reference rhf
	basis cc-pvtz
}

set_num_threads( 4 )
memory 2 gb

molecule MOL {
0 1

H	 -3.034039	 -0.667848	 0.004703
O	 -2.240597	 -1.171748	 0.000934
C	 -1.159675	 -0.364500	 0.000370
C	 0.087362	 -0.797567	 -0.401833
C	 -1.342929	 0.941999	 0.426436
H	 0.232084	 -1.810495	 -0.730605
C	 1.148854	 0.090440	 -0.371717
H	 -2.324467	 1.246208	 0.734619
C	 -0.283813	 1.826823	 0.453579
H	 2.121214	 -0.243645	 -0.681030
C	 0.973850	 1.388863	 0.050512
C	 -0.487972	 3.254291	 0.894373
H	 1.808310	 2.063954	 0.070250
H	 0.313692	 3.578197	 1.546478
H	 -1.423654	 3.373424	 1.423573
H	 -0.502566	 3.920081	 0.038129

	symmetry c1
}
set optking {
	frozen_dihedral = ("
		5 3 2 1
	")
}

ee,wfn = optimize('scf', return_wfn=True)
oeprop( wfn, 'DIPOLE', 'QUADRUPOLE', 'MULLIKEN_CHARGES')
f=open( 'psi4out.xyz', 'w' )
f.write( "16  " )
f.write( str(ee) + "\n" )
f.write( MOL.save_string_xyz() )
f.close()
--------------------------------------------------------------------------

    Molecular point group: c1
  Charge       = 0
  Multiplicity = 1
  Basis Set: CC-PVTZ
  Basis Set:
  @DF-RHF Final Energy:  -344.71825267575366
    Total Energy =                       -344.7182526757535470
    Molecular point group: c1
  Basis Set: CC-PVTZ
  Basis Set:
  Basis Set: CC-PVTZ
  Basis Set:
  @DF-RHF Final Energy:  -344.71994830505849
    Total Energy =                       -344.7199483050584377
  Basis Set: CC-PVTZ
  Basis Set:
  Basis Set: CC-PVTZ
  Basis Set:
  @DF-RHF Final Energy:  -344.72009609939334
    Total Energy =                       -344.7200960993935155
  Basis Set: CC-PVTZ
  Basis Set:
  Basis Set: CC-PVTZ
  Basis Set:
  @DF-RHF Final Energy:  -344.72011464376584
    Total Energy =                       -344.7201146437658394
  Basis Set: CC-PVTZ
  Basis Set:
  @DF-RHF Final Energy:  -344.72012157764391
    Total Energy =                       -344.7201215776439085
  @DF-RHF Final Energy:  -344.72012527822403
    Total Energy =                       -344.7201252782239180
  @DF-RHF Final Energy:  -344.72013302244278
    Total Energy =                       -344.7201330224431786
  @DF-RHF Final Energy:  -344.72014092872513
    Total Energy =                       -344.7201409287250158
  @DF-RHF Final Energy:  -344.72015119436679
    Total Energy =                       -344.7201511943669630
  @DF-RHF Final Energy:  -344.72016125635889
    Total Energy =                       -344.7201612563586082
  @DF-RHF Final Energy:  -344.72017032121187
    Total Energy =                       -344.7201703212116399
  @DF-RHF Final Energy:  -344.72013843569374
    Total Energy =                       -344.7201384356936842
  @DF-RHF Final Energy:  -344.72015826661419
    Total Energy =                       -344.7201582666143054
  @DF-RHF Final Energy:  -344.72021280208725
    Total Energy =                       -344.7202128020871896
  Basis Set: CC-PVTZ
  Basis Set:
  @DF-RHF Final Energy:  -344.72020320600149
    Total Energy =                       -344.7202032060013153
  Basis Set: CC-PVTZ
  Basis Set:
  Basis Set: CC-PVTZ
  Basis Set:
  @DF-RHF Final Energy:  -344.72021921908777
    Total Energy =                       -344.7202192190879373
  Basis Set: CC-PVTZ
  Basis Set:
  Basis Set: CC-PVTZ
  Basis Set:
  @DF-RHF Final Energy:  -344.72022305848066
    Total Energy =                       -344.7202230584804283
  Basis Set: CC-PVTZ
  Basis Set:
  Charge       = 0
  Multiplicity = 1
  Basis Set: CC-PVTZ
  Basis Set:

    Orbital Energies (a.u.)
    -----------------------

    Doubly Occupied:

       1A    -20.581731     2A    -11.294683     3A    -11.242122
       4A    -11.230950     5A    -11.221632     6A    -11.219073
       7A    -11.215285     8A    -11.213686     9A     -1.412019
      10A     -1.154546    11A     -1.047691    12A     -1.006812
      13A     -0.940872    14A     -0.844523    15A     -0.802871
      16A     -0.732332    17A     -0.683611    18A     -0.651929
      19A     -0.606023    20A     -0.596946    21A     -0.580114
      22A     -0.570037    23A     -0.569910    24A     -0.535970
      25A     -0.506794    26A     -0.484805    27A     -0.472371
      28A     -0.333684    29A     -0.311763

  @DF-RHF Final Energy:  -344.72022313406035

   => Energetics <=

    Nuclear Repulsion Energy =            346.3827030042839397
    One-Electron Energy =               -1154.0762816508458855
    Two-Electron Energy =                 462.9733555125017119
    DFT Exchange-Correlation Energy =       0.0000000000000000
    Empirical Dispersion Energy =           0.0000000000000000
    PCM Polarization Energy =               0.0000000000000000
    EFP Energy =                            0.0000000000000000
    Total Energy =                       -344.7202231340602339
    Molecular point group: c1
  Basis Set: CC-PVTZ
  Basis Set:

  -Total Gradient:
     Atom            X                  Y                   Z
    ------   -----------------  -----------------  -----------------
       1        0.000088220664     0.000046061117    -0.001844981861
       2       -0.000071675457    -0.000225450553     0.002773211772
       3       -0.000219108261     0.000466371668    -0.001755712518
       4        0.000000022240     0.000094559157    -0.000240554731
       5        0.000191169250    -0.000345630848     0.001091004669
       6        0.000021977162     0.000003455834     0.000000201015
       7       -0.000016902997    -0.000067659228    -0.000003102119
       8       -0.000017003168    -0.000003425696     0.000010507913
       9        0.000058233045     0.000027569411    -0.000073242138
      10        0.000007518532     0.000002983056    -0.000003508182
      11       -0.000027284915     0.000044494172     0.000028848433
      12       -0.000009233560    -0.000039282312     0.000021546123
      13        0.000011399658    -0.000020920932    -0.000002915022
      14        0.000018842003     0.000000705485     0.000003095612
      15       -0.000020798758     0.000009478509     0.000022730103
      16       -0.000015375438     0.000006691161    -0.000027129069

  **** Optimization is complete! (in 18 steps) ****
    Final optimized geometry and variables:
    Molecular point group: c1

    Geometry (in Angstrom), charge = 0, multiplicity = 1:

    H           -2.564659375953    -1.376433754183    -0.286412506322
    O           -1.744186513273    -1.833869566918    -0.251422074137
    C           -0.711682915450    -0.965362449569    -0.178051973914
    C            0.548804453954    -1.436710660674    -0.509158078009
    C           -0.879687789105     0.338709626117     0.239910162196
    H            0.662785656018    -2.453767635187    -0.827835266700
    C            1.623548279033    -0.583126929858    -0.417844512267
    H           -1.862111329852     0.686224114361     0.508512941813
    C            0.205235222026     1.203088117154     0.322610396253
    H            2.603257978393    -0.941449737318    -0.671947837064
    C            1.460983115853     0.731041807270    -0.007827194386
    C           -0.003627673989     2.628923393836     0.766592935847
    H            2.312806103667     1.380659945846     0.054034491968
    H            0.939911266636     3.143409364907     0.886290149808
    H           -0.530780227312     2.668818160647     1.712698000526
    H           -0.593540067861     3.177194211544     0.040276561853

  Mulliken Charges: (a.u.)
   Center  Symbol    Alpha    Beta     Spin     Total
       1     H     0.38647  0.38647  0.00000  0.22706
       2     O     4.17710  4.17710  0.00000 -0.35420
       3     C     2.84204  2.84204  0.00000  0.31593
       4     C     3.12375  3.12375  0.00000 -0.24751
       5     C     3.15203  3.15203  0.00000 -0.30406
       6     H     0.41926  0.41926  0.00000  0.16147
       7     C     3.04783  3.04783  0.00000 -0.09567
       8     H     0.43564  0.43564  0.00000  0.12873
       9     C     2.94631  2.94631  0.00000  0.10738
      10     H     0.42321  0.42321  0.00000  0.15358
      11     C     3.12516  3.12516  0.00000 -0.25032
      12     C     3.14926  3.14926  0.00000 -0.29852
      13     H     0.42666  0.42666  0.00000  0.14669
      14     H     0.44966  0.44966  0.00000  0.10068
      15     H     0.44809  0.44809  0.00000  0.10381
      16     H     0.44753  0.44753  0.00000  0.10494

   Total alpha = 29.00000, Total beta = 29.00000, Total charge =  0.00000

*** Psi4 exiting successfully. Buy a developer a beer!
