  ==> Input File <==

--------------------------------------------------------------------------
set {
	reference rhf
	basis 6-31G*
}

set_num_threads( 1 )
memory 2 gb

molecule MOL {
0 1

O	 0.625848	 1.349995	 -0.000749
C	 0.486307	 0.169203	 0.000779
C	 1.608116	 -0.841643	 0.000302
O	 -0.698257	 -0.426125	 0.001050
C	 2.990107	 -0.200498	 -0.000684
H	 1.468623	 -1.481519	 -0.865924
H	 1.469683	 -1.481289	 0.866878
H	 3.129736	 0.423364	 -0.875135
H	 3.757882	 -0.966877	 -0.001197
H	 3.130964	 0.423383	 0.873533
C	 -1.092457	 -1.107270	 -1.185562
C	 -2.464193	 -1.697367	 -0.935685
H	 -0.362959	 -1.873075	 -1.411304
H	 -1.102970	 -0.405263	 -2.008160
H	 -2.437929	 -2.394048	 -0.105562
H	 -2.804496	 -2.228150	 -1.818924
H	 -3.182094	 -0.918268	 -0.705730

	symmetry c1
}
set optking {
	frozen_dihedral = ("
		2 4 11 13,
		4 2 3 6
	")
}

ee = energy('scf')
oeprop('DIPOLE', 'QUADRUPOLE', 'MULLIKEN_CHARGES')
f=open( 'psi4out.xyz', 'w' )
f.write( "17  " )
f.write( str(ee) + "\n" )
f.write( MOL.save_string_xyz() )
f.close()
--------------------------------------------------------------------------

    Molecular point group: c1

    Geometry (in Angstrom), charge = 0, multiplicity = 1:

       Center              X                  Y                   Z               Mass
    ------------   -----------------  -----------------  -----------------  -----------------
           O          0.427286223330     1.745228523401     0.308302214091    15.994914619560
           C          0.287745223330     0.564436523401     0.309830214091    12.000000000000
           C          1.409554223330    -0.446409476599     0.309353214091    12.000000000000
           O         -0.896818776670    -0.030891476599     0.310101214091    15.994914619560
           C          2.791545223330     0.194735523401     0.308367214091    12.000000000000
           H          1.270061223330    -1.086285476599    -0.556872785909     1.007825032070
           H          1.271121223330    -1.086055476599     1.175929214091     1.007825032070
           H          2.931174223330     0.818597523401    -0.566083785909     1.007825032070
           H          3.559320223330    -0.571643476599     0.307854214091     1.007825032070
           H          2.932402223330     0.818616523401     1.182584214091     1.007825032070
           C         -1.291018776670    -0.712036476599    -0.876510785909    12.000000000000
           C         -2.662754776670    -1.302133476599    -0.626633785909    12.000000000000
           H         -0.561520776670    -1.477841476599    -1.102252785909     1.007825032070
           H         -1.301531776670    -0.010029476599    -1.699108785909     1.007825032070
           H         -2.636490776670    -1.998814476599     0.203489214091     1.007825032070
           H         -3.003057776670    -1.832916476599    -1.509872785909     1.007825032070
           H         -3.380655776670    -0.523034476599    -0.396678785909     1.007825032070

  Charge       = 0
  Multiplicity = 1
  Basis Set: 6-31G*
  Basis Set:

    Orbital Energies (a.u.)
    -----------------------

    Doubly Occupied:

       1A    -20.587083     2A    -20.552986     3A    -11.372637
       4A    -11.300696     5A    -11.239393     6A    -11.228628
       7A    -11.217176     8A     -1.462476     9A     -1.367576
      10A     -1.064689    11A     -1.043030    12A     -0.902961
      13A     -0.876263    14A     -0.773014    15A     -0.700527
      16A     -0.688360    17A     -0.658818    18A     -0.639513
      19A     -0.603210    20A     -0.566258    21A     -0.557158
      22A     -0.536271    23A     -0.528987    24A     -0.518871
      25A     -0.508776    26A     -0.482464    27A     -0.453960
      28A     -0.432672

  @DF-RHF Final Energy:  -344.88823208846662

   => Energetics <=

    Nuclear Repulsion Energy =            316.4474883323001109
    One-Electron Energy =               -1096.9423938267145786
    Two-Electron Energy =                 435.6066734059489249
    DFT Exchange-Correlation Energy =       0.0000000000000000
    Empirical Dispersion Energy =           0.0000000000000000
    PCM Polarization Energy =               0.0000000000000000
    EFP Energy =                            0.0000000000000000
    Total Energy =                       -344.8882320884655996

  Mulliken Charges: (a.u.)
   Center  Symbol    Alpha    Beta     Spin     Total
       1     O     4.25871  4.25871  0.00000 -0.51741
       2     C     2.61170  2.61170  0.00000  0.77660
       3     C     3.21677  3.21677  0.00000 -0.43354
       4     O     4.31309  4.31309  0.00000 -0.62618
       5     C     3.23808  3.23808  0.00000 -0.47617
       6     H     0.40724  0.40724  0.00000  0.18553
       7     H     0.39907  0.39907  0.00000  0.20186
       8     H     0.41089  0.41089  0.00000  0.17822
       9     H     0.41930  0.41930  0.00000  0.16140
      10     H     0.40836  0.40836  0.00000  0.18328
      11     C     3.00652  3.00652  0.00000 -0.01305
      12     C     3.24611  3.24611  0.00000 -0.49221
      13     H     0.42097  0.42097  0.00000  0.15807
      14     H     0.41149  0.41149  0.00000  0.17703
      15     H     0.40965  0.40965  0.00000  0.18069
      16     H     0.41714  0.41714  0.00000  0.16572
      17     H     0.40492  0.40492  0.00000  0.19016

   Total alpha = 28.00000, Total beta = 28.00000, Total charge = -0.00000
