  ==> Input File <==

--------------------------------------------------------------------------
set {
	reference rhf
	basis 6-31G*
}

set_num_threads( 4 )
memory 2 gb

molecule MOL {
0 1

H	 -0.244668	 3.342711	 -2.303229
O	 -0.727070	 2.528098	 -2.312268
C	 -0.432176	 1.792098	 -1.155406
C	 0.950776	 1.170231	 -1.235362
H	 -0.506656	 2.403986	 -0.260753
H	 -1.175497	 1.010700	 -1.082320
O	 1.171513	 0.459272	 -0.058250
H	 1.705267	 1.949462	 -1.359959
H	 1.008597	 0.518651	 -2.105238
C	 2.397842	 -0.198080	 -0.002151
H	 2.508049	 -0.905315	 -0.822092
H	 3.173794	 0.550865	 -0.078850
H	 2.517602	 -0.735921	 0.936026

	symmetry c1
}
set optking {
	frozen_dihedral = ("
		4 7 10 13
	")
}

ee = optimize('scf')
oeprop('DIPOLE', 'QUADRUPOLE', 'MULLIKEN_CHARGES')
f=open( 'psi4out.xyz', 'w' )
f.write( "13  " )
f.write( str(ee) + "\n" )
f.write( MOL.save_string_xyz() )
f.close()
--------------------------------------------------------------------------

    Molecular point group: c1
  Charge       = 0
  Multiplicity = 1
  Basis Set: 6-31G*
  Basis Set:
  @DF-RHF Final Energy:  -267.94950245068924
    Total Energy =                       -267.9495024506893515
    Molecular point group: c1
  Basis Set: 6-31G*
  Basis Set:
  Basis Set: 6-31G*
  Basis Set:
  @DF-RHF Final Energy:  -267.95037547224706
    Total Energy =                       -267.9503754722470603
  Basis Set: 6-31G*
  Basis Set:
  Basis Set: 6-31G*
  Basis Set:
  @DF-RHF Final Energy:  -267.95064100208651
    Total Energy =                       -267.9506410020865133
  Basis Set: 6-31G*
  Basis Set:
  Charge       = 0
  Multiplicity = 1
  Basis Set: 6-31G*
  Basis Set:

    Orbital Energies (a.u.)
    -----------------------

    Doubly Occupied:

       1A    -20.562475     2A    -20.560156     3A    -11.270899
       4A    -11.270318     5A    -11.269009     6A     -1.388939
       7A     -1.365220     8A     -1.018591     9A     -0.913348
      10A     -0.841963    11A     -0.709576    12A     -0.674254
      13A     -0.660685    14A     -0.637273    15A     -0.596026
      16A     -0.569472    17A     -0.545460    18A     -0.489361
      19A     -0.482024    20A     -0.438479    21A     -0.422252

  @DF-RHF Final Energy:  -267.95064196913881

   => Energetics <=

    Nuclear Repulsion Energy =            190.2531310904736870
    One-Electron Energy =                -743.0359825600096428
    Two-Electron Energy =                 284.8322095003970844
    DFT Exchange-Correlation Energy =       0.0000000000000000
    Empirical Dispersion Energy =           0.0000000000000000
    PCM Polarization Energy =               0.0000000000000000
    EFP Energy =                            0.0000000000000000
    Total Energy =                       -267.9506419691388146
    Molecular point group: c1
  Basis Set: 6-31G*
  Basis Set:

  -Total Gradient:
     Atom            X                  Y                   Z
    ------   -----------------  -----------------  -----------------
       1        0.000008076272     0.000012326126    -0.000011299509
       2        0.000109602786    -0.000054068989     0.000082398942
       3       -0.000072100894    -0.000073812738     0.000091860347
       4        0.000122631691    -0.000031938554    -0.000122654869
       5       -0.000016314470     0.000031059523    -0.000004675740
       6       -0.000005282628    -0.000009994227     0.000011041320
       7       -0.000031496524     0.000029489545     0.000018601127
       8        0.000013201440    -0.000010192404     0.000034924184
       9        0.000001406894    -0.000007078382    -0.000014063215
      10        0.000021295589    -0.000000591404    -0.000080722840
      11       -0.000048596522     0.000024827913    -0.000014855306
      12       -0.000035211989     0.000038637076    -0.000005328608
      13       -0.000067211642     0.000051336517     0.000014774171

  **** Optimization is complete! (in 4 steps) ****
    Final optimized geometry and variables:
    Molecular point group: c1

    Geometry (in Angstrom), charge = 0, multiplicity = 1:

    H           -0.929541327982     2.171129828571    -1.324438628308
    O           -1.407467218894     1.353916946126    -1.336695221902
    C           -1.108201381720     0.614489240263    -0.183117185554
    C            0.278168342157     0.000759364395    -0.266455536539
    H           -1.185269540640     1.222493041860     0.713912971034
    H           -1.847182175614    -0.171239562988    -0.112589644486
    O            0.503532394569    -0.712773958230     0.908444333408
    H            1.028412118313     0.784368858608    -0.388771537040
    H            0.338619929428    -0.647895379359    -1.138257022702
    C            1.733617803066    -1.363396053114     0.960810821143
    H            1.831983472546    -2.091580665512     0.158415852455
    H            2.559284018901    -0.657756882859     0.890610517993
    H            1.790966156193    -1.876860223319     1.910545403505

  Mulliken Charges: (a.u.)
   Center  Symbol    Alpha    Beta     Spin     Total
       1     H     0.28126  0.28126  0.00000  0.43749
       2     O     4.37089  4.37089  0.00000 -0.74178
       3     C     3.00464  3.00464  0.00000 -0.00928
       4     C     2.99663  2.99663  0.00000  0.00675
       5     H     0.42227  0.42227  0.00000  0.15546
       6     H     0.40841  0.40841  0.00000  0.18318
       7     O     4.30747  4.30747  0.00000 -0.61495
       8     H     0.43752  0.43752  0.00000  0.12497
       9     H     0.42327  0.42327  0.00000  0.15347
      10     C     3.08001  3.08001  0.00000 -0.16002
      11     H     0.42766  0.42766  0.00000  0.14468
      12     H     0.42927  0.42927  0.00000  0.14145
      13     H     0.41070  0.41070  0.00000  0.17859

   Total alpha = 21.00000, Total beta = 21.00000, Total charge =  0.00000
