  ==> Input File <==

--------------------------------------------------------------------------
set {
	reference rhf
	basis 6-31G*
}

set_num_threads( 1 )
memory 2 gb

molecule MOL {
0 1

H	 -2.521692	 1.256815	 -1.980505
C	 -1.798753	 0.601867	 -1.534340
C	 -2.076860	 -0.007332	 -0.404944
H	 -0.857112	 0.462089	 -2.031013
O	 -1.180634	 -0.819263	 0.215062
H	 -3.016544	 0.113608	 0.104528
C	 0.051604	 -1.018856	 -0.387932
C	 1.043764	 0.054862	 -0.001873
H	 -0.017620	 -1.041351	 -1.469781
H	 0.437898	 -1.966374	 -0.042284
F	 2.212596	 -0.199467	 -0.571921
F	 0.652529	 1.252447	 -0.405055
F	 1.230877	 0.110694	 1.300533

	symmetry c1
}
set optking {
	frozen_dihedral = ("
		11 8 7 9,
		3 5 7 9,
		6 3 2 1
	")
}

ee = energy('scf')
oeprop('DIPOLE', 'QUADRUPOLE', 'MULLIKEN_CHARGES')
f=open( 'psi4out.xyz', 'w' )
f.write( "13  " )
f.write( str(ee) + "\n" )
f.write( MOL.save_string_xyz() )
f.close()
--------------------------------------------------------------------------

    Molecular point group: c1

    Geometry (in Angstrom), charge = 0, multiplicity = 1:

       Center              X                  Y                   Z               Mass
    ------------   -----------------  -----------------  -----------------  -----------------
           H         -2.676803551850     1.229948307763    -1.791472987964     1.007825032070
           C         -1.953864551850     0.575000307763    -1.345307987964    12.000000000000
           C         -2.231971551850    -0.034198692237    -0.215911987964    12.000000000000
           H         -1.012223551850     0.435222307763    -1.841980987964     1.007825032070
           O         -1.335745551850    -0.846129692237     0.404094012036    15.994914619560
           H         -3.171655551850     0.086741307763     0.293560012036     1.007825032070
           C         -0.103507551850    -1.045722692237    -0.198899987964    12.000000000000
           C          0.888652448150     0.027995307763     0.187159012036    12.000000000000
           H         -0.172731551850    -1.068217692237    -1.280748987964     1.007825032070
           H          0.282786448150    -1.993240692237     0.146748012036     1.007825032070
           F          2.057484448150    -0.226333692237    -0.382888987964    18.998403224000
           F          0.497417448150     1.225580307763    -0.216022987964    18.998403224000
           F          1.075765448150     0.083827307763     1.489565012036    18.998403224000

  Charge       = 0
  Multiplicity = 1
  Basis Set: 6-31G*
  Basis Set:

    Orbital Energies (a.u.)
    -----------------------

    Doubly Occupied:

       1A    -26.342669     2A    -26.338782     3A    -26.337925
       4A    -20.608637     5A    -11.501254     6A    -11.314044
       7A    -11.300374     8A    -11.216118     9A     -1.739172
      10A     -1.637496    11A     -1.635353    12A     -1.438581
      13A     -1.076054    14A     -1.025728    15A     -0.932465
      16A     -0.833226    17A     -0.828892    18A     -0.823550
      19A     -0.766709    20A     -0.736103    21A     -0.706866
      22A     -0.699688    23A     -0.676351    24A     -0.658048
      25A     -0.654372    26A     -0.640249    27A     -0.627969
      28A     -0.596968    29A     -0.553327    30A     -0.519339
      31A     -0.515604    32A     -0.354694

  @DF-RHF Final Energy:  -527.52626906655019

   => Energetics <=

    Nuclear Repulsion Energy =            424.7691358067237957
    One-Electron Energy =               -1573.3176315397508915
    Two-Electron Energy =                 621.0222266664763993
    DFT Exchange-Correlation Energy =       0.0000000000000000
    Empirical Dispersion Energy =           0.0000000000000000
    PCM Polarization Energy =               0.0000000000000000
    EFP Energy =                            0.0000000000000000
    Total Energy =                       -527.5262690665506398

  Mulliken Charges: (a.u.)
   Center  Symbol    Alpha    Beta     Spin     Total
       1     H     0.40456  0.40456  0.00000  0.19087
       2     C     3.23863  3.23863  0.00000 -0.47727
       3     C     2.90123  2.90123  0.00000  0.19754
       4     H     0.40864  0.40864  0.00000  0.18271
       5     O     4.30639  4.30639  0.00000 -0.61278
       6     H     0.39163  0.39163  0.00000  0.21675
       7     C     3.07030  3.07030  0.00000 -0.14061
       8     C     2.45378  2.45378  0.00000  1.09243
       9     H     0.40121  0.40121  0.00000  0.19758
      10     H     0.38879  0.38879  0.00000  0.22242
      11     F     4.68306  4.68306  0.00000 -0.36612
      12     F     4.67649  4.67649  0.00000 -0.35297
      13     F     4.67528  4.67528  0.00000 -0.35056

   Total alpha = 32.00000, Total beta = 32.00000, Total charge = -0.00000
