  ==> Input File <==

--------------------------------------------------------------------------
set {
	reference rhf
	basis 6-31G*
}

set_num_threads( 1 )
memory 2 gb

molecule MOL {
0 1

H	 -1.696427	 -2.478568	 -2.125705
C	 -2.372274	 -1.725891	 -1.701053
C	 -2.266917	 -1.544671	 -0.208180
O	 -3.115103	 -1.124254	 -2.406735
C	 -0.824681	 -1.294563	 0.254048
H	 -2.925581	 -0.735598	 0.085541
H	 -2.636784	 -2.460130	 0.252024
C	 -0.252658	 0.041456	 -0.226725
H	 -0.800731	 -1.327638	 1.339229
H	 -0.189251	 -2.110213	 -0.087568
C	 1.180775	 0.282413	 0.250794
H	 -0.892557	 0.849011	 0.122891
H	 -0.280418	 0.084999	 -1.313865
C	 2.148627	 -0.814315	 -0.201312
H	 1.516199	 1.249228	 -0.115937
H	 1.192670	 0.346017	 1.338083
C	 3.580890	 -0.659131	 0.322722
H	 2.166869	 -0.852443	 -1.289387
H	 1.762857	 -1.776509	 0.128956
C	 4.324889	 0.564933	 -0.213704
H	 4.142010	 -1.551473	 0.056605
H	 3.564836	 -0.624694	 1.410140
H	 4.342616	 0.565491	 -1.300421
H	 3.866655	 1.493402	 0.110242
H	 5.353900	 0.572371	 0.132816

	symmetry c1
}
set optking {
	frozen_dihedral = ("
		6 3 5 8,
		6 3 2 4,
		3 5 8 12,
		8 11 14 18,
		20 17 14 18
	")
}

ee = energy('scf')
oeprop('DIPOLE', 'QUADRUPOLE', 'MULLIKEN_CHARGES')
f=open( 'psi4out.xyz', 'w' )
f.write( "25  " )
f.write( str(ee) + "\n" )
f.write( MOL.save_string_xyz() )
f.close()
--------------------------------------------------------------------------

    Molecular point group: c1

    Geometry (in Angstrom), charge = 0, multiplicity = 1:

       Center              X                  Y                   Z               Mass
    ------------   -----------------  -----------------  -----------------  -----------------
           H         -1.969838624267    -1.786991634532    -1.653939674155     1.007825032070
           C         -2.645685624267    -1.034314634532    -1.229287674155    12.000000000000
           C         -2.540328624267    -0.853094634532     0.263585325845    12.000000000000
           O         -3.388514624267    -0.432677634532    -1.934969674155    15.994914619560
           C         -1.098092624267    -0.602986634532     0.725813325845    12.000000000000
           H         -3.198992624267    -0.044021634532     0.557306325845     1.007825032070
           H         -2.910195624267    -1.768553634532     0.723789325845     1.007825032070
           C         -0.526069624267     0.733032365468     0.245040325845    12.000000000000
           H         -1.074142624267    -0.636061634532     1.810994325845     1.007825032070
           H         -0.462662624267    -1.418636634532     0.384197325845     1.007825032070
           C          0.907363375733     0.973989365468     0.722559325845    12.000000000000
           H         -1.165968624267     1.540587365468     0.594656325845     1.007825032070
           H         -0.553829624267     0.776575365468    -0.842099674155     1.007825032070
           C          1.875215375733    -0.122738634532     0.270453325845    12.000000000000
           H          1.242787375733     1.940804365468     0.355828325845     1.007825032070
           H          0.919258375733     1.037593365468     1.809848325845     1.007825032070
           C          3.307478375733     0.032445365468     0.794487325845    12.000000000000
           H          1.893457375733    -0.160866634532    -0.817621674155     1.007825032070
           H          1.489445375733    -1.084932634532     0.600721325845     1.007825032070
           C          4.051477375733     1.256509365468     0.258061325845    12.000000000000
           H          3.868598375733    -0.859896634532     0.528370325845     1.007825032070
           H          3.291424375733     0.066882365468     1.881905325845     1.007825032070
           H          4.069204375733     1.257067365468    -0.828655674155     1.007825032070
           H          3.593243375733     2.184978365468     0.582007325845     1.007825032070
           H          5.080488375733     1.263947365468     0.604581325845     1.007825032070

  Charge       = 0
  Multiplicity = 1
  Basis Set: 6-31G*
  Basis Set:

    Orbital Energies (a.u.)
    -----------------------

    Doubly Occupied:

       1A    -20.561817     2A    -11.325982     3A    -11.234588
       4A    -11.233828     5A    -11.224047     6A    -11.220090
       7A    -11.219357     8A    -11.218293     9A    -11.211077
      10A     -1.401801    11A     -1.106504    12A     -1.068347
      13A     -1.013559    14A     -0.939568    15A     -0.883262
      16A     -0.822218    17A     -0.793349    18A     -0.772472
      19A     -0.665800    20A     -0.650711    21A     -0.637143
      22A     -0.626885    23A     -0.611263    24A     -0.591434
      25A     -0.569615    26A     -0.564763    27A     -0.533411
      28A     -0.520386    29A     -0.518502    30A     -0.498894
      31A     -0.487126    32A     -0.476742    33A     -0.464391
      34A     -0.451486    35A     -0.446115    36A     -0.409266

  @DF-RHF Final Energy:  -387.11854911870307

   => Energetics <=

    Nuclear Repulsion Energy =            445.9011285096673873
    One-Electron Energy =               -1408.0913510617529028
    Two-Electron Energy =                 575.0716734333841487
    DFT Exchange-Correlation Energy =       0.0000000000000000
    Empirical Dispersion Energy =           0.0000000000000000
    PCM Polarization Energy =               0.0000000000000000
    EFP Energy =                            0.0000000000000000
    Total Energy =                       -387.1185491187013668

  Mulliken Charges: (a.u.)
   Center  Symbol    Alpha    Beta     Spin     Total
       1     H     0.43272  0.43272  0.00000  0.13457
       2     C     2.83081  2.83081  0.00000  0.33837
       3     C     3.20674  3.20674  0.00000 -0.41349
       4     O     4.23788  4.23788  0.00000 -0.47575
       5     C     3.17084  3.17084  0.00000 -0.34169
       6     H     0.40003  0.40003  0.00000  0.19994
       7     H     0.40692  0.40692  0.00000  0.18616
       8     C     3.15559  3.15559  0.00000 -0.31119
       9     H     0.41327  0.41327  0.00000  0.17347
      10     H     0.41689  0.41689  0.00000  0.16622
      11     C     3.15553  3.15553  0.00000 -0.31106
      12     H     0.41588  0.41588  0.00000  0.16824
      13     H     0.41842  0.41842  0.00000  0.16316
      14     C     3.15788  3.15788  0.00000 -0.31577
      15     H     0.41611  0.41611  0.00000  0.16778
      16     H     0.42343  0.42343  0.00000  0.15314
      17     C     3.15124  3.15124  0.00000 -0.30248
      18     H     0.42356  0.42356  0.00000  0.15289
      19     H     0.42070  0.42070  0.00000  0.15861
      20     C     3.24160  3.24160  0.00000 -0.48320
      21     H     0.42076  0.42076  0.00000  0.15848
      22     H     0.42312  0.42312  0.00000  0.15375
      23     H     0.42164  0.42164  0.00000  0.15672
      24     H     0.41983  0.41983  0.00000  0.16034
      25     H     0.41861  0.41861  0.00000  0.16278

   Total alpha = 36.00000, Total beta = 36.00000, Total charge = -0.00000
