  ==> Input File <==

--------------------------------------------------------------------------
set {
	reference rhf
	basis 6-31G*
}

set_num_threads( 1 )
memory 2 gb

molecule MOL {
0 1

O	 -2.821601	 1.309235	 -0.000926
C	 -2.668563	 0.129746	 -0.000350
C	 -3.801571	 -0.864015	 -0.000845
O	 -1.481751	 -0.454642	 0.000584
H	 -4.417168	 -0.689360	 -0.875145
H	 -3.443783	 -1.883046	 -0.001187
H	 -4.417290	 -0.690060	 0.873517
C	 -0.334255	 0.388708	 0.000906
C	 0.891947	 -0.504646	 0.000751
H	 -0.365390	 1.025305	 -0.873475
H	 -0.365484	 1.024911	 0.875569
C	 2.191998	 0.301789	 0.000897
H	 0.855148	 -1.151283	 -0.871571
H	 0.855132	 -1.151660	 0.872805
C	 3.441114	 -0.581407	 0.000108
H	 2.215074	 0.954890	 -0.869742
H	 2.215465	 0.953923	 0.872248
C	 4.739576	 0.224112	 -0.001102
H	 3.419457	 -1.233487	 -0.870178
H	 3.420834	 -1.233096	 0.870717
H	 4.804918	 0.861552	 -0.878265
H	 5.606527	 -0.429058	 -0.001824
H	 4.806469	 0.861674	 0.875853

	symmetry c1
}
set optking {
	frozen_dihedral = ("
		13 9 8 10,
		2 4 8 10,
		16 12 9 13,
		19 15 12 16
	")
}

ee = energy('scf')
oeprop('DIPOLE', 'QUADRUPOLE', 'MULLIKEN_CHARGES')
f=open( 'psi4out.xyz', 'w' )
f.write( "23  " )
f.write( str(ee) + "\n" )
f.write( MOL.save_string_xyz() )
f.close()
--------------------------------------------------------------------------

    Molecular point group: c1

    Geometry (in Angstrom), charge = 0, multiplicity = 1:

       Center              X                  Y                   Z               Mass
    ------------   -----------------  -----------------  -----------------  -----------------
           O         -2.821600805588     1.309234639433    -0.000912367605    15.994914619560
           C         -2.668562805588     0.129745639433    -0.000336367605    12.000000000000
           C         -3.801570805588    -0.864015360567    -0.000831367605    12.000000000000
           O         -1.481750805588    -0.454642360567     0.000597632395    15.994914619560
           H         -4.417167805588    -0.689360360567    -0.875131367605     1.007825032070
           H         -3.443782805588    -1.883046360567    -0.001173367605     1.007825032070
           H         -4.417289805588    -0.690060360567     0.873530632395     1.007825032070
           C         -0.334254805588     0.388707639433     0.000919632395    12.000000000000
           C          0.891947194412    -0.504646360567     0.000764632395    12.000000000000
           H         -0.365389805588     1.025304639433    -0.873461367605     1.007825032070
           H         -0.365483805588     1.024910639433     0.875582632395     1.007825032070
           C          2.191998194412     0.301788639433     0.000910632395    12.000000000000
           H          0.855148194412    -1.151283360567    -0.871557367605     1.007825032070
           H          0.855132194412    -1.151660360567     0.872818632395     1.007825032070
           C          3.441114194412    -0.581407360567     0.000121632395    12.000000000000
           H          2.215074194412     0.954889639433    -0.869728367605     1.007825032070
           H          2.215465194412     0.953922639433     0.872261632395     1.007825032070
           C          4.739576194412     0.224111639433    -0.001088367605    12.000000000000
           H          3.419457194412    -1.233487360567    -0.870164367605     1.007825032070
           H          3.420834194412    -1.233096360567     0.870730632395     1.007825032070
           H          4.804918194412     0.861551639433    -0.878251367605     1.007825032070
           H          5.606527194412    -0.429058360567    -0.001810367605     1.007825032070
           H          4.806469194412     0.861673639433     0.875866632395     1.007825032070

  Charge       = 0
  Multiplicity = 1
  Basis Set: 6-31G*
  Basis Set:

    Orbital Energies (a.u.)
    -----------------------

    Doubly Occupied:

       1A    -20.603031     2A    -20.540545     3A    -11.374108
       4A    -11.281530     5A    -11.232407     6A    -11.224451
       7A    -11.223836     8A    -11.221719     9A    -11.212985
      10A     -1.467997    11A     -1.360759    12A     -1.094272
      13A     -1.042286    14A     -1.003475    15A     -0.930946
      16A     -0.841673    17A     -0.802726    18A     -0.774429
      19A     -0.692277    20A     -0.685069    21A     -0.667937
      22A     -0.646729    23A     -0.606064    24A     -0.588473
      25A     -0.582197    26A     -0.566704    27A     -0.558713
      28A     -0.537212    29A     -0.523325    30A     -0.504943
      31A     -0.491035    32A     -0.477988    33A     -0.471180
      34A     -0.465759    35A     -0.451252    36A     -0.435343

  @DF-RHF Final Energy:  -422.97953176987306

   => Energetics <=

    Nuclear Repulsion Energy =            449.6140832081856047
    One-Electron Energy =               -1466.8164702814015072
    Two-Electron Energy =                 594.2228553033421576
    DFT Exchange-Correlation Energy =       0.0000000000000000
    Empirical Dispersion Energy =           0.0000000000000000
    PCM Polarization Energy =               0.0000000000000000
    EFP Energy =                            0.0000000000000000
    Total Energy =                       -422.9795317698738017

  Mulliken Charges: (a.u.)
   Center  Symbol    Alpha    Beta     Spin     Total
       1     O     4.28391  4.28391  0.00000 -0.56781
       2     C     2.61532  2.61532  0.00000  0.76936
       3     C     3.28774  3.28774  0.00000 -0.57549
       4     O     4.31274  4.31274  0.00000 -0.62547
       5     H     0.39749  0.39749  0.00000  0.20501
       6     H     0.39985  0.39985  0.00000  0.20029
       7     H     0.39750  0.39750  0.00000  0.20500
       8     C     2.99560  2.99560  0.00000  0.00881
       9     C     3.16481  3.16481  0.00000 -0.32962
      10     H     0.41063  0.41063  0.00000  0.17873
      11     H     0.41066  0.41066  0.00000  0.17868
      12     C     3.16000  3.16000  0.00000 -0.32001
      13     H     0.41424  0.41424  0.00000  0.17152
      14     H     0.41424  0.41424  0.00000  0.17152
      15     C     3.15143  3.15143  0.00000 -0.30286
      16     H     0.42077  0.42077  0.00000  0.15846
      17     H     0.42076  0.42076  0.00000  0.15847
      18     C     3.23987  3.23987  0.00000 -0.47974
      19     H     0.42139  0.42139  0.00000  0.15723
      20     H     0.42138  0.42138  0.00000  0.15724
      21     H     0.42084  0.42084  0.00000  0.15833
      22     H     0.41799  0.41799  0.00000  0.16402
      23     H     0.42084  0.42084  0.00000  0.15833

   Total alpha = 36.00000, Total beta = 36.00000, Total charge =  0.00000
