  ==> Input File <==

--------------------------------------------------------------------------
set {
	reference rhf
	basis 6-31G*
}

set_num_threads( 1 )
memory 2 gb

molecule MOL {
0 1

O	 1.677622	 0.046968	 -0.651692
C	 2.701189	 0.057885	 -0.047330
C	 3.435189	 1.291954	 0.418614
O	 3.347903	 -1.046386	 0.304773
C	 2.722019	 2.590209	 0.047076
H	 3.571803	 1.195259	 1.490611
H	 4.432636	 1.256476	 -0.012126
C	 3.505474	 3.853322	 0.420221
H	 1.744684	 2.610470	 0.519862
H	 2.537372	 2.589553	 -1.021721
C	 3.680125	 4.083728	 1.924056
H	 2.986255	 4.709404	 -0.004347
H	 4.483982	 3.827282	 -0.057120
C	 4.370906	 5.410341	 2.246423
H	 2.703518	 4.060733	 2.405230
H	 4.256142	 3.272259	 2.363026
C	 4.555488	 5.648857	 3.746147
H	 3.793038	 6.229386	 1.821608
H	 5.343078	 5.438428	 1.756738
C	 5.242587	 6.977501	 4.059674
H	 3.585072	 5.620111	 4.237174
H	 5.136592	 4.833415	 4.171768
H	 5.359116	 7.117634	 5.129903
H	 4.667577	 7.816062	 3.677085
H	 6.230776	 7.023449	 3.610623
C	 4.728119	 -1.109107	 -0.004993
H	 4.882018	 -1.033965	 -1.071845
H	 5.068212	 -2.067527	 0.355250
H	 5.265056	 -0.311663	 0.488280

	symmetry c1
}
set optking {
	frozen_dihedral = ("
		21 17 14 11,
		17 14 11 15,
		15 11 8 5,
		6 3 5 9,
		11 8 5 9,
		2 4 26 27,
		6 3 2 1
	")
}

ee = energy('scf')
oeprop('DIPOLE', 'QUADRUPOLE', 'MULLIKEN_CHARGES')
f=open( 'psi4out.xyz', 'w' )
f.write( "29  " )
f.write( str(ee) + "\n" )
f.write( MOL.save_string_xyz() )
f.close()
--------------------------------------------------------------------------

    Molecular point group: c1

    Geometry (in Angstrom), charge = 0, multiplicity = 1:

       Center              X                  Y                   Z               Mass
    ------------   -----------------  -----------------  -----------------  -----------------
           O         -1.966945851130    -2.446916832349    -1.779008791858    15.994914619560
           C         -0.943378851130    -2.435999832349    -1.174646791858    12.000000000000
           C         -0.209378851130    -1.201930832349    -0.708702791858    12.000000000000
           O         -0.296664851130    -3.540270832349    -0.822543791858    15.994914619560
           C         -0.922548851130     0.096324167651    -1.080240791858    12.000000000000
           H         -0.072764851130    -1.298625832349     0.363294208142     1.007825032070
           H          0.788068148870    -1.237408832349    -1.139442791858     1.007825032070
           C         -0.139093851130     1.359437167651    -0.707095791858    12.000000000000
           H         -1.899883851130     0.116585167651    -0.607454791858     1.007825032070
           H         -1.107195851130     0.095668167651    -2.149037791858     1.007825032070
           C          0.035557148870     1.589843167651     0.796739208142    12.000000000000
           H         -0.658312851130     2.215519167651    -1.131663791858     1.007825032070
           H          0.839414148870     1.333397167651    -1.184436791858     1.007825032070
           C          0.726338148870     2.916456167651     1.119106208142    12.000000000000
           H         -0.941049851130     1.566848167651     1.277913208142     1.007825032070
           H          0.611574148870     0.778374167651     1.235709208142     1.007825032070
           C          0.910920148870     3.154972167651     2.618830208142    12.000000000000
           H          0.148470148870     3.735501167651     0.694291208142     1.007825032070
           H          1.698510148870     2.944543167651     0.629421208142     1.007825032070
           C          1.598019148870     4.483616167651     2.932357208142    12.000000000000
           H         -0.059495851130     3.126226167651     3.109857208142     1.007825032070
           H          1.492024148870     2.339530167651     3.044451208142     1.007825032070
           H          1.714548148870     4.623749167651     4.002586208142     1.007825032070
           H          1.023009148870     5.322177167651     2.549768208142     1.007825032070
           H          2.586208148870     4.529564167651     2.483306208142     1.007825032070
           C          1.083551148870    -3.602991832349    -1.132309791858    12.000000000000
           H          1.237450148870    -3.527849832349    -2.199161791858     1.007825032070
           H          1.423644148870    -4.561411832349    -0.772066791858     1.007825032070
           H          1.620488148870    -2.805547832349    -0.639036791858     1.007825032070

  Charge       = 0
  Multiplicity = 1
  Basis Set: 6-31G*
  Basis Set:

    Orbital Energies (a.u.)
    -----------------------

    Doubly Occupied:

       1A    -20.595635     2A    -20.550984     3A    -11.374005
       4A    -11.296996     5A    -11.238514     6A    -11.221960
       7A    -11.220643     8A    -11.219198     9A    -11.218271
      10A    -11.217228    11A    -11.211120    12A     -1.465191
      13A     -1.369181    14A     -1.100805    15A     -1.068072
      16A     -1.014888    17A     -0.985497    18A     -0.945726
      19A     -0.870348    20A     -0.806175    21A     -0.794450
      22A     -0.762530    23A     -0.702316    24A     -0.683720
      25A     -0.679526    26A     -0.653801    27A     -0.634114
      28A     -0.614686    29A     -0.601856    30A     -0.588028
      31A     -0.567723    32A     -0.559917    33A     -0.546372
      34A     -0.533903    35A     -0.519883    36A     -0.503295
      37A     -0.498242    38A     -0.480363    39A     -0.472852
      40A     -0.465845    41A     -0.464017    42A     -0.453968
      43A     -0.443338    44A     -0.430283

  @DF-RHF Final Energy:  -501.01815955234224

   => Energetics <=

    Nuclear Repulsion Energy =            616.9561676053472183
    One-Electron Energy =               -1904.6572850767383898
    Two-Electron Energy =                 786.6829579190475670
    DFT Exchange-Correlation Energy =       0.0000000000000000
    Empirical Dispersion Energy =           0.0000000000000000
    PCM Polarization Energy =               0.0000000000000000
    EFP Energy =                            0.0000000000000000
    Total Energy =                       -501.0181595523436044

  Mulliken Charges: (a.u.)
   Center  Symbol    Alpha    Beta     Spin     Total
       1     O     4.26286  4.26286  0.00000 -0.52572
       2     C     2.60155  2.60155  0.00000  0.79690
       3     C     3.23421  3.23421  0.00000 -0.46842
       4     O     4.30373  4.30373  0.00000 -0.60745
       5     C     3.15157  3.15157  0.00000 -0.30314
       6     H     0.39680  0.39680  0.00000  0.20640
       7     H     0.40601  0.40601  0.00000  0.18797
       8     C     3.15634  3.15634  0.00000 -0.31269
       9     H     0.41110  0.41110  0.00000  0.17779
      10     H     0.40875  0.40875  0.00000  0.18250
      11     C     3.15470  3.15470  0.00000 -0.30939
      12     H     0.41757  0.41757  0.00000  0.16486
      13     H     0.42564  0.42564  0.00000  0.14872
      14     C     3.15029  3.15029  0.00000 -0.30058
      15     H     0.42144  0.42144  0.00000  0.15711
      16     H     0.42563  0.42563  0.00000  0.14873
      17     C     3.15148  3.15148  0.00000 -0.30296
      18     H     0.42269  0.42269  0.00000  0.15462
      19     H     0.42453  0.42453  0.00000  0.15093
      20     C     3.23941  3.23941  0.00000 -0.47881
      21     H     0.42222  0.42222  0.00000  0.15556
      22     H     0.42393  0.42393  0.00000  0.15213
      23     H     0.41888  0.41888  0.00000  0.16224
      24     H     0.42120  0.42120  0.00000  0.15761
      25     H     0.42202  0.42202  0.00000  0.15596
      26     C     3.10061  3.10061  0.00000 -0.20122
      27     H     0.41133  0.41133  0.00000  0.17734
      28     H     0.39842  0.39842  0.00000  0.20315
      29     H     0.41508  0.41508  0.00000  0.16984

   Total alpha = 44.00000, Total beta = 44.00000, Total charge = -0.00000
