                              Psi4 1.0.54 Driver

  ==> Input File <==

--------------------------------------------------------------------------
set {
	reference rhf
	basis cc-pvtz
}

set_num_threads( 4 )
memory 2 gb

molecule MOL {
0 1

H	 -1.999473	 0.515863	 -0.992545
N	 -1.851927	 0.161443	 -0.071573
C	 -0.561396	 -0.500007	 0.035200
H	 -2.596179	 -0.475789	 0.121713
C	 0.575129	 0.507849	 -0.048832
H	 -0.478089	 -1.200753	 -0.788956
H	 -0.456191	 -1.081816	 0.952176
C	 1.951750	 -0.141983	 0.035101
H	 0.478254	 1.061643	 -0.975981
H	 0.467676	 1.231891	 0.755499
H	 2.101550	 -0.848142	 -0.774949
H	 2.738260	 0.600794	 -0.026526
H	 2.078939	 -0.679792	 0.968824

	symmetry c1
}
set optking {
	frozen_dihedral = ("
		1 2 3 6
	")
}

ee,wfn = optimize('scf', return_wfn=True)
oeprop( wfn, 'DIPOLE', 'QUADRUPOLE', 'MULLIKEN_CHARGES')
f=open( 'psi4out.xyz', 'w' )
f.write( "13  " )
f.write( str(ee) + "\n" )
f.write( MOL.save_string_xyz() )
f.close()
--------------------------------------------------------------------------

    Molecular point group: c1
  Charge       = 0
  Multiplicity = 1
  Basis Set: CC-PVTZ
  Basis Set:
  @DF-RHF Final Energy:  -173.35056482125177
    Total Energy =                       -173.3505648212517940
    Molecular point group: c1
  Basis Set: CC-PVTZ
  Basis Set:
  Basis Set: CC-PVTZ
  Basis Set:
  @DF-RHF Final Energy:  -172.81976183241457
    Total Energy =                       -172.8197618324145424
  Basis Set: CC-PVTZ
  Basis Set:
  Basis Set: CC-PVTZ
  Basis Set:
  @DF-RHF Final Energy:  -172.98099335921617
    Total Energy =                       -172.9809933592162281
  Basis Set: CC-PVTZ
  Basis Set:
  Basis Set: CC-PVTZ
  Basis Set:
  @DF-RHF Final Energy:  -173.19311961647941
    Total Energy =                       -173.1931196164792368
  Basis Set: CC-PVTZ
  Basis Set:
  @DF-RHF Final Energy:  -173.30686571664535
    Total Energy =                       -173.3068657166453477
  @DF-RHF Final Energy:  -173.34921133812290
    Total Energy =                       -173.3492113381230411
  @DF-RHF Final Energy:  -173.35229946499118
    Total Energy =                       -173.3522994649911766
  Basis Set: CC-PVTZ
  Basis Set:
  @DF-RHF Final Energy:  -173.35244261424521
    Total Energy =                       -173.3524426142452057
  Basis Set: CC-PVTZ
  Basis Set:
  Basis Set: CC-PVTZ
  Basis Set:
  @DF-RHF Final Energy:  -173.35245759635185
    Total Energy =                       -173.3524575963518544
  Basis Set: CC-PVTZ
  Basis Set:
  Basis Set: CC-PVTZ
  Basis Set:
  @DF-RHF Final Energy:  -173.35245863245882
    Total Energy =                       -173.3524586324587062
  Basis Set: CC-PVTZ
  Basis Set:
  Charge       = 0
  Multiplicity = 1
  Basis Set: CC-PVTZ
  Basis Set:

    Orbital Energies (a.u.)
    -----------------------

    Doubly Occupied:

       1A    -15.527218     2A    -11.238606     3A    -11.209105
       4A    -11.206446     5A     -1.178544     6A     -1.035925
       7A     -0.899305     8A     -0.798845     9A     -0.666238
      10A     -0.627060    11A     -0.603981    12A     -0.567752
      13A     -0.528826    14A     -0.491909    15A     -0.478826
      16A     -0.468075    17A     -0.384989

  @DF-RHF Final Energy:  -173.35245874826609

   => Energetics <=

    Nuclear Repulsion Energy =            131.9201614468483399
    One-Electron Energy =                -494.7219438596432042
    Two-Electron Energy =                 189.4493236645288050
    DFT Exchange-Correlation Energy =       0.0000000000000000
    Empirical Dispersion Energy =           0.0000000000000000
    PCM Polarization Energy =               0.0000000000000000
    EFP Energy =                            0.0000000000000000
    Total Energy =                       -173.3524587482660593
    Molecular point group: c1
  Basis Set: CC-PVTZ
  Basis Set:

  -Total Gradient:
     Atom            X                  Y                   Z
    ------   -----------------  -----------------  -----------------
       1        0.000263007920    -0.001014261580     0.000446364783
       2       -0.000362108957     0.001338562358    -0.000856840851
       3        0.000128106411    -0.000626486318     0.001426414207
       4       -0.000002834800     0.000008784775     0.000001640327
       5        0.000005634304    -0.000009973082    -0.000003126050
       6       -0.000033253906     0.000298214917    -0.001025497050
       7        0.000005245724     0.000004763489     0.000000252355
       8        0.000001447144     0.000006465094    -0.000001575511
       9        0.000000066639    -0.000006105449     0.000001019214
      10       -0.000008087937     0.000005521894     0.000006856674
      11        0.000004271691    -0.000009843425    -0.000003881070
      12       -0.000001942071     0.000002571733    -0.000000305152
      13        0.000000447838     0.000001785595     0.000008678124

  **** Optimization is complete! (in 11 steps) ****
    Final optimized geometry and variables:
    Molecular point group: c1

    Geometry (in Angstrom), charge = 0, multiplicity = 1:

    H           -1.750681940172    -1.416033473709    -0.455413270987
    N           -1.533568725793    -0.970282839454     0.411547148797
    C           -0.132351215538    -0.580715281696     0.457580149971
    H           -1.744301875247    -1.626981041026     1.132832021355
    C            0.133263235285     0.607020447429    -0.456361937765
    H            0.542312151515    -1.393312741682     0.184704601302
    H            0.104301453995    -0.304685200602     1.479489684912
    C            1.588994477329     1.059510458250    -0.433333537618
    H           -0.147587497602     0.341305667308    -1.472630527580
    H           -0.517857260738     1.422205063587    -0.161394591780
    H            2.255257193213     0.265381274921    -0.754143146096
    H            1.745207493611     1.905916342756    -1.091629987903
    H            1.890547034376     1.359033122330     0.565128130740

  Mulliken Charges: (a.u.)
   Center  Symbol    Alpha    Beta     Spin     Total
       1     H     0.43100  0.43100  0.00000  0.13800
       2     N     3.68937  3.68937  0.00000 -0.37874
       3     C     3.02550  3.02550  0.00000 -0.05100
       4     H     0.42953  0.42953  0.00000  0.14094
       5     C     3.07521  3.07521  0.00000 -0.15042
       6     H     0.46882  0.46882  0.00000  0.06237
       7     H     0.45708  0.45708  0.00000  0.08584
       8     C     3.15322  3.15322  0.00000 -0.30645
       9     H     0.45991  0.45991  0.00000  0.08017
      10     H     0.44996  0.44996  0.00000  0.10007
      11     H     0.45714  0.45714  0.00000  0.08572
      12     H     0.44775  0.44775  0.00000  0.10451
      13     H     0.45550  0.45550  0.00000  0.08899

   Total alpha = 17.00000, Total beta = 17.00000, Total charge = -0.00000

*** Psi4 exiting successfully. Buy a developer a beer!
