  ==> Input File <==

--------------------------------------------------------------------------
set {
	reference rhf
	basis 6-31G*
}

set_num_threads( 4 )
memory 2 gb

molecule MOL {
0 1

O	 1.006984	 -0.821845	 -4.971414
C	 0.497712	 -0.101944	 -4.167164
C	 0.375817	 -0.522231	 -2.712926
C	 -0.019524	 1.268582	 -4.543329
C	 1.710164	 -0.331892	 -1.973716
H	 0.099003	 -1.570745	 -2.695732
H	 -0.407781	 0.042749	 -2.216139
C	 1.631333	 -0.777471	 -0.511575
H	 2.472781	 -0.891986	 -2.502956
H	 2.004917	 0.715620	 -2.013543
C	 2.915987	 -0.544314	 0.291766
H	 1.370159	 -1.833411	 -0.472763
H	 0.817068	 -0.243835	 -0.025720
C	 3.373361	 0.914346	 0.347591
H	 3.708709	 -1.142521	 -0.150311
H	 2.780642	 -0.921148	 1.303579
H	 3.506512	 1.320010	 -0.651625
H	 4.322697	 0.999599	 0.867103
H	 2.660624	 1.545032	 0.868198
H	 -1.100832	 1.292946	 -4.436347
H	 0.245151	 1.496228	 -5.566514
H	 0.384891	 2.027555	 -3.879844

	symmetry c1
}
set optking {
	frozen_dihedral = ("
		12 8 11 15
	")
}

ee = optimize('scf')
oeprop('DIPOLE', 'QUADRUPOLE', 'MULLIKEN_CHARGES')
f=open( 'psi4out.xyz', 'w' )
f.write( "22  " )
f.write( str(ee) + "\n" )
f.write( MOL.save_string_xyz() )
f.close()
--------------------------------------------------------------------------

    Molecular point group: c1
  Charge       = 0
  Multiplicity = 1
  Basis Set: 6-31G*
  Basis Set:
  @DF-RHF Final Energy:  -348.09715977178536
    Total Energy =                       -348.0971597717853001
    Molecular point group: c1
  Basis Set: 6-31G*
  Basis Set:
  Basis Set: 6-31G*
  Basis Set:
  @DF-RHF Final Energy:  -348.09782554957337
    Total Energy =                       -348.0978255495730878
  Basis Set: 6-31G*
  Basis Set:
  Basis Set: 6-31G*
  Basis Set:
  @DF-RHF Final Energy:  -348.09757095643050
    Total Energy =                       -348.0975709564304452
  Basis Set: 6-31G*
  Basis Set:
  Basis Set: 6-31G*
  Basis Set:
  @DF-RHF Final Energy:  -348.09814403545914
    Total Energy =                       -348.0981440354590859
  Basis Set: 6-31G*
  Basis Set:
  Basis Set: 6-31G*
  Basis Set:
  @DF-RHF Final Energy:  -348.09821599107238
    Total Energy =                       -348.0982159910725500
  Basis Set: 6-31G*
  Basis Set:
  Basis Set: 6-31G*
  Basis Set:
  @DF-RHF Final Energy:  -348.09822244121750
    Total Energy =                       -348.0982224412176720
  Basis Set: 6-31G*
  Basis Set:
  Basis Set: 6-31G*
  Basis Set:
  @DF-RHF Final Energy:  -348.09822541589165
    Total Energy =                       -348.0982254158917613
  Basis Set: 6-31G*
  Basis Set:
  Charge       = 0
  Multiplicity = 1
  Basis Set: 6-31G*
  Basis Set:

    Orbital Energies (a.u.)
    -----------------------

    Doubly Occupied:

       1A    -20.547299     2A    -11.324393     3A    -11.229611
       4A    -11.229003     5A    -11.228179     6A    -11.222623
       7A    -11.220760     8A    -11.213100     9A     -1.393049
      10A     -1.095895    11A     -1.044554    12A     -0.999581
      13A     -0.938265    14A     -0.859014    15A     -0.785818
      16A     -0.733095    17A     -0.660908    18A     -0.647341
      19A     -0.626955    20A     -0.617019    21A     -0.598473
      22A     -0.586723    23A     -0.554860    24A     -0.548558
      25A     -0.532475    26A     -0.521471    27A     -0.500584
      28A     -0.486023    29A     -0.468786    30A     -0.465616
      31A     -0.461064    32A     -0.396095

  @DF-RHF Final Energy:  -348.09822585052541

   => Energetics <=

    Nuclear Repulsion Energy =            373.1633157072711811
    One-Electron Energy =               -1211.0486953334411737
    Two-Electron Energy =                 489.7871537756445264
    DFT Exchange-Correlation Energy =       0.0000000000000000
    Empirical Dispersion Energy =           0.0000000000000000
    PCM Polarization Energy =               0.0000000000000000
    EFP Energy =                            0.0000000000000000
    Total Energy =                       -348.0982258505254663
    Molecular point group: c1
  Basis Set: 6-31G*
  Basis Set:

  -Total Gradient:
     Atom            X                  Y                   Z
    ------   -----------------  -----------------  -----------------
       1        0.000023952535     0.000007993333     0.000007464101
       2       -0.000007964956     0.000010541605    -0.000010252467
       3        0.000002396469     0.000001313470    -0.000001907397
       4       -0.000020506922    -0.000016198944    -0.000012189624
       5        0.000000291433    -0.000023890188    -0.000002250871
       6       -0.000010280339     0.000000029487    -0.000001730113
       7        0.000005895075    -0.000000183412     0.000006091251
       8       -0.000552216485     0.000034958691     0.000904863698
       9        0.000004334535     0.000005452857     0.000002979908
      10       -0.000014610684    -0.000002349668    -0.000002784768
      11        0.000358963208     0.000688989717    -0.000708106726
      12        0.000386418541    -0.000132243261    -0.000657235837
      13        0.000001423473     0.000004522630     0.000003421484
      14        0.000007652572     0.000003287924     0.000003913955
      15       -0.000210871510    -0.000589760113     0.000451506160
      16        0.000016029516     0.000003489118     0.000002137204
      17        0.000010411695    -0.000010020148     0.000007832268
      18       -0.000004945540     0.000006615096     0.000009968797
      19       -0.000004088891     0.000001600756    -0.000011317428
      20        0.000002574051     0.000004695195     0.000006849890
      21       -0.000002354714    -0.000000087542    -0.000000270929
      22        0.000007496936     0.000001243398     0.000001017456

  **** Optimization is complete! (in 8 steps) ****
    Final optimized geometry and variables:
    Molecular point group: c1

    Geometry (in Angstrom), charge = 0, multiplicity = 1:

    O           -0.397794008506    -0.714275750167    -2.695861384700
    C           -0.947070359778    -0.016670801363    -1.898439507470
    C           -1.067897219219    -0.440480767219    -0.445162583884
    C           -1.525438860120     1.326819411071    -2.283835670334
    C            0.238527165999    -0.165224829984     0.316781923645
    H           -1.280951811791    -1.503644320302    -0.429056653532
    H           -1.892897076366     0.077477502337     0.035977614117
    C            0.156750191462    -0.601159621850     1.782050623680
    H            1.046015171021    -0.694397690531    -0.180836670143
    H            0.474274255560     0.894075527914     0.256613664131
    C            1.470517403798    -0.463915520745     2.559910699318
    H           -0.154024038985    -1.643026981894     1.813201264605
    H           -0.622173232404    -0.031137372457     2.285726356441
    C            1.996476081991     0.967168448900     2.681622081999
    H            2.227784026570    -1.093892250620     2.098497803847
    H            1.315889478072    -0.864681207888     3.558693825066
    H            2.281678791406     1.379452467857     1.719498563021
    H            2.872965679482     1.000712768117     3.321006238637
    H            1.246831863311     1.623673250297     3.115694587806
    H           -2.608056609615     1.297692731086    -2.192737054908
    H           -1.257512287576     1.566259352850    -3.303460184946
    H           -1.168928941100     2.105586677029    -1.615906611545

  Mulliken Charges: (a.u.)
   Center  Symbol    Alpha    Beta     Spin     Total
       1     O     4.26231  4.26231  0.00000 -0.52462
       2     C     2.73711  2.73711  0.00000  0.52578
       3     C     3.19971  3.19971  0.00000 -0.39942
       4     C     3.28960  3.28960  0.00000 -0.57919
       5     C     3.16398  3.16398  0.00000 -0.32796
       6     H     0.40126  0.40126  0.00000  0.19748
       7     H     0.41690  0.41690  0.00000  0.16619
       8     C     3.15257  3.15257  0.00000 -0.30514
       9     H     0.40664  0.40664  0.00000  0.18672
      10     H     0.41860  0.41860  0.00000  0.16280
      11     C     3.15318  3.15318  0.00000 -0.30635
      12     H     0.41900  0.41900  0.00000  0.16199
      13     H     0.42360  0.42360  0.00000  0.15281
      14     C     3.24242  3.24242  0.00000 -0.48484
      15     H     0.42039  0.42039  0.00000  0.15922
      16     H     0.41959  0.41959  0.00000  0.16082
      17     H     0.41952  0.41952  0.00000  0.16096
      18     H     0.41739  0.41739  0.00000  0.16523
      19     H     0.42252  0.42252  0.00000  0.15497
      20     H     0.40682  0.40682  0.00000  0.18636
      21     H     0.39709  0.39709  0.00000  0.20583
      22     H     0.40981  0.40981  0.00000  0.18037

   Total alpha = 32.00000, Total beta = 32.00000, Total charge = -0.00000
