  ==> Input File <==

--------------------------------------------------------------------------
set {
	reference rhf
	basis 6-31G*
}

set_num_threads( 4 )
memory 2 gb

molecule MOL {
0 1

H	 -0.000158	 1.970498	 0.756846
O	 -0.000074	 1.880206	 -0.189275
C	 -0.000015	 0.544847	 -0.545111
C	 0.417078	 -0.309917	 0.647114
C	 0.861405	 0.338633	 -1.786654
H	 -1.012586	 0.271976	 -0.802684
F	 -0.428447	 -0.128129	 1.638872
F	 0.436138	 -1.593849	 0.358126
F	 1.621212	 0.034791	 1.074707
F	 0.378962	 1.050372	 -2.782752
F	 0.896649	 -0.921294	 -2.165760
F	 2.103927	 0.739004	 -1.568891

	symmetry c1
}
set optking {
	frozen_dihedral = ("
		6 3 2 1
	")
}

ee = optimize('scf')
oeprop('DIPOLE', 'QUADRUPOLE', 'MULLIKEN_CHARGES')
f=open( 'psi4out.xyz', 'w' )
f.write( "12  " )
f.write( str(ee) + "\n" )
f.write( MOL.save_string_xyz() )
f.close()
--------------------------------------------------------------------------

    Molecular point group: c1
  Charge       = 0
  Multiplicity = 1
  Basis Set: 6-31G*
  Basis Set:
  @DF-RHF Final Energy:  -786.27188722429469
    Total Energy =                       -786.2718872242951420
    Molecular point group: c1
  Basis Set: 6-31G*
  Basis Set:
  Basis Set: 6-31G*
  Basis Set:
  @DF-RHF Final Energy:  -786.27357827457013
    Total Energy =                       -786.2735782745702409
  Basis Set: 6-31G*
  Basis Set:
  Basis Set: 6-31G*
  Basis Set:
  @DF-RHF Final Energy:  -786.27395454869213
    Total Energy =                       -786.2739545486919042
  Basis Set: 6-31G*
  Basis Set:
  Basis Set: 6-31G*
  Basis Set:
  @DF-RHF Final Energy:  -786.27405188255227
    Total Energy =                       -786.2740518825520439
  Basis Set: 6-31G*
  Basis Set:
  Basis Set: 6-31G*
  Basis Set:
  @DF-RHF Final Energy:  -786.27406885183211
    Total Energy =                       -786.2740688518315437
  Basis Set: 6-31G*
  Basis Set:
  Basis Set: 6-31G*
  Basis Set:
  @DF-RHF Final Energy:  -786.27407295423779
    Total Energy =                       -786.2740729542381359
  Basis Set: 6-31G*
  Basis Set:
  Charge       = 0
  Multiplicity = 1
  Basis Set: 6-31G*
  Basis Set:

    Orbital Energies (a.u.)
    -----------------------

    Doubly Occupied:

       1A    -26.371268     2A    -26.367777     3A    -26.365986
       4A    -26.355276     5A    -26.351386     6A    -26.351210
       7A    -20.613777     8A    -11.533302     9A    -11.520066
      10A    -11.349249    11A     -1.769739    12A     -1.753597
      13A     -1.666851    14A     -1.664456    15A     -1.650708
      16A     -1.649003    17A     -1.432185    18A     -1.103815
      19A     -0.998116    20A     -0.936224    21A     -0.869903
      22A     -0.861819    23A     -0.856501    24A     -0.841069
      25A     -0.830665    26A     -0.792959    27A     -0.749333
      28A     -0.734901    29A     -0.718395    30A     -0.717192
      31A     -0.707499    32A     -0.689171    33A     -0.685304
      34A     -0.669045    35A     -0.667573    36A     -0.663952
      37A     -0.652253    38A     -0.648338    39A     -0.615242
      40A     -0.546809    41A     -0.502888

  @DF-RHF Final Energy:  -786.27407386932589

   => Energetics <=

    Nuclear Repulsion Energy =            670.7703047002549965
    One-Electron Energy =               -2428.4391561083293709
    Two-Electron Energy =                 971.3947775387490537
    DFT Exchange-Correlation Energy =       0.0000000000000000
    Empirical Dispersion Energy =           0.0000000000000000
    PCM Polarization Energy =               0.0000000000000000
    EFP Energy =                            0.0000000000000000
    Total Energy =                       -786.2740738693252069
    Molecular point group: c1
  Basis Set: 6-31G*
  Basis Set:

  -Total Gradient:
     Atom            X                  Y                   Z
    ------   -----------------  -----------------  -----------------
       1        0.002212117706     0.000003596292     0.000090657313
       2       -0.002677489548     0.000070338797    -0.000672080008
       3        0.000001390672    -0.000505259209     0.002330611270
       4        0.000028689637    -0.000018890501     0.000011412398
       5        0.000079840703     0.000022512750    -0.000018728664
       6        0.000410188341     0.000472392385    -0.001799210132
       7        0.000040853125     0.000003270660     0.000030338021
       8        0.000020647737    -0.000019022105     0.000001910316
       9       -0.000068905588    -0.000013493358     0.000014764001
      10       -0.000036316696     0.000026783626    -0.000030304044
      11       -0.000032539896    -0.000056543718     0.000000817264
      12        0.000021523806     0.000014314371     0.000039812272

  **** Optimization is complete! (in 7 steps) ****
    Final optimized geometry and variables:
    Molecular point group: c1

    Geometry (in Angstrom), charge = 0, multiplicity = 1:

    H           -0.733910554219     1.858882843491     1.242933959587
    O           -0.698116750019     1.724088259361     0.305452907749
    C           -0.672818815647     0.378619157398    -0.019619946803
    C           -0.227623370912    -0.476898609930     1.160315841739
    C            0.228712604933     0.232284051187    -1.239854810563
    H           -1.653404137237     0.026129430487    -0.319200843590
    F           -0.964442955713    -0.150971361786     2.216012136060
    F           -0.401842490176    -1.756933920661     0.923483998724
    F            1.030782270656    -0.279271418490     1.488226191155
    F           -0.276866361218     0.918569444958    -2.243256085218
    F            0.302857442841    -1.034290299095    -1.609831552498
    F            1.448190330983     0.666735722002    -1.018168183903

  Mulliken Charges: (a.u.)
   Center  Symbol    Alpha    Beta     Spin     Total
       1     H     0.26255  0.26255  0.00000  0.47490
       2     O     4.37208  4.37208  0.00000 -0.74417
       3     C     3.02637  3.02637  0.00000 -0.05273
       4     C     2.46095  2.46095  0.00000  1.07811
       5     C     2.43737  2.43737  0.00000  1.12527
       6     H     0.38585  0.38585  0.00000  0.22830
       7     F     4.68540  4.68540  0.00000 -0.37081
       8     F     4.67092  4.67092  0.00000 -0.34184
       9     F     4.67060  4.67060  0.00000 -0.34119
      10     F     4.67655  4.67655  0.00000 -0.35309
      11     F     4.67941  4.67941  0.00000 -0.35881
      12     F     4.67196  4.67196  0.00000 -0.34392

   Total alpha = 41.00000, Total beta = 41.00000, Total charge =  0.00000
