                              Psi4 1.0.54 Driver

  ==> Input File <==

--------------------------------------------------------------------------
set {
	reference rhf
	basis cc-pvtz
}

set_num_threads( 4 )
memory 2 gb

molecule MOL {
0 1

O	 -1.053692	 -2.799724	 -0.808665
C	 -0.775335	 -1.802974	 -1.392137
C	 -0.881910	 -0.448129	 -0.720509
C	 -0.284690	 -1.832089	 -2.820138
C	 0.376695	 -0.140025	 0.100361
H	 -1.744674	 -0.473339	 -0.066969
H	 -1.037893	 0.328215	 -1.462010
C	 1.630207	 -0.772146	 -0.501001
H	 0.486632	 0.935267	 0.162725
H	 0.248225	 -0.501310	 1.117842
C	 2.907848	 -0.545876	 0.309149
H	 1.772784	 -0.391628	 -1.509394
H	 1.468529	 -1.842059	 -0.599744
C	 3.373802	 0.906639	 0.372125
H	 3.699140	 -1.146831	 -0.127906
H	 2.764321	 -0.923458	 1.318191
H	 3.519798	 1.311927	 -0.623875
H	 4.316899	 0.983758	 0.900700
H	 2.661122	 1.540651	 0.885346
H	 -1.032206	 -1.378971	 -3.463490
H	 -0.109777	 -2.850056	 -3.132735
H	 0.623578	 -1.249286	 -2.924927

	symmetry c1
}
set optking {
	frozen_dihedral = ("
		6 3 5 8
	")
}

ee,wfn = optimize('scf', return_wfn=True)
oeprop( wfn, 'DIPOLE', 'QUADRUPOLE', 'MULLIKEN_CHARGES')
f=open( 'psi4out.xyz', 'w' )
f.write( "22  " )
f.write( str(ee) + "\n" )
f.write( MOL.save_string_xyz() )
f.close()
--------------------------------------------------------------------------

    Molecular point group: c1
  Charge       = 0
  Multiplicity = 1
  Basis Set: CC-PVTZ
  Basis Set:
  @DF-RHF Final Energy:  -348.21334729757558
    Total Energy =                       -348.2133472975758650
    Molecular point group: c1
  Basis Set: CC-PVTZ
  Basis Set:
  Basis Set: CC-PVTZ
  Basis Set:
  @DF-RHF Final Energy:  -348.21703067845249
    Total Energy =                       -348.2170306784527156
  Basis Set: CC-PVTZ
  Basis Set:
  Basis Set: CC-PVTZ
  Basis Set:
  @DF-RHF Final Energy:  -348.21662929827261
    Total Energy =                       -348.2166292982730056
  Basis Set: CC-PVTZ
  Basis Set:
  Basis Set: CC-PVTZ
  Basis Set:
  @DF-RHF Final Energy:  -348.21752538318043
    Total Energy =                       -348.2175253831803161
  Basis Set: CC-PVTZ
  Basis Set:
  @DF-RHF Final Energy:  -348.21772567653483
    Total Energy =                       -348.2177256765345419
  @DF-RHF Final Energy:  -348.21778579430793
    Total Energy =                       -348.2177857943075878
  @DF-RHF Final Energy:  -348.21785187054184
    Total Energy =                       -348.2178518705417218
  @DF-RHF Final Energy:  -348.21785869821775
    Total Energy =                       -348.2178586982175830
  @DF-RHF Final Energy:  -348.21789462766083
    Total Energy =                       -348.2178946276602574
  Basis Set: CC-PVTZ
  Basis Set:
  @DF-RHF Final Energy:  -348.21789985395122
    Total Energy =                       -348.2178998539505983
  Basis Set: CC-PVTZ
  Basis Set:
  Basis Set: CC-PVTZ
  Basis Set:
  @DF-RHF Final Energy:  -348.21790242304741
    Total Energy =                       -348.2179024230474624
  Basis Set: CC-PVTZ
  Basis Set:
  Basis Set: CC-PVTZ
  Basis Set:
  @DF-RHF Final Energy:  -348.21790364153929
    Total Energy =                       -348.2179036415390101
  Basis Set: CC-PVTZ
  Basis Set:
  Charge       = 0
  Multiplicity = 1
  Basis Set: CC-PVTZ
  Basis Set:

    Orbital Energies (a.u.)
    -----------------------

    Doubly Occupied:

       1A    -20.535654     2A    -11.319933     3A    -11.228680
       4A    -11.226653     5A    -11.224586     6A    -11.216234
       7A    -11.215473     8A    -11.209027     9A     -1.396965
      10A     -1.092171    11A     -1.042371    12A     -1.000185
      13A     -0.938996    14A     -0.858437    15A     -0.789255
      16A     -0.724916    17A     -0.663553    18A     -0.637199
      19A     -0.628194    20A     -0.620238    21A     -0.602602
      22A     -0.584354    23A     -0.562356    24A     -0.548724
      25A     -0.530705    26A     -0.528288    27A     -0.495033
      28A     -0.485331    29A     -0.466057    30A     -0.463463
      31A     -0.454260    32A     -0.398215

  @DF-RHF Final Energy:  -348.21790381326457

   => Energetics <=

    Nuclear Repulsion Energy =            381.7462069968133846
    One-Electron Energy =               -1228.5520127332601987
    Two-Electron Energy =                 498.5879019231819598
    DFT Exchange-Correlation Energy =       0.0000000000000000
    Empirical Dispersion Energy =           0.0000000000000000
    PCM Polarization Energy =               0.0000000000000000
    EFP Energy =                            0.0000000000000000
    Total Energy =                       -348.2179038132648543
    Molecular point group: c1
  Basis Set: CC-PVTZ
  Basis Set:

  -Total Gradient:
     Atom            X                  Y                   Z
    ------   -----------------  -----------------  -----------------
       1        0.000013117687     0.000086462126    -0.000077835311
       2        0.000031667841    -0.000010433835     0.000019599915
       3       -0.001481547648     0.006054498199    -0.000094216487
       4       -0.000016318682    -0.000006957260     0.000035392132
       5        0.001628509570     0.004357489992    -0.003478628897
       6        0.000828163840    -0.006366626875     0.001021989444
       7       -0.000009929125    -0.000026234569    -0.000017761939
       8       -0.000991704029    -0.004058689251     0.002561955994
       9       -0.000022120051    -0.000000801923     0.000015639629
      10       -0.000011693277    -0.000011793108    -0.000003424440
      11       -0.000001052602    -0.000003033900    -0.000006669941
      12        0.000007182776     0.000004433147     0.000001201057
      13        0.000002763973    -0.000001530329    -0.000006395112
      14        0.000001080978    -0.000004186193     0.000001776802
      15        0.000000532398     0.000000859813     0.000003028736
      16       -0.000002261284     0.000002227249    -0.000002786298
      17       -0.000002531150    -0.000002149255     0.000001404063
      18        0.000003114757     0.000003668825     0.000000007569
      19        0.000003426667     0.000000327290     0.000000823560
      20        0.000020025504    -0.000005526320     0.000013929282
      21        0.000003179074    -0.000005382916    -0.000004775135
      22       -0.000003607222    -0.000006620911     0.000015745375

  **** Optimization is complete! (in 13 steps) ****
    Final optimized geometry and variables:
    Molecular point group: c1

    Geometry (in Angstrom), charge = 0, multiplicity = 1:

    O           -1.480116329585    -1.910408933898    -0.161096493256
    C           -1.426265854892    -0.931561429683    -0.832631784393
    C           -1.474468451025     0.450519815313    -0.198424884511
    C           -1.337690519951    -1.009548537006    -2.336693067531
    C           -0.280990174944     0.756797646133     0.732574581666
    H           -2.381151879540     0.427507067866     0.395065699742
    H           -1.572286754666     1.210111537792    -0.963473034847
    C            1.063058049030     0.161246391693     0.309724260170
    H           -0.207754826739     1.832507608780     0.830217489220
    H           -0.513802036387     0.372963476757     1.719424427320
    C            2.217193054075     0.507360660410     1.253108044378
    H            1.319257664292     0.494973015129    -0.694918921507
    H            0.970364361912    -0.916234743530     0.266382441280
    C            2.630847728082     1.977035314425     1.251399297448
    H            3.076059243399    -0.094532180367     0.973717041309
    H            1.953881018344     0.206202085625     2.263359989335
    H            2.897661740228     2.305154373766     0.251743308721
    H            3.493060998578     2.133199569811     1.889432123386
    H            1.840597560501     2.624363144043     1.612081623608
    H           -2.200302534191    -0.521688413228    -2.778861447672
    H           -1.297667742061    -2.040016847210    -2.654868430759
    H           -0.457937519347    -0.479002331939    -2.684578498153

  Mulliken Charges: (a.u.)
   Center  Symbol    Alpha    Beta     Spin     Total
       1     O     4.18239  4.18239  0.00000 -0.36478
       2     C     2.85021  2.85021  0.00000  0.29959
       3     C     3.11272  3.11272  0.00000 -0.22544
       4     C     3.15403  3.15403  0.00000 -0.30805
       5     C     3.08687  3.08687  0.00000 -0.17374
       6     H     0.43782  0.43782  0.00000  0.12435
       7     H     0.44521  0.44521  0.00000  0.10957
       8     C     3.11325  3.11325  0.00000 -0.22650
       9     H     0.44652  0.44652  0.00000  0.10695
      10     H     0.44745  0.44745  0.00000  0.10511
      11     C     3.09178  3.09178  0.00000 -0.18355
      12     H     0.45523  0.45523  0.00000  0.08954
      13     H     0.43422  0.43422  0.00000  0.13157
      14     C     3.15177  3.15177  0.00000 -0.30355
      15     H     0.44700  0.44700  0.00000  0.10600
      16     H     0.45223  0.45223  0.00000  0.09554
      17     H     0.45560  0.45560  0.00000  0.08881
      18     H     0.44561  0.44561  0.00000  0.10878
      19     H     0.45456  0.45456  0.00000  0.09088
      20     H     0.44858  0.44858  0.00000  0.10284
      21     H     0.43688  0.43688  0.00000  0.12623
      22     H     0.45007  0.45007  0.00000  0.09986

   Total alpha = 32.00000, Total beta = 32.00000, Total charge = -0.00000

*** Psi4 exiting successfully. Buy a developer a beer!
