  ==> Input File <==

--------------------------------------------------------------------------
set {
	reference rhf
	basis cc-pvtz
}

set_num_threads( 4 )
memory 2 gb

molecule MOL {
0 1

H	 -2.461661	 0.063187	 2.082865
C	 -2.344904	 -0.590723	 1.221672
O	 -1.065690	 -0.505992	 0.688780
H	 -2.505144	 -1.611644	 1.536205
H	 -3.102994	 -0.328740	 0.485772
C	 -0.718530	 0.758693	 0.228682
C	 0.718529	 0.758687	 -0.228709
H	 -1.355404	 1.043552	 -0.608705
H	 -0.844001	 1.501636	 1.013362
O	 1.401606	 -0.295166	 0.366636
H	 0.748705	 0.673477	 -1.312803
H	 1.176496	 1.708671	 0.046552
C	 2.714315	 -0.441627	 -0.061017
H	 2.765292	 -0.641548	 -1.128869
H	 3.305661	 0.447341	 0.150952
H	 3.143725	 -1.278506	 0.470147

	symmetry c1
}
set optking {
	frozen_dihedral = ("
		3 6 7 11
	")
}

ee = optimize('scf')
oeprop('DIPOLE', 'QUADRUPOLE', 'MULLIKEN_CHARGES')
f=open( 'psi4out.xyz', 'w' )
f.write( "16  " )
f.write( str(ee) + "\n" )
f.write( MOL.save_string_xyz() )
f.close()
--------------------------------------------------------------------------

    Molecular point group: c1
  Charge       = 0
  Multiplicity = 1
  Basis Set: CC-PVTZ
  Basis Set:
  @DF-RHF Final Energy:  -307.08605801042205
    Total Energy =                       -307.0860580104218798
    Molecular point group: c1
  Basis Set: CC-PVTZ
  Basis Set:
  Basis Set: CC-PVTZ
  Basis Set:
  @DF-RHF Final Energy:  -307.08721393351635
    Total Energy =                       -307.0872139335163524
  Basis Set: CC-PVTZ
  Basis Set:
  Basis Set: CC-PVTZ
  Basis Set:
  @DF-RHF Final Energy:  -307.08784868936851
    Total Energy =                       -307.0878486893684567
  Basis Set: CC-PVTZ
  Basis Set:
  Basis Set: CC-PVTZ
  Basis Set:
  @DF-RHF Final Energy:  -307.08787395007408
    Total Energy =                       -307.0878739500741403
  Basis Set: CC-PVTZ
  Basis Set:
  Basis Set: CC-PVTZ
  Basis Set:
  @DF-RHF Final Energy:  -307.08787505528602
    Total Energy =                       -307.0878750552862471
  Basis Set: CC-PVTZ
  Basis Set:
  Charge       = 0
  Multiplicity = 1
  Basis Set: CC-PVTZ
  Basis Set:

    Orbital Energies (a.u.)
    -----------------------

    Doubly Occupied:

       1A    -20.547601     2A    -20.545805     3A    -11.269651
       4A    -11.269040     5A    -11.261349     6A    -11.260531
       7A     -1.393565     8A     -1.373282     9A     -1.026987
      10A     -0.935542    11A     -0.897794    12A     -0.819589
      13A     -0.688888    14A     -0.676833    15A     -0.661068
      16A     -0.646343    17A     -0.621817    18A     -0.594140
      19A     -0.571586    20A     -0.518145    21A     -0.508841
      22A     -0.472942    23A     -0.469741    24A     -0.424817
      25A     -0.403586

  @DF-RHF Final Energy:  -307.08787440617914

   => Energetics <=

    Nuclear Repulsion Energy =            259.8803480953998815
    One-Electron Energy =                -934.2174743711367455
    Two-Electron Energy =                 367.2492518695577814
    DFT Exchange-Correlation Energy =       0.0000000000000000
    Empirical Dispersion Energy =           0.0000000000000000
    PCM Polarization Energy =               0.0000000000000000
    EFP Energy =                            0.0000000000000000
    Total Energy =                       -307.0878744061790826
    Molecular point group: c1
  Basis Set: CC-PVTZ
  Basis Set:

  -Total Gradient:
     Atom            X                  Y                   Z
    ------   -----------------  -----------------  -----------------
       1       -0.000001252755     0.000002574729     0.000000598666
       2       -0.000019819441    -0.000012904632     0.000005192263
       3        0.002189508188     0.001456473128     0.005730630782
       4       -0.000007397422     0.000001128465     0.000007355493
       5        0.000006162210    -0.000000951528     0.000007093802
       6       -0.002791356929     0.000295020308    -0.007840907650
       7        0.000636467555    -0.009947949723     0.002584916101
       8       -0.000102400852    -0.000120828388     0.000042181713
       9        0.000062648297     0.000112453003    -0.000068051409
      10        0.000045089292     0.000020581828    -0.000078562010
      11        0.000110932541     0.008162732389    -0.000470419014
      12       -0.000144185641     0.000045227535     0.000072767285
      13       -0.000000076428    -0.000011488277     0.000009559403
      14        0.000003703862    -0.000000953094     0.000001267479
      15        0.000001830143     0.000000354626    -0.000000360623
      16        0.000010147383    -0.000001470370    -0.000003262281

  **** Optimization is complete! (in 6 steps) ****
    Final optimized geometry and variables:
    Molecular point group: c1

    Geometry (in Angstrom), charge = 0, multiplicity = 1:

    H           -2.656524610063     0.204886445139     1.684521713407
    C           -2.537748664532    -0.476807970575     0.844444123304
    O           -1.240781071988    -0.454472896278     0.351547139236
    H           -2.745006885694    -1.482051852667     1.180949652348
    H           -3.263520361771    -0.207089155112     0.079429928003
    C           -0.832762033990     0.790128900426    -0.101421841566
    C            0.605360423096     0.748510803400    -0.624186449364
    H           -1.486226859799     1.152695759484    -0.893405855199
    H           -0.894846491303     1.504804685671     0.718220744448
    O            1.337137566500    -0.266969452860    -0.039734731213
    H            0.613405429880     0.688056557423    -1.711927800904
    H            1.058109270733     1.715135136497    -0.396048630435
    C            2.662360626046    -0.315310131722    -0.450344157586
    H            2.741675061558    -0.474792676073    -1.523695331507
    H            3.192971131793     0.601268270345    -0.199457430288
    H            3.134615568186    -1.141804370152     0.059936653638

  Mulliken Charges: (a.u.)
   Center  Symbol    Alpha    Beta     Spin     Total
       1     H     0.47287  0.47287  0.00000  0.05427
       2     C     3.03132  3.03132  0.00000 -0.06264
       3     O     4.15896  4.15896  0.00000 -0.31792
       4     H     0.44562  0.44562  0.00000  0.10877
       5     H     0.47329  0.47329  0.00000  0.05343
       6     C     2.96485  2.96485  0.00000  0.07031
       7     C     2.96309  2.96309  0.00000  0.07383
       8     H     0.47642  0.47642  0.00000  0.04715
       9     H     0.47696  0.47696  0.00000  0.04609
      10     O     4.15759  4.15759  0.00000 -0.31517
      11     H     0.47641  0.47641  0.00000  0.04719
      12     H     0.48038  0.48038  0.00000  0.03923
      13     C     3.03205  3.03205  0.00000 -0.06409
      14     H     0.47175  0.47175  0.00000  0.05649
      15     H     0.47298  0.47298  0.00000  0.05404
      16     H     0.44548  0.44548  0.00000  0.10904

   Total alpha = 25.00000, Total beta = 25.00000, Total charge = -0.00000
