  ==> Input File <==

--------------------------------------------------------------------------
set {
	reference rhf
	basis 6-31G*
}

set_num_threads( 4 )
memory 2 gb

molecule MOL {
0 1

O	 0.002606	 0.484628	 -1.892935
C	 0.155721	 -0.289814	 -1.003813
C	 1.322985	 -1.237545	 -0.863932
O	 -0.698257	 -0.426125	 0.001050
C	 2.331119	 -1.115496	 -1.999597
H	 0.919008	 -2.243535	 -0.800414
H	 1.786353	 -1.042713	 0.098667
H	 1.868408	 -1.326850	 -2.955940
H	 3.146890	 -1.815232	 -1.852277
H	 2.743875	 -0.115216	 -2.048558
C	 -1.853104	 0.406779	 0.000512
C	 -3.066105	 -0.499277	 -0.000959
H	 -1.828410	 1.043074	 -0.873618
H	 -1.829857	 1.042383	 0.875188
H	 -3.071820	 -1.133106	 -0.880383
H	 -3.972708	 0.097145	 -0.001528
H	 -3.073405	 -1.133813	 0.877999

	symmetry c1
}
set optking {
	frozen_dihedral = ("
		2 4 11 13
	")
}

ee = optimize('scf')
oeprop('DIPOLE', 'QUADRUPOLE', 'MULLIKEN_CHARGES')
f=open( 'psi4out.xyz', 'w' )
f.write( "17  " )
f.write( str(ee) + "\n" )
f.write( MOL.save_string_xyz() )
f.close()
--------------------------------------------------------------------------

    Molecular point group: c1
  Charge       = 0
  Multiplicity = 1
  Basis Set: 6-31G*
  Basis Set:
  @DF-RHF Final Energy:  -344.90900437154738
    Total Energy =                       -344.9090043715473826
    Molecular point group: c1
  Basis Set: 6-31G*
  Basis Set:
  Basis Set: 6-31G*
  Basis Set:
  @DF-RHF Final Energy:  -344.90942623714921
    Total Energy =                       -344.9094262371492050
  Basis Set: 6-31G*
  Basis Set:
  Basis Set: 6-31G*
  Basis Set:
  @DF-RHF Final Energy:  -344.90985063084685
    Total Energy =                       -344.9098506308471883
  Basis Set: 6-31G*
  Basis Set:
  Basis Set: 6-31G*
  Basis Set:
  @DF-RHF Final Energy:  -344.90979512491907
    Total Energy =                       -344.9097951249185598
  Basis Set: 6-31G*
  Basis Set:
  Basis Set: 6-31G*
  Basis Set:
  @DF-RHF Final Energy:  -344.90997421845668
    Total Energy =                       -344.9099742184562842
  Basis Set: 6-31G*
  Basis Set:
  Charge       = 0
  Multiplicity = 1
  Basis Set: 6-31G*
  Basis Set:

    Orbital Energies (a.u.)
    -----------------------

    Doubly Occupied:

       1A    -20.599979     2A    -20.543900     3A    -11.373023
       4A    -11.283235     5A    -11.237028     6A    -11.221747
       7A    -11.215339     8A     -1.464978     9A     -1.362554
      10A     -1.069413    11A     -1.030496    12A     -0.913240
      13A     -0.850264    14A     -0.767697    15A     -0.701482
      16A     -0.681618    17A     -0.660385    18A     -0.626656
      19A     -0.596881    20A     -0.568417    21A     -0.554798
      22A     -0.530429    23A     -0.520254    24A     -0.514487
      25A     -0.496164    26A     -0.494487    27A     -0.447452
      28A     -0.436621

  @DF-RHF Final Energy:  -344.90997667445959

   => Energetics <=

    Nuclear Repulsion Energy =            315.4291735108864714
    One-Electron Energy =               -1095.1522540227151694
    Two-Electron Energy =                 434.8131038373689989
    DFT Exchange-Correlation Energy =       0.0000000000000000
    Empirical Dispersion Energy =           0.0000000000000000
    PCM Polarization Energy =               0.0000000000000000
    EFP Energy =                            0.0000000000000000
    Total Energy =                       -344.9099766744596991
    Molecular point group: c1
  Basis Set: 6-31G*
  Basis Set:

  -Total Gradient:
     Atom            X                  Y                   Z
    ------   -----------------  -----------------  -----------------
       1       -0.000041514392     0.000000422864     0.000017000789
       2        0.000051658664     0.000115223899     0.000066567285
       3        0.000019234568    -0.000006368572     0.000007156821
       4       -0.000146226451    -0.000066040737    -0.000027384482
       5        0.000002857795    -0.000013754246     0.000001691713
       6       -0.000001750813     0.000007142333    -0.000010658107
       7        0.000002227571    -0.000007399857    -0.000003575735
       8       -0.000002943364     0.000000994117     0.000005598680
       9        0.000007311186    -0.000000304221    -0.000004712310
      10        0.000001182684     0.000001173106     0.000000680486
      11        0.000165122449     0.000059373421     0.000002112645
      12       -0.000039332983    -0.000004129201     0.000033062176
      13       -0.000041400600    -0.000051658827    -0.000086883730
      14        0.000061517436    -0.000027665904    -0.000009186118
      15        0.000009989440     0.000012312629     0.000005336705
      16       -0.000034528516    -0.000004360900     0.000004812723
      17       -0.000013404671    -0.000014959906    -0.000001619544

  **** Optimization is complete! (in 6 steps) ****
    Final optimized geometry and variables:
    Molecular point group: c1

    Geometry (in Angstrom), charge = 0, multiplicity = 1:

    O            0.310823728380     0.864442898057    -1.098857048366
    C            0.435457728810     0.098122062843    -0.198721925536
    C            1.594500963428    -0.855225596684    -0.027817968101
    O           -0.432946181183    -0.034541633509     0.796177964757
    C            2.624711445148    -0.751732658210    -1.145326782648
    H            1.182982223489    -1.857845389804     0.039162542560
    H            2.040685418731    -0.652667627823     0.941218716123
    H            2.179114707975    -0.971151939772    -2.107949782779
    H            3.433245903180    -1.454607149082    -0.974656375952
    H            3.044447728715     0.245461275390    -1.197480468087
    C           -1.606768848388     0.773843257608     0.827954656561
    C           -2.827538584514    -0.125043571868     0.862712998880
    H           -1.616478093907     1.425803149352    -0.029617960209
    H           -1.541387149084     1.375270476862     1.725282567922
    H           -2.893375190419    -0.717128255605    -0.043522445418
    H           -3.728436065292     0.475129153138     0.944603743698
    H           -2.786448505903    -0.799091663187     1.710787524814

  Mulliken Charges: (a.u.)
   Center  Symbol    Alpha    Beta     Spin     Total
       1     O     4.28582  4.28582  0.00000 -0.57163
       2     C     2.60583  2.60583  0.00000  0.78834
       3     C     3.20573  3.20573  0.00000 -0.41145
       4     O     4.31458  4.31458  0.00000 -0.62915
       5     C     3.23875  3.23875  0.00000 -0.47750
       6     H     0.40093  0.40093  0.00000  0.19814
       7     H     0.40062  0.40062  0.00000  0.19876
       8     H     0.41021  0.41021  0.00000  0.17958
       9     H     0.41838  0.41838  0.00000  0.16323
      10     H     0.40997  0.40997  0.00000  0.18005
      11     C     3.01222  3.01222  0.00000 -0.02444
      12     C     3.24705  3.24705  0.00000 -0.49409
      13     H     0.39349  0.39349  0.00000  0.21303
      14     H     0.41391  0.41391  0.00000  0.17219
      15     H     0.41293  0.41293  0.00000  0.17414
      16     H     0.41747  0.41747  0.00000  0.16507
      17     H     0.41212  0.41212  0.00000  0.17576

   Total alpha = 28.00000, Total beta = 28.00000, Total charge =  0.00000
