  ==> Input File <==

--------------------------------------------------------------------------
set {
	reference rhf
	basis cc-pvtz
}

set_num_threads( 4 )
memory 2 gb

molecule MOL {
0 1

H	 2.370588	 -0.769384	 0.517105
C	 1.637603	 0.012495	 0.623077
O	 0.462329	 -0.453336	 -0.000137
H	 2.003922	 0.910875	 0.142513
H	 1.471228	 0.203699	 1.675692
C	 -0.590565	 0.341382	 0.000062
O	 -1.693898	 -0.053880	 0.000252
H	 -0.340426	 1.403822	 0.000200

	symmetry c1
}
set optking {
	frozen_dihedral = ("
		2 3 6 7
	")
}

ee = optimize('scf')
oeprop('DIPOLE', 'QUADRUPOLE', 'MULLIKEN_CHARGES')
f=open( 'psi4out.xyz', 'w' )
f.write( "8  " )
f.write( str(ee) + "\n" )
f.write( MOL.save_string_xyz() )
f.close()
--------------------------------------------------------------------------

    Molecular point group: c1
  Charge       = 0
  Multiplicity = 1
  Basis Set: CC-PVTZ
  Basis Set:
  @DF-RHF Final Energy:  -227.86756962543654
    Total Energy =                       -227.8675696254364880
    Molecular point group: c1
  Basis Set: CC-PVTZ
  Basis Set:
  Basis Set: CC-PVTZ
  Basis Set:
  @DF-RHF Final Energy:  -227.86759320537192
    Total Energy =                       -227.8675932053719180
  Basis Set: CC-PVTZ
  Basis Set:
  Basis Set: CC-PVTZ
  Basis Set:
  @DF-RHF Final Energy:  -227.86773147238310
    Total Energy =                       -227.8677314723830136
  Basis Set: CC-PVTZ
  Basis Set:
  Basis Set: CC-PVTZ
  Basis Set:
  @DF-RHF Final Energy:  -227.86785201007675
    Total Energy =                       -227.8678520100767173
  Basis Set: CC-PVTZ
  Basis Set:
  Basis Set: CC-PVTZ
  Basis Set:
  @DF-RHF Final Energy:  -227.86785595834044
    Total Energy =                       -227.8678559583405558
  Basis Set: CC-PVTZ
  Basis Set:
  Charge       = 0
  Multiplicity = 1
  Basis Set: CC-PVTZ
  Basis Set:

    Orbital Energies (a.u.)
    -----------------------

    Doubly Occupied:

       1A    -20.606755     2A    -20.550419     3A    -11.374932
       4A    -11.301859     5A     -1.478792     6A     -1.387189
       7A     -0.992892     8A     -0.848441     9A     -0.740725
      10A     -0.688423    11A     -0.684332    12A     -0.612606
      13A     -0.572541    14A     -0.536335    15A     -0.468828
      16A     -0.458107

  @DF-RHF Final Energy:  -227.86785641145815

   => Energetics <=

    Nuclear Repulsion Energy =            121.5540845365000990
    One-Electron Energy =                -552.2375270726663530
    Two-Electron Energy =                 202.8155861247081191
    DFT Exchange-Correlation Energy =       0.0000000000000000
    Empirical Dispersion Energy =           0.0000000000000000
    PCM Polarization Energy =               0.0000000000000000
    EFP Energy =                            0.0000000000000000
    Total Energy =                       -227.8678564114581206
    Molecular point group: c1
  Basis Set: CC-PVTZ
  Basis Set:

  -Total Gradient:
     Atom            X                  Y                   Z
    ------   -----------------  -----------------  -----------------
       1        0.000023349411     0.000010367912     0.000001755362
       2       -0.001117801245    -0.000929676270     0.003411512585
       3        0.001837708027     0.001744263175    -0.002793616372
       4       -0.000009252182    -0.000016120993     0.000000689363
       5       -0.000031964222    -0.000003606196    -0.000010890551
       6       -0.000769979670    -0.001550855520    -0.005296478952
       7        0.000055196211     0.000781988566     0.004687316654
       8        0.000012743668    -0.000036360674    -0.000000288088

  **** Optimization is complete! (in 6 steps) ****
    Final optimized geometry and variables:
    Molecular point group: c1

    Geometry (in Angstrom), charge = 0, multiplicity = 1:

    H            2.442874890324    -0.671155390951     0.214031157574
    C            1.666234252862     0.036001152906     0.453636961108
    O            0.469410176777    -0.464965542420    -0.093619592681
    H            1.921018133875     1.000294210521     0.028740236487
    H            1.579450148922     0.126067290821     1.528340352811
    C           -0.546628347816     0.372331725431    -0.223197245029
    O           -1.668767460562     0.041250676535    -0.166803727945
    H           -0.239628431961     1.407506665217    -0.381810885261

  Mulliken Charges: (a.u.)
   Center  Symbol    Alpha    Beta     Spin     Total
       1     H     0.44186  0.44186  0.00000  0.11628
       2     C     3.02882  3.02882  0.00000 -0.05764
       3     O     4.12628  4.12628  0.00000 -0.25257
       4     H     0.46474  0.46474  0.00000  0.07051
       5     H     0.45574  0.45574  0.00000  0.08851
       6     C     2.83494  2.83494  0.00000  0.33012
       7     O     4.17067  4.17067  0.00000 -0.34134
       8     H     0.47694  0.47694  0.00000  0.04611

   Total alpha = 16.00000, Total beta = 16.00000, Total charge = -0.00000
