  ==> Input File <==

--------------------------------------------------------------------------
set {
	reference rhf
	basis 6-31G*
}

set_num_threads( 1 )
memory 2 gb

molecule MOL {
0 1

O	 0.989559	 0.273198	 0.937964
C	 1.705091	 0.115954	 0.001797
C	 1.596730	 0.840016	 -1.317998
O	 2.721346	 -0.737485	 -0.000216
C	 0.443334	 1.837351	 -1.369423
H	 2.549516	 1.330235	 -1.498547
H	 1.500522	 0.086360	 -2.094829
C	 0.357618	 2.556636	 -2.716399
H	 0.561959	 2.562704	 -0.570687
H	 -0.488201	 1.317476	 -1.168722
C	 -0.793515	 3.561635	 -2.785175
H	 1.295958	 3.073025	 -2.913516
H	 0.241126	 1.823790	 -3.513423
C	 -0.879396	 4.279118	 -4.131687
H	 -0.677214	 4.295935	 -1.991187
H	 -1.731643	 3.047143	 -2.589342
H	 0.032165	 4.831969	 -4.340559
H	 -1.704694	 4.984116	 -4.149350
H	 -1.030197	 3.573139	 -4.943575
C	 4.024888	 -0.184556	 -0.001949
H	 4.179030	 0.422472	 -0.882452
H	 4.701782	 -1.024608	 -0.003642
H	 4.181981	 0.421185	 0.878906

	symmetry c1
}
set optking {
	frozen_dihedral = ("
		15 11 8 12,
		9 5 8 12,
		1 2 3 6,
		9 5 3 6
	")
}

ee = energy('scf')
oeprop('DIPOLE', 'QUADRUPOLE', 'MULLIKEN_CHARGES')
f=open( 'psi4out.xyz', 'w' )
f.write( "23  " )
f.write( str(ee) + "\n" )
f.write( MOL.save_string_xyz() )
f.close()
--------------------------------------------------------------------------

    Molecular point group: c1

    Geometry (in Angstrom), charge = 0, multiplicity = 1:

       Center              X                  Y                   Z               Mass
    ------------   -----------------  -----------------  -----------------  -----------------
           O         -0.167488897061    -1.107539853293     2.189812939549    15.994914619560
           C          0.548043102939    -1.264783853293     1.253645939549    12.000000000000
           C          0.439682102939    -0.540721853293    -0.066149060451    12.000000000000
           O          1.564298102939    -2.118222853293     1.251632939549    15.994914619560
           C         -0.713713897061     0.456613146707    -0.117574060451    12.000000000000
           H          1.392468102939    -0.050502853293    -0.246698060451     1.007825032070
           H          0.343474102939    -1.294377853293    -0.842980060451     1.007825032070
           C         -0.799429897061     1.175898146707    -1.464550060451    12.000000000000
           H         -0.595088897061     1.181966146707     0.681161939549     1.007825032070
           H         -1.645248897061    -0.063261853293     0.083126939549     1.007825032070
           C         -1.950562897061     2.180897146707    -1.533326060451    12.000000000000
           H          0.138910102939     1.692287146707    -1.661667060451     1.007825032070
           H         -0.915921897061     0.443052146707    -2.261574060451     1.007825032070
           C         -2.036443897061     2.898380146707    -2.879838060451    12.000000000000
           H         -1.834261897061     2.915197146707    -0.739338060451     1.007825032070
           H         -2.888690897061     1.666405146707    -1.337493060451     1.007825032070
           H         -1.124882897061     3.451231146707    -3.088710060451     1.007825032070
           H         -2.861741897061     3.603378146707    -2.897501060451     1.007825032070
           H         -2.187244897061     2.192401146707    -3.691726060451     1.007825032070
           C          2.867840102939    -1.565293853293     1.249899939549    12.000000000000
           H          3.021982102939    -0.958265853293     0.369396939549     1.007825032070
           H          3.544734102939    -2.405345853293     1.248206939549     1.007825032070
           H          3.024933102939    -0.959552853293     2.130754939549     1.007825032070

  Charge       = 0
  Multiplicity = 1
  Basis Set: 6-31G*
  Basis Set:

    Orbital Energies (a.u.)
    -----------------------

    Doubly Occupied:

       1A    -20.590165     2A    -20.554252     3A    -11.373935
       4A    -11.296983     5A    -11.237958     6A    -11.221192
       7A    -11.219955     8A    -11.218096     9A    -11.211212
      10A     -1.464375    11A     -1.368744    12A     -1.094520
      13A     -1.041311    14A     -0.986786    15A     -0.948479
      16A     -0.852608    17A     -0.797663    18A     -0.768024
      19A     -0.696116    20A     -0.682279    21A     -0.679254
      22A     -0.651961    23A     -0.622755    24A     -0.604755
      25A     -0.580301    26A     -0.567441    27A     -0.559023
      28A     -0.541244    29A     -0.510434    30A     -0.497115
      31A     -0.483589    32A     -0.479700    33A     -0.470302
      34A     -0.467520    35A     -0.451832    36A     -0.429740

  @DF-RHF Final Energy:  -422.95189737983588

   => Energetics <=

    Nuclear Repulsion Energy =            455.4998032361480114
    One-Electron Energy =               -1478.4600291213535002
    Two-Electron Energy =                 600.0083285053686950
    DFT Exchange-Correlation Energy =       0.0000000000000000
    Empirical Dispersion Energy =           0.0000000000000000
    PCM Polarization Energy =               0.0000000000000000
    EFP Energy =                            0.0000000000000000
    Total Energy =                       -422.9518973798368506

  Mulliken Charges: (a.u.)
   Center  Symbol    Alpha    Beta     Spin     Total
       1     O     4.25837  4.25837  0.00000 -0.51673
       2     C     2.61122  2.61122  0.00000  0.77757
       3     C     3.22011  3.22011  0.00000 -0.44023
       4     O     4.30732  4.30732  0.00000 -0.61464
       5     C     3.15175  3.15175  0.00000 -0.30351
       6     H     0.40801  0.40801  0.00000  0.18398
       7     H     0.39865  0.39865  0.00000  0.20271
       8     C     3.15298  3.15298  0.00000 -0.30596
       9     H     0.41262  0.41262  0.00000  0.17477
      10     H     0.41000  0.41000  0.00000  0.18001
      11     C     3.15165  3.15165  0.00000 -0.30331
      12     H     0.42564  0.42564  0.00000  0.14871
      13     H     0.42388  0.42388  0.00000  0.15224
      14     C     3.23960  3.23960  0.00000 -0.47921
      15     H     0.42141  0.42141  0.00000  0.15717
      16     H     0.42070  0.42070  0.00000  0.15861
      17     H     0.42222  0.42222  0.00000  0.15556
      18     H     0.41812  0.41812  0.00000  0.16376
      19     H     0.42168  0.42168  0.00000  0.15664
      20     C     3.09556  3.09556  0.00000 -0.19113
      21     H     0.41936  0.41936  0.00000  0.16128
      22     H     0.39928  0.39928  0.00000  0.20144
      23     H     0.40987  0.40987  0.00000  0.18026

   Total alpha = 36.00000, Total beta = 36.00000, Total charge = -0.00000
