  ==> Input File <==

--------------------------------------------------------------------------
set {
	reference rhf
	basis cc-pvtz
}

set_num_threads( 4 )
memory 2 gb

molecule MOL {
0 1

H	 -2.613114	 -0.044862	 -0.644133
O	 -2.041679	 -0.058866	 0.103463
C	 -0.959304	 0.780994	 -0.094939
C	 0.354905	 0.037902	 -0.006215
H	 -0.985899	 1.279578	 -1.057596
H	 -0.969809	 1.529522	 0.682889
F	 0.412060	 -0.931028	 -0.902708
F	 1.359641	 0.856111	 -0.239961
F	 0.545380	 -0.506387	 1.171682

	symmetry c1
}
set optking {
	frozen_dihedral = ("
		1 2 3 5
	")
}

ee = optimize('scf')
oeprop('DIPOLE', 'QUADRUPOLE', 'MULLIKEN_CHARGES')
f=open( 'psi4out.xyz', 'w' )
f.write( "9  " )
f.write( str(ee) + "\n" )
f.write( MOL.save_string_xyz() )
f.close()
--------------------------------------------------------------------------

    Molecular point group: c1
  Charge       = 0
  Multiplicity = 1
  Basis Set: CC-PVTZ
  Basis Set:
  @DF-RHF Final Energy:  -450.84424158647744
    Total Energy =                       -450.8442415864775512
    Molecular point group: c1
  Basis Set: CC-PVTZ
  Basis Set:
  Basis Set: CC-PVTZ
  Basis Set:
  @DF-RHF Final Energy:  -450.84476652761703
    Total Energy =                       -450.8447665276170824
  Basis Set: CC-PVTZ
  Basis Set:
  Basis Set: CC-PVTZ
  Basis Set:
  @DF-RHF Final Energy:  -450.84489212315140
    Total Energy =                       -450.8448921231512259
  Basis Set: CC-PVTZ
  Basis Set:
  Basis Set: CC-PVTZ
  Basis Set:
  @DF-RHF Final Energy:  -450.84489857205415
    Total Energy =                       -450.8448985720539213
  Basis Set: CC-PVTZ
  Basis Set:
  Charge       = 0
  Multiplicity = 1
  Basis Set: CC-PVTZ
  Basis Set:

    Orbital Energies (a.u.)
    -----------------------

    Doubly Occupied:

       1A    -26.334250     2A    -26.331871     3A    -26.330515
       4A    -20.582692     5A    -11.489177     6A    -11.310408
       7A     -1.742244     8A     -1.638753     9A     -1.637327
      10A     -1.406048    11A     -1.050061    12A     -0.924859
      13A     -0.833134    14A     -0.831630    15A     -0.794390
      16A     -0.742025    17A     -0.713620    18A     -0.703985
      19A     -0.669464    20A     -0.658947    21A     -0.643273
      22A     -0.637971    23A     -0.602221    24A     -0.535746
      25A     -0.483061

  @DF-RHF Final Energy:  -450.84489916080281

   => Energetics <=

    Nuclear Repulsion Energy =            277.5259940067373918
    One-Electron Energy =               -1177.4864389539957301
    Two-Electron Energy =                 449.1155457864555274
    DFT Exchange-Correlation Energy =       0.0000000000000000
    Empirical Dispersion Energy =           0.0000000000000000
    PCM Polarization Energy =               0.0000000000000000
    EFP Energy =                            0.0000000000000000
    Total Energy =                       -450.8448991608028109
    Molecular point group: c1
  Basis Set: CC-PVTZ
  Basis Set:

  -Total Gradient:
     Atom            X                  Y                   Z
    ------   -----------------  -----------------  -----------------
       1       -0.000747973732     0.001039840482     0.000512256465
       2        0.001116498416    -0.001548062915    -0.000817210358
       3       -0.001009239731     0.001391814838     0.000749611119
       4        0.000078808877     0.000176579530     0.000119802606
       5        0.000617883860    -0.000924156719    -0.000453366077
       6        0.000004318410    -0.000012386626    -0.000014026779
       7        0.000002867064    -0.000009454995    -0.000010339056
       8       -0.000045882947    -0.000089981370    -0.000042853100
       9       -0.000017280215    -0.000024192230    -0.000043874820

  **** Optimization is complete! (in 5 steps) ****
    Final optimized geometry and variables:
    Molecular point group: c1

    Geometry (in Angstrom), charge = 0, multiplicity = 1:

    H           -2.584220563070    -0.096944122843    -0.619775807841
    O           -2.016166317586    -0.064758933899     0.126045501446
    C           -0.947945416363     0.792114924408    -0.098390117351
    C            0.353284817655     0.027084544171    -0.013755141131
    H           -0.976253966906     1.251875199512    -1.078108730224
    H           -0.921710755091     1.569620527203     0.653670646350
    F            0.429798843625    -0.907175590529    -0.936895731403
    F            1.367795016733     0.850859175941    -0.195881596089
    F            0.513210542737    -0.551126809763     1.152886436788

  Mulliken Charges: (a.u.)
   Center  Symbol    Alpha    Beta     Spin     Total
       1     H     0.38563  0.38563  0.00000  0.22874
       2     O     4.19170  4.19170  0.00000 -0.38340
       3     C     2.99129  2.99129  0.00000  0.01743
       4     C     2.67723  2.67723  0.00000  0.64554
       5     H     0.46245  0.46245  0.00000  0.07510
       6     H     0.45632  0.45632  0.00000  0.08735
       7     F     4.61285  4.61285  0.00000 -0.22571
       8     F     4.61463  4.61463  0.00000 -0.22925
       9     F     4.60790  4.60790  0.00000 -0.21579

   Total alpha = 25.00000, Total beta = 25.00000, Total charge =  0.00000
