  ==> Input File <==

--------------------------------------------------------------------------
set {
	reference rhf
	basis cc-pvtz
}

set_num_threads( 4 )
memory 2 gb

molecule MOL {
0 1

H	 -2.597259	 1.803201	 1.668035
O	 -1.913231	 1.220624	 1.394347
C	 -2.302264	 0.528872	 0.237390
C	 -1.175688	 -0.398187	 -0.171891
H	 -3.206519	 -0.046706	 0.423953
H	 -2.518902	 1.226808	 -0.568701
C	 0.196029	 0.106276	 0.266738
H	 -1.201873	 -0.515469	 -1.250677
H	 -1.365975	 -1.378728	 0.252664
C	 1.330220	 -0.826136	 -0.155230
H	 0.359542	 1.097229	 -0.145561
H	 0.212134	 0.218135	 1.348778
C	 2.719700	 -0.407669	 0.328325
H	 1.339388	 -0.911200	 -1.239363
H	 1.119001	 -1.821953	 0.224128
C	 3.241564	 0.893452	 -0.276737
H	 3.418299	 -1.204729	 0.093035
H	 2.711776	 -0.323368	 1.411960
H	 3.254204	 0.841071	 -1.360784
H	 2.634460	 1.745075	 0.005842
H	 4.254264	 1.092401	 0.054971

	symmetry c1
}
set optking {
	frozen_dihedral = ("
		2 3 4 8
	")
}

ee = optimize('scf')
oeprop('DIPOLE', 'QUADRUPOLE', 'MULLIKEN_CHARGES')
f=open( 'psi4out.xyz', 'w' )
f.write( "21  " )
f.write( str(ee) + "\n" )
f.write( MOL.save_string_xyz() )
f.close()
--------------------------------------------------------------------------

    Molecular point group: c1
  Charge       = 0
  Multiplicity = 1
  Basis Set: CC-PVTZ
  Basis Set:
  @DF-RHF Final Energy:  -310.32665726049743
    Total Energy =                       -310.3266572604975408
    Molecular point group: c1
  Basis Set: CC-PVTZ
  Basis Set:
  Basis Set: CC-PVTZ
  Basis Set:
  @DF-RHF Final Energy:  -310.32738163127800
    Total Energy =                       -310.3273816312785698
  Basis Set: CC-PVTZ
  Basis Set:
  Basis Set: CC-PVTZ
  Basis Set:
  @DF-RHF Final Energy:  -310.32809981698830
    Total Energy =                       -310.3280998169886402
  Basis Set: CC-PVTZ
  Basis Set:
  Basis Set: CC-PVTZ
  Basis Set:
  @DF-RHF Final Energy:  -310.32812962346895
    Total Energy =                       -310.3281296234690672
  Basis Set: CC-PVTZ
  Basis Set:
  Basis Set: CC-PVTZ
  Basis Set:
  @DF-RHF Final Energy:  -310.32813268204194
    Total Energy =                       -310.3281326820421100
  Basis Set: CC-PVTZ
  Basis Set:
  Basis Set: CC-PVTZ
  Basis Set:
  @DF-RHF Final Energy:  -310.32813464905854
    Total Energy =                       -310.3281346490583701
  Basis Set: CC-PVTZ
  Basis Set:
  Charge       = 0
  Multiplicity = 1
  Basis Set: CC-PVTZ
  Basis Set:

    Orbital Energies (a.u.)
    -----------------------

    Doubly Occupied:

       1A    -20.546075     2A    -11.266557     3A    -11.211028
       4A    -11.207744     5A    -11.205369     6A    -11.201675
       7A    -11.201044     8A     -1.364254     9A     -1.080252
      10A     -1.028570    11A     -0.952780    12A     -0.875926
      13A     -0.800534    14A     -0.772404    15A     -0.700853
      16A     -0.656354    17A     -0.617422    18A     -0.604576
      19A     -0.585856    20A     -0.566886    21A     -0.532315
      22A     -0.524857    23A     -0.499518    24A     -0.492832
      25A     -0.479307    26A     -0.455879    27A     -0.451029
      28A     -0.435983    29A     -0.429999

  @DF-RHF Final Energy:  -310.32813443915290

   => Energetics <=

    Nuclear Repulsion Energy =            318.5006407201759657
    One-Electron Energy =               -1052.1617952561609854
    Two-Electron Energy =                 423.3330200968317740
    DFT Exchange-Correlation Energy =       0.0000000000000000
    Empirical Dispersion Energy =           0.0000000000000000
    PCM Polarization Energy =               0.0000000000000000
    EFP Energy =                            0.0000000000000000
    Total Energy =                       -310.3281344391532457
    Molecular point group: c1
  Basis Set: CC-PVTZ
  Basis Set:

  -Total Gradient:
     Atom            X                  Y                   Z
    ------   -----------------  -----------------  -----------------
       1        0.000009002342    -0.000029917916    -0.000032255266
       2        0.002215694165     0.003630294313    -0.002721980145
       3       -0.002037087269    -0.003699223602     0.003582656151
       4       -0.004179081525    -0.004909803604    -0.000287623055
       5        0.000000476538    -0.000023910904    -0.000039981652
       6        0.000004752818    -0.000029254119    -0.000027608646
       7        0.000052005620     0.000035435148    -0.000011528956
       8        0.003960007044     0.005014714062    -0.000447007511
       9       -0.000028307965    -0.000011334361    -0.000008094157
      10        0.000001669380     0.000021861166    -0.000010410662
      11       -0.000008876114    -0.000014407089    -0.000004777345
      12        0.000004344957    -0.000002342615    -0.000007846367
      13       -0.000024591093     0.000021168140     0.000036070201
      14       -0.000003308165     0.000017025375    -0.000007032859
      15        0.000001840374    -0.000011630029    -0.000010941691
      16        0.000015734722     0.000002722449    -0.000006217644
      17       -0.000015627797    -0.000006039272     0.000007745981
      18        0.000002965699     0.000010496150     0.000008153498
      19       -0.000002469833     0.000004048968    -0.000006169019
      20        0.000029137339    -0.000013920387     0.000001421003
      21        0.000001718755    -0.000005981873    -0.000006571861

  **** Optimization is complete! (in 7 steps) ****
    Final optimized geometry and variables:
    Molecular point group: c1

    Geometry (in Angstrom), charge = 0, multiplicity = 1:

    H           -2.997301266135     1.607275295973     1.367646185980
    O           -2.265877381077     1.063800159168     1.140790451196
    C           -2.557887315406     0.338409187100    -0.025678575089
    C           -1.408580972376    -0.609953349187    -0.370052691750
    H           -3.478910961266    -0.225339023785     0.091678430790
    H           -2.705171591494     1.032463044051    -0.850122014317
    C           -0.027372482475    -0.096406452804     0.041794774574
    H           -1.395094673453    -0.727154570317    -1.449485353064
    H           -1.578070034724    -1.585389954805     0.072439206180
    C            1.090735347936    -1.026105885507    -0.426188548265
    H            0.116419057387     0.897887638109    -0.367667524917
    H            0.015295802416     0.009929931508     1.118433718161
    C            2.491647597061    -0.625305057547     0.039466654988
    H            1.081276934411    -1.089356816792    -1.512487706317
    H            0.883912364343    -2.029973569195    -0.064127498580
    C            3.006623147677     0.687492738763    -0.545728754907
    H            3.182765473561    -1.419366113056    -0.227067578311
    H            2.503821532015    -0.564707418629     1.124397732637
    H            2.996734056612     0.660430569103    -1.630910522336
    H            2.408296554083     1.533509489625    -0.230423190272
    H            4.026956196755     0.874844850633    -0.230684895099

  Mulliken Charges: (a.u.)
   Center  Symbol    Alpha    Beta     Spin     Total
       1     H     0.39787  0.39787  0.00000  0.20426
       2     O     4.19316  4.19316  0.00000 -0.38631
       3     C     2.97113  2.97113  0.00000  0.05774
       4     C     3.09758  3.09758  0.00000 -0.19516
       5     H     0.46740  0.46740  0.00000  0.06521
       6     H     0.47346  0.47346  0.00000  0.05307
       7     C     3.08730  3.08730  0.00000 -0.17461
       8     H     0.45635  0.45635  0.00000  0.08731
       9     H     0.45266  0.45266  0.00000  0.09467
      10     C     3.09562  3.09562  0.00000 -0.19125
      11     H     0.45340  0.45340  0.00000  0.09321
      12     H     0.44382  0.44382  0.00000  0.11236
      13     C     3.08925  3.08925  0.00000 -0.17850
      14     H     0.45650  0.45650  0.00000  0.08700
      15     H     0.45137  0.45137  0.00000  0.09726
      16     C     3.15269  3.15269  0.00000 -0.30538
      17     H     0.44995  0.44995  0.00000  0.10009
      18     H     0.45461  0.45461  0.00000  0.09078
      19     H     0.45627  0.45627  0.00000  0.08747
      20     H     0.45225  0.45225  0.00000  0.09549
      21     H     0.44736  0.44736  0.00000  0.10529

   Total alpha = 29.00000, Total beta = 29.00000, Total charge = -0.00000
