                              Psi4 1.0.54 Driver

  ==> Input File <==

--------------------------------------------------------------------------
set {
	reference rhf
	basis cc-pvtz
}

set_num_threads( 4 )
memory 2 gb

molecule MOL {
0 1

H	 -3.875495	 0.689812	 -0.106207
O	 -3.031056	 1.007685	 -0.366813
C	 -2.021813	 0.336996	 0.342658
C	 -0.669613	 0.837286	 -0.127252
H	 -2.126249	 0.519612	 1.409180
H	 -2.095259	 -0.737093	 0.183535
C	 0.490865	 -0.082543	 0.241244
H	 -0.708709	 0.967192	 -1.204587
H	 -0.507562	 1.822272	 0.303070
C	 1.839800	 0.429565	 -0.255472
H	 0.305636	 -1.070211	 -0.165276
H	 0.527397	 -0.195943	 1.322876
C	 3.001144	 -0.485193	 0.119072
H	 1.804373	 0.541073	 -1.335756
H	 2.020437	 1.423114	 0.146921
H	 2.866892	 -1.477297	 -0.298806
H	 3.943543	 -0.095749	 -0.249061
H	 3.085064	 -0.590459	 1.195790

	symmetry c1
}
set optking {
	frozen_dihedral = ("
		2 3 4 8
	")
}

ee,wfn = optimize('scf', return_wfn=True)
oeprop( wfn, 'DIPOLE', 'QUADRUPOLE', 'MULLIKEN_CHARGES')
f=open( 'psi4out.xyz', 'w' )
f.write( "18  " )
f.write( str(ee) + "\n" )
f.write( MOL.save_string_xyz() )
f.close()
--------------------------------------------------------------------------

    Molecular point group: c1
  Charge       = 0
  Multiplicity = 1
  Basis Set: CC-PVTZ
  Basis Set:
  @DF-RHF Final Energy:  -271.28563872535369
    Total Energy =                       -271.2856387253534649
    Molecular point group: c1
  Basis Set: CC-PVTZ
  Basis Set:
  Basis Set: CC-PVTZ
  Basis Set:
  @DF-RHF Final Energy:  -271.28588081165333
    Total Energy =                       -271.2858808116532146
  Basis Set: CC-PVTZ
  Basis Set:
  Basis Set: CC-PVTZ
  Basis Set:
  @DF-RHF Final Energy:  -271.28592582472373
    Total Energy =                       -271.2859258247235630
  Basis Set: CC-PVTZ
  Basis Set:
  Basis Set: CC-PVTZ
  Basis Set:
  @DF-RHF Final Energy:  -271.28592852569727
    Total Energy =                       -271.2859285256972726
  Basis Set: CC-PVTZ
  Basis Set:
  Charge       = 0
  Multiplicity = 1
  Basis Set: CC-PVTZ
  Basis Set:

    Orbital Energies (a.u.)
    -----------------------

    Doubly Occupied:

       1A    -20.545614     2A    -11.265245     3A    -11.213981
       4A    -11.213255     5A    -11.208996     6A    -11.206683
       7A     -1.363404     8A     -1.081492     9A     -1.012052
      10A     -0.914341    11A     -0.820708    12A     -0.792944
      13A     -0.698263    14A     -0.659982    15A     -0.623167
      16A     -0.588795    17A     -0.573442    18A     -0.557118
      19A     -0.532660    20A     -0.495019    21A     -0.490769
      22A     -0.469909    23A     -0.464188    24A     -0.452131
      25A     -0.436252

  @DF-RHF Final Energy:  -271.28592920220854

   => Energetics <=

    Nuclear Repulsion Energy =            245.6343935687620785
    One-Electron Energy =                -854.4798211221527708
    Two-Electron Energy =                 337.5594983511822420
    DFT Exchange-Correlation Energy =       0.0000000000000000
    Empirical Dispersion Energy =           0.0000000000000000
    PCM Polarization Energy =               0.0000000000000000
    EFP Energy =                            0.0000000000000000
    Total Energy =                       -271.2859292022084219
    Molecular point group: c1
  Basis Set: CC-PVTZ
  Basis Set:

  -Total Gradient:
     Atom            X                  Y                   Z
    ------   -----------------  -----------------  -----------------
       1        0.000071821418     0.000013215627    -0.000021576729
       2       -0.000009519619    -0.001961051960    -0.001715255705
       3       -0.000208881269     0.003172759040     0.002413504847
       4        0.001253568522    -0.004444757717    -0.000994272386
       5       -0.000033643836    -0.000008085613     0.000002590406
       6       -0.000037812441     0.000018674596    -0.000027322967
       7       -0.000031261172     0.000031407274    -0.000019507969
       8       -0.000991457938     0.003162594781     0.000328437440
       9        0.000006741347    -0.000007953829     0.000012942338
      10        0.000020841353     0.000009720098     0.000022578656
      11       -0.000011382064     0.000012280110     0.000010591326
      12       -0.000005182366     0.000008302467    -0.000001266992
      13       -0.000017241691    -0.000011552400    -0.000018450616
      14        0.000000214714    -0.000002785595     0.000003677673
      15       -0.000000736714     0.000003941552     0.000005244814
      16        0.000002094331    -0.000005178639     0.000005862323
      17       -0.000006987090     0.000001210765    -0.000007782090
      18       -0.000001175482     0.000007259443     0.000000005630

  **** Optimization is complete! (in 5 steps) ****
    Final optimized geometry and variables:
    Molecular point group: c1

    Geometry (in Angstrom), charge = 0, multiplicity = 1:

    H           -3.742657973816     0.409285356765     0.005472176012
    O           -2.903850528899     0.649616757826    -0.341978841806
    C           -1.883578243362    -0.008767341172     0.361322790861
    C           -0.543260878423     0.479256420365    -0.158656595864
    H           -1.964667520569     0.180884009856     1.428990300659
    H           -1.965464412201    -1.083827577220     0.213723356842
    C            0.618295135178    -0.427722309544     0.229825429612
    H           -0.617028074945     0.580433302272    -1.236232779298
    H           -0.368376618115     1.482602467616     0.219252528198
    C            1.973676963396     0.098573277646    -0.233328003067
    H            0.457995698603    -1.418452135658    -0.188266776064
    H            0.636080151111    -0.553333145991     1.310581832723
    C            3.132584043242    -0.818290472140     0.142840278666
    H            1.955079385720     0.232797434021    -1.311235396245
    H            2.140392984528     1.083767771159     0.192962005311
    H            3.012298705699    -1.802484661615    -0.297703392927
    H            4.078738084166    -0.416254959610    -0.200736309967
    H            3.198473151053    -0.944974487580     1.218462993227

  Mulliken Charges: (a.u.)
   Center  Symbol    Alpha    Beta     Spin     Total
       1     H     0.39676  0.39676  0.00000  0.20649
       2     O     4.19540  4.19540  0.00000 -0.39081
       3     C     2.96298  2.96298  0.00000  0.07404
       4     C     3.08548  3.08548  0.00000 -0.17097
       5     H     0.47269  0.47269  0.00000  0.05463
       6     H     0.47722  0.47722  0.00000  0.04556
       7     C     3.09627  3.09627  0.00000 -0.19255
       8     H     0.44803  0.44803  0.00000  0.10394
       9     H     0.45432  0.45432  0.00000  0.09136
      10     C     3.08389  3.08389  0.00000 -0.16779
      11     H     0.45464  0.45464  0.00000  0.09073
      12     H     0.45660  0.45660  0.00000  0.08681
      13     C     3.14953  3.14953  0.00000 -0.29907
      14     H     0.45331  0.45331  0.00000  0.09337
      15     H     0.45383  0.45383  0.00000  0.09234
      16     H     0.45522  0.45522  0.00000  0.08956
      17     H     0.44821  0.44821  0.00000  0.10357
      18     H     0.45561  0.45561  0.00000  0.08878

   Total alpha = 25.00000, Total beta = 25.00000, Total charge = -0.00000

*** Psi4 exiting successfully. Buy a developer a beer!
