  ==> Input File <==

--------------------------------------------------------------------------
set {
	reference rhf
	basis 6-31G*
}

set_num_threads( 4 )
memory 2 gb

molecule MOL {
0 1

H	 1.541107	 2.393291	 -2.881630
O	 2.429643	 2.071278	 -2.925016
C	 2.997600	 2.073988	 -1.639920
C	 2.445178	 0.977207	 -0.736246
H	 4.059676	 1.925772	 -1.787234
H	 2.869546	 3.047843	 -1.168763
C	 0.953501	 1.120333	 -0.424346
H	 2.628565	 0.015875	 -1.209086
H	 3.011585	 0.986662	 0.193518
C	 0.441780	 0.035811	 0.527900
H	 0.389584	 1.083951	 -1.352268
H	 0.768240	 2.099667	 0.017155
C	 -1.027319	 0.182458	 0.940919
H	 0.591477	 -0.940996	 0.071517
H	 1.054791	 0.047087	 1.426672
C	 -2.037799	 -0.007733	 -0.193645
H	 -1.238114	 -0.548317	 1.718961
H	 -1.176605	 1.160042	 1.396860
C	 -3.489788	 0.042957	 0.286558
H	 -1.854762	 -0.964450	 -0.680781
H	 -1.893172	 0.754610	 -0.955365
C	 -4.216917	 1.317354	 -0.141063
H	 -4.025645	 -0.823308	 -0.095450
H	 -3.513059	 -0.038752	 1.371301
H	 -4.239342	 1.411634	 -1.223113
H	 -5.243387	 1.322503	 0.212445
H	 -3.726170	 2.201406	 0.256408

	symmetry c1
}
set optking {
	frozen_dihedral = ("
		20 16 19 22
	")
}

ee = optimize('scf')
oeprop('DIPOLE', 'QUADRUPOLE', 'MULLIKEN_CHARGES')
f=open( 'psi4out.xyz', 'w' )
f.write( "27  " )
f.write( str(ee) + "\n" )
f.write( MOL.save_string_xyz() )
f.close()
--------------------------------------------------------------------------

    Molecular point group: c1
  Charge       = 0
  Multiplicity = 1
  Basis Set: 6-31G*
  Basis Set:
  @DF-RHF Final Energy:  -388.27621745503887
    Total Energy =                       -388.2762174550396139
    Molecular point group: c1
  Basis Set: 6-31G*
  Basis Set:
  Basis Set: 6-31G*
  Basis Set:
  @DF-RHF Final Energy:  -388.27646486667732
    Total Energy =                       -388.2764648666782250
  Basis Set: 6-31G*
  Basis Set:
  Basis Set: 6-31G*
  Basis Set:
  @DF-RHF Final Energy:  -388.27650436810302
    Total Energy =                       -388.2765043681032466
  Basis Set: 6-31G*
  Basis Set:
  Basis Set: 6-31G*
  Basis Set:
  @DF-RHF Final Energy:  -388.27658306346592
    Total Energy =                       -388.2765830634663189
  Basis Set: 6-31G*
  Basis Set:
  Basis Set: 6-31G*
  Basis Set:
  @DF-RHF Final Energy:  -388.27658021693344
    Total Energy =                       -388.2765802169333256
  Basis Set: 6-31G*
  Basis Set:
  Basis Set: 6-31G*
  Basis Set:
  @DF-RHF Final Energy:  -388.27658713262900
    Total Energy =                       -388.2765871326290608
  Basis Set: 6-31G*
  Basis Set:
  Charge       = 0
  Multiplicity = 1
  Basis Set: 6-31G*
  Basis Set:

    Orbital Energies (a.u.)
    -----------------------

    Doubly Occupied:

       1A    -20.552335     2A    -11.267083     3A    -11.219866
       4A    -11.217241     5A    -11.216207     6A    -11.215857
       7A    -11.215248     8A    -11.214008     9A    -11.210194
      10A     -1.359084    11A     -1.094453    12A     -1.060076
      13A     -1.010865    14A     -0.948007    15A     -0.888776
      16A     -0.823028    17A     -0.801464    18A     -0.776938
      19A     -0.693839    20A     -0.648898    21A     -0.624378
      22A     -0.615658    23A     -0.613640    24A     -0.587566
      25A     -0.580062    26A     -0.552331    27A     -0.534356
      28A     -0.532209    29A     -0.508702    30A     -0.490483
      31A     -0.489096    32A     -0.475571    33A     -0.470518
      34A     -0.454418    35A     -0.451514    36A     -0.441051
      37A     -0.422768

  @DF-RHF Final Energy:  -388.27658759564582

   => Energetics <=

    Nuclear Repulsion Energy =            461.9154570042032333
    One-Electron Energy =               -1441.8285093711681384
    Two-Electron Energy =                 591.6364647713190834
    DFT Exchange-Correlation Energy =       0.0000000000000000
    Empirical Dispersion Energy =           0.0000000000000000
    PCM Polarization Energy =               0.0000000000000000
    EFP Energy =                            0.0000000000000000
    Total Energy =                       -388.2765875956457648
    Molecular point group: c1
  Basis Set: 6-31G*
  Basis Set:

  -Total Gradient:
     Atom            X                  Y                   Z
    ------   -----------------  -----------------  -----------------
       1        0.000016305434     0.000003623083    -0.000000715465
       2        0.000022184351    -0.000004392438    -0.000012368886
       3       -0.000029515872     0.000033404190     0.000012276735
       4       -0.000002191655    -0.000024357187    -0.000012815719
       5       -0.000004769386     0.000002107871    -0.000004078459
       6        0.000002657706     0.000006680386    -0.000001775914
       7        0.000005834411     0.000022317685     0.000017321030
       8       -0.000008426682    -0.000008029459    -0.000003495345
       9       -0.000006071043    -0.000009732701    -0.000003552510
      10       -0.000000863518    -0.000008634734     0.000013119801
      11        0.000001566541    -0.000025517697     0.000021990835
      12        0.000003951670     0.000016069272    -0.000011517476
      13        0.000008051217     0.000004770770    -0.000042060492
      14       -0.000008912085     0.000003919853     0.000001489203
      15       -0.000000984392    -0.000004543189     0.000007963666
      16        0.000520270173    -0.001408387174     0.002084122796
      17        0.000011486262    -0.000003113128    -0.000009055972
      18        0.000002894398     0.000000757279    -0.000008102066
      19        0.000625347925     0.001359851202     0.001453053077
      20       -0.000592578800     0.000853614439    -0.002118121155
      21        0.000014426214     0.000008449035     0.000022012717
      22       -0.000548320919    -0.000826106019    -0.001400907586
      23       -0.000012556610     0.000000094321     0.000000497789
      24       -0.000012741852     0.000015203535    -0.000001788184
      25        0.000001153913    -0.000006389427     0.000001376965
      26       -0.000009450226     0.000016235625    -0.000006831187
      27        0.000001252829    -0.000017895398     0.000001961806

  **** Optimization is complete! (in 7 steps) ****
    Final optimized geometry and variables:
    Molecular point group: c1

    Geometry (in Angstrom), charge = 0, multiplicity = 1:

    H            1.656410930107     1.529358128869    -2.339229815985
    O            2.544546796057     1.208127980131    -2.394901943532
    C            3.123694142608     1.193480547528    -1.114908799745
    C            2.582356270904     0.081693319962    -0.222907650746
    H            4.184774941689     1.050402474453    -1.273890551542
    H            2.997316027168     2.159890460935    -0.628241522020
    C            1.093154908691     0.215957251698     0.104290070933
    H            2.764078250335    -0.872001744404    -0.711579882999
    H            3.157009765682     0.078914449178     0.701813389892
    C            0.593828648180    -0.882312550210     1.047569654520
    H            0.521516942306     0.190151506983    -0.819137834209
    H            0.908919791390     1.188877491465     0.560136672781
    C           -0.873266689360    -0.750878967001     1.471655426262
    H            0.747349800202    -1.853430819265     0.580233014847
    H            1.212459288027    -0.876167797271     1.942548502638
    C           -1.892060492890    -0.968792860681     0.349057231342
    H           -1.068805380229    -1.475404454806     2.259135585527
    H           -1.033002895740     0.229854107931     1.918157777917
    C           -3.358047035264    -0.844048726681     0.819906067991
    H           -1.727185063423    -1.943354049284    -0.104082395118
    H           -1.717421681502    -0.249752531455    -0.446813212508
    C           -4.041630018051     0.439077783525     0.345293934906
    H           -3.932217226611    -1.693217761425     0.460076603635
    H           -3.401480227179    -0.894654937291     1.904838469973
    H           -4.082804629344     0.478606424305    -0.739331560853
    H           -5.059113176177     0.505634347059     0.718507274864
    H           -3.506234578411     1.321086028617     0.687095619097

  Mulliken Charges: (a.u.)
   Center  Symbol    Alpha    Beta     Spin     Total
       1     H     0.27989  0.27989  0.00000  0.44022
       2     O     4.37092  4.37092  0.00000 -0.74185
       3     C     2.99743  2.99743  0.00000  0.00514
       4     C     3.16084  3.16084  0.00000 -0.32168
       5     H     0.41444  0.41444  0.00000  0.17113
       6     H     0.43202  0.43202  0.00000  0.13597
       7     C     3.16318  3.16318  0.00000 -0.32636
       8     H     0.41495  0.41495  0.00000  0.17011
       9     H     0.42434  0.42434  0.00000  0.15131
      10     C     3.15281  3.15281  0.00000 -0.30561
      11     H     0.42296  0.42296  0.00000  0.15408
      12     H     0.42545  0.42545  0.00000  0.14910
      13     C     3.15488  3.15488  0.00000 -0.30975
      14     H     0.42154  0.42154  0.00000  0.15692
      15     H     0.42140  0.42140  0.00000  0.15720
      16     C     3.15712  3.15712  0.00000 -0.31424
      17     H     0.42057  0.42057  0.00000  0.15887
      18     H     0.42428  0.42428  0.00000  0.15145
      19     C     3.15474  3.15474  0.00000 -0.30947
      20     H     0.42050  0.42050  0.00000  0.15901
      21     H     0.42133  0.42133  0.00000  0.15734
      22     C     3.23975  3.23975  0.00000 -0.47950
      23     H     0.41987  0.41987  0.00000  0.16025
      24     H     0.42034  0.42034  0.00000  0.15931
      25     H     0.42154  0.42154  0.00000  0.15691
      26     H     0.42000  0.42000  0.00000  0.16000
      27     H     0.42292  0.42292  0.00000  0.15416

   Total alpha = 37.00000, Total beta = 37.00000, Total charge =  0.00000
