  ==> Input File <==

--------------------------------------------------------------------------
set {
	reference rhf
	basis 6-31G*
}

set_num_threads( 4 )
memory 2 gb

molecule MOL {
0 1

H	 -3.135461	 -1.215070	 0.001379
O	 -2.310168	 -0.871793	 -0.309793
C	 -2.026376	 0.340750	 0.341611
C	 -0.673256	 0.843270	 -0.132153
H	 -2.792215	 1.080697	 0.115987
H	 -2.013526	 0.200402	 1.421792
C	 0.486613	 -0.083066	 0.235839
H	 -0.715586	 0.970948	 -1.210718
H	 -0.508072	 1.829858	 0.297090
C	 1.840406	 0.433480	 -0.254303
H	 0.300215	 -1.068318	 -0.178947
H	 0.519509	 -0.203625	 1.318070
C	 2.775869	 -0.686343	 -0.708813
H	 1.683557	 1.127619	 -1.077277
H	 2.320230	 1.004215	 0.538460
H	 2.338425	 -1.254040	 -1.525056
H	 3.726621	 -0.290626	 -1.052941
H	 2.980401	 -1.379809	 0.102224

	symmetry c1
}
set optking {
	frozen_dihedral = ("
		14 10 7 11
	")
}

ee = optimize('scf')
oeprop('DIPOLE', 'QUADRUPOLE', 'MULLIKEN_CHARGES')
f=open( 'psi4out.xyz', 'w' )
f.write( "18  " )
f.write( str(ee) + "\n" )
f.write( MOL.save_string_xyz() )
f.close()
--------------------------------------------------------------------------

    Molecular point group: c1
  Charge       = 0
  Multiplicity = 1
  Basis Set: 6-31G*
  Basis Set:
  @DF-RHF Final Energy:  -271.17608484882106
    Total Energy =                       -271.1760848488212332
    Molecular point group: c1
  Basis Set: 6-31G*
  Basis Set:
  Basis Set: 6-31G*
  Basis Set:
  @DF-RHF Final Energy:  -271.17639072315899
    Total Energy =                       -271.1763907231586472
  Basis Set: 6-31G*
  Basis Set:
  Basis Set: 6-31G*
  Basis Set:
  @DF-RHF Final Energy:  -271.17645555076956
    Total Energy =                       -271.1764555507693899
  Basis Set: 6-31G*
  Basis Set:
  Charge       = 0
  Multiplicity = 1
  Basis Set: 6-31G*
  Basis Set:

    Orbital Energies (a.u.)
    -----------------------

    Doubly Occupied:

       1A    -20.553003     2A    -11.267962     3A    -11.212550
       4A    -11.210467     5A    -11.206128     6A    -11.204422
       7A     -1.359714     8A     -1.073245     9A     -1.008482
      10A     -0.912789    11A     -0.818975    12A     -0.784056
      13A     -0.704216    14A     -0.641630    15A     -0.620975
      16A     -0.577963    17A     -0.571759    18A     -0.562999
      19A     -0.516737    20A     -0.501857    21A     -0.493044
      22A     -0.467069    23A     -0.451885    24A     -0.447250
      25A     -0.429174

  @DF-RHF Final Energy:  -271.17645594737468

   => Energetics <=

    Nuclear Repulsion Energy =            249.1275527759101465
    One-Electron Energy =                -861.4113186805752775
    Two-Electron Energy =                 341.1073099572904539
    DFT Exchange-Correlation Energy =       0.0000000000000000
    Empirical Dispersion Energy =           0.0000000000000000
    PCM Polarization Energy =               0.0000000000000000
    EFP Energy =                            0.0000000000000000
    Total Energy =                       -271.1764559473747340
    Molecular point group: c1
  Basis Set: 6-31G*
  Basis Set:

  -Total Gradient:
     Atom            X                  Y                   Z
    ------   -----------------  -----------------  -----------------
       1       -0.000005537296     0.000002126459    -0.000002448758
       2       -0.000095429601     0.000044853911    -0.000024293110
       3        0.000136732896    -0.000102592779     0.000176225066
       4        0.000065088013     0.000065878618    -0.000231217314
       5        0.000019122624    -0.000023759174    -0.000014756762
       6       -0.000038414809    -0.000008832993     0.000018670493
       7       -0.002357275728     0.003132209725    -0.003581182872
       8       -0.000017639463     0.000004746574    -0.000032265783
       9        0.000036423881    -0.000033509252    -0.000042254936
      10        0.000838062431    -0.004470057269    -0.002605083938
      11        0.001909425418    -0.001790536112     0.003373387453
      12        0.000085376496    -0.000021219146     0.000060210167
      13       -0.000106029495    -0.000103954702    -0.000028227203
      14       -0.000377690858     0.003184850403     0.002854174589
      15       -0.000037444988     0.000049293287     0.000056482471
      16        0.000022463267    -0.000007634750    -0.000018191588
      17       -0.000043317115     0.000063544552     0.000045882218
      18       -0.000033915662     0.000014592650    -0.000005110192

  **** Optimization is complete! (in 4 steps) ****
    Final optimized geometry and variables:
    Molecular point group: c1

    Geometry (in Angstrom), charge = 0, multiplicity = 1:

    H           -3.128860940142    -1.153713382477     0.212616192985
    O           -2.308400915899    -0.825116209222    -0.126019839352
    C           -1.986462407710     0.387026100805     0.508051769411
    C           -0.642971709687     0.867526772262    -0.012709496256
    H           -2.748759438482     1.136460516175     0.302465978072
    H           -1.940487945003     0.253192804185     1.588127891132
    C            0.514125959331    -0.074968798350     0.315459251967
    H           -0.717777792297     0.996522601000    -1.089261791678
    H           -0.446350184620     1.851099803834     0.410660573745
    C            1.884857445198     0.458543168220    -0.137014441470
    H            0.331289874850    -1.053243727670    -0.116217902925
    H            0.540029416329    -0.241993877332     1.391553288595
    C            2.862116211578    -0.641074277444    -0.545565662956
    H            1.755526689821     1.168649863226    -0.950918677995
    H            2.322408899612     1.041030742559     0.671284512686
    H            2.488647517023    -1.197492211031    -1.400261590169
    H            3.830782322100    -0.229502607182    -0.812492744575
    H            3.014759035473    -1.347556361553     0.265760081172

  Mulliken Charges: (a.u.)
   Center  Symbol    Alpha    Beta     Spin     Total
       1     H     0.28060  0.28060  0.00000  0.43880
       2     O     4.36952  4.36952  0.00000 -0.73903
       3     C     2.99772  2.99772  0.00000  0.00455
       4     C     3.16152  3.16152  0.00000 -0.32303
       5     H     0.42930  0.42930  0.00000  0.14141
       6     H     0.43253  0.43253  0.00000  0.13495
       7     C     3.15535  3.15535  0.00000 -0.31070
       8     H     0.41459  0.41459  0.00000  0.17083
       9     H     0.42377  0.42377  0.00000  0.15245
      10     C     3.15367  3.15367  0.00000 -0.30734
      11     H     0.40683  0.40683  0.00000  0.18633
      12     H     0.42616  0.42616  0.00000  0.14768
      13     C     3.23928  3.23928  0.00000 -0.47856
      14     H     0.42239  0.42239  0.00000  0.15521
      15     H     0.42349  0.42349  0.00000  0.15303
      16     H     0.42008  0.42008  0.00000  0.15984
      17     H     0.42128  0.42128  0.00000  0.15744
      18     H     0.42193  0.42193  0.00000  0.15614

   Total alpha = 25.00000, Total beta = 25.00000, Total charge =  0.00000
