  ==> Input File <==

--------------------------------------------------------------------------
set {
	reference rhf
	basis 6-31G*
}

set_num_threads( 4 )
memory 2 gb

molecule MOL {
0 1

O	 1.171105	 1.376158	 0.269542
C	 0.993039	 0.326719	 0.798702
C	 -0.296533	 -0.457272	 0.782612
O	 1.931865	 -0.306548	 1.490477
C	 -1.412532	 0.227344	 -0.000452
H	 -0.074303	 -1.439391	 0.374190
H	 -0.586919	 -0.625927	 1.816046
C	 -2.706999	 -0.587347	 -0.000541
H	 -1.083231	 0.395234	 -1.021177
H	 -1.596258	 1.210133	 0.422482
C	 -3.956778	 0.291888	 0.000910
H	 -2.726114	 -1.239230	 -0.871609
H	 -2.725217	 -1.240844	 0.869333
H	 -3.985213	 0.933254	 -0.875158
H	 -4.860123	 -0.309979	 0.000519
H	 -3.984618	 0.931166	 0.878514
C	 3.196355	 0.323858	 1.584258
H	 3.627732	 0.458194	 0.602752
H	 3.811733	 -0.335658	 2.176118
H	 3.106346	 1.286127	 2.067417

	symmetry c1
}
set optking {
	frozen_dihedral = ("
		9 5 8 12
	")
}

ee = optimize('scf')
oeprop('DIPOLE', 'QUADRUPOLE', 'MULLIKEN_CHARGES')
f=open( 'psi4out.xyz', 'w' )
f.write( "20  " )
f.write( str(ee) + "\n" )
f.write( MOL.save_string_xyz() )
f.close()
--------------------------------------------------------------------------

    Molecular point group: c1
  Charge       = 0
  Multiplicity = 1
  Basis Set: 6-31G*
  Basis Set:
  @DF-RHF Final Energy:  -383.93802754607754
    Total Energy =                       -383.9380275460773646
    Molecular point group: c1
  Basis Set: 6-31G*
  Basis Set:
  Basis Set: 6-31G*
  Basis Set:
  @DF-RHF Final Energy:  -383.93830685965401
    Total Energy =                       -383.9383068596538351
  Basis Set: 6-31G*
  Basis Set:
  Basis Set: 6-31G*
  Basis Set:
  @DF-RHF Final Energy:  -383.93821049430636
    Total Energy =                       -383.9382104943065315
  Basis Set: 6-31G*
  Basis Set:
  Basis Set: 6-31G*
  Basis Set:
  @DF-RHF Final Energy:  -383.93838510019611
    Total Energy =                       -383.9383851001956600
  Basis Set: 6-31G*
  Basis Set:
  Charge       = 0
  Multiplicity = 1
  Basis Set: 6-31G*
  Basis Set:

    Orbital Energies (a.u.)
    -----------------------

    Doubly Occupied:

       1A    -20.603635     2A    -20.545514     3A    -11.372141
       4A    -11.280867     5A    -11.235631     6A    -11.220210
       7A    -11.219352     8A    -11.210707     9A     -1.469318
      10A     -1.362771    11A     -1.087454    12A     -1.023829
      13A     -0.969016    14A     -0.885225    15A     -0.804126
      16A     -0.767414    17A     -0.697879    18A     -0.683200
      19A     -0.671978    20A     -0.642732    21A     -0.597335
      22A     -0.596915    23A     -0.577246    24A     -0.542402
      25A     -0.531688    26A     -0.522282    27A     -0.504861
      28A     -0.476579    29A     -0.472645    30A     -0.468624
      31A     -0.455618    32A     -0.436455

  @DF-RHF Final Energy:  -383.93838509028490

   => Energetics <=

    Nuclear Repulsion Energy =            381.1012542183127607
    One-Electron Energy =               -1278.2079798689339896
    Two-Electron Energy =                 513.1683405603366737
    DFT Exchange-Correlation Energy =       0.0000000000000000
    Empirical Dispersion Energy =           0.0000000000000000
    PCM Polarization Energy =               0.0000000000000000
    EFP Energy =                            0.0000000000000000
    Total Energy =                       -383.9383850902845552
    Molecular point group: c1
  Basis Set: 6-31G*
  Basis Set:

  -Total Gradient:
     Atom            X                  Y                   Z
    ------   -----------------  -----------------  -----------------
       1        0.000033011421    -0.000018748460    -0.000000218686
       2       -0.000033458776     0.000048120311     0.000075555044
       3       -0.000070568283    -0.000031314581     0.000015715654
       4        0.000024350415     0.000007529287    -0.000033304997
       5       -0.003429254247     0.005104431461    -0.000882373770
       6       -0.000008918283     0.000009134194     0.000001872220
       7        0.000013781122    -0.000023084267     0.000019914892
       8        0.003046147109    -0.004535988688     0.002945647370
       9        0.002344099126    -0.003666659541     0.000146222388
      10       -0.000055176971    -0.000030493125    -0.000024215033
      11        0.000023624238     0.000014286842     0.000031235405
      12       -0.001949872237     0.003094605173    -0.002332245714
      13        0.000085770503     0.000036961385     0.000022591117
      14        0.000015400113     0.000028922131     0.000025204215
      15       -0.000012695570    -0.000007110156    -0.000032070398
      16       -0.000038068581    -0.000031573168     0.000008860690
      17        0.000005031831     0.000000816758     0.000016926969
      18       -0.000002053099    -0.000001363416    -0.000002380180
      19        0.000006693767     0.000002308704    -0.000001771676
      20        0.000002156399    -0.000000780844    -0.000001165510

  **** Optimization is complete! (in 5 steps) ****
    Final optimized geometry and variables:
    Molecular point group: c1

    Geometry (in Angstrom), charge = 0, multiplicity = 1:

    O            1.276522938978     1.216878780776    -0.355682371840
    C            1.098738761147     0.169030314659     0.176952896797
    C           -0.197451468084    -0.604194471793     0.182639453888
    O            2.044022593964    -0.471188192881     0.853500174586
    C           -1.324303401198     0.091618684441    -0.578984616832
    H            0.008197902291    -1.587217774755    -0.232897733317
    H           -0.469986664227    -0.773828989871     1.220636052066
    C           -2.611573401880    -0.749478915106    -0.603583113616
    H           -0.980686061598     0.268414457109    -1.592187785525
    H           -1.509334078751     1.062083752982    -0.131724213216
    C           -3.874312171662     0.112076114938    -0.670687001307
    H           -2.601193755979    -1.396465335268    -1.476807654749
    H           -2.664022855822    -1.391929353021     0.271505543994
    H           -3.852179936611     0.769585988954    -1.535147740735
    H           -4.766503308533    -0.502110828798    -0.744497245716
    H           -3.971159832963     0.734748396373     0.213991438173
    C            3.314520605241     0.149735735274     0.926644093300
    H            3.730788740415     0.281104891995    -0.061781070747
    H            3.934622573418    -0.514475935180     1.508249773833
    H            3.239669711079     1.112545250042     1.411320461890

  Mulliken Charges: (a.u.)
   Center  Symbol    Alpha    Beta     Spin     Total
       1     O     4.28606  4.28606  0.00000 -0.57211
       2     C     2.60571  2.60571  0.00000  0.78858
       3     C     3.20977  3.20977  0.00000 -0.41955
       4     O     4.30711  4.30711  0.00000 -0.61421
       5     C     3.15282  3.15282  0.00000 -0.30563
       6     H     0.40057  0.40057  0.00000  0.19886
       7     H     0.40088  0.40088  0.00000  0.19825
       8     C     3.15577  3.15577  0.00000 -0.31153
       9     H     0.40972  0.40972  0.00000  0.18055
      10     H     0.41079  0.41079  0.00000  0.17843
      11     C     3.24001  3.24001  0.00000 -0.48002
      12     H     0.41968  0.41968  0.00000  0.16063
      13     H     0.42200  0.42200  0.00000  0.15601
      14     H     0.41941  0.41941  0.00000  0.16118
      15     H     0.41965  0.41965  0.00000  0.16070
      16     H     0.42103  0.42103  0.00000  0.15794
      17     C     3.09242  3.09242  0.00000 -0.18484
      18     H     0.40909  0.40909  0.00000  0.18183
      19     H     0.40844  0.40844  0.00000  0.18311
      20     H     0.40908  0.40908  0.00000  0.18184

   Total alpha = 32.00000, Total beta = 32.00000, Total charge =  0.00000
