  ==> Input File <==

--------------------------------------------------------------------------
set {
	reference rhf
	basis 6-31G*
}

set_num_threads( 4 )
memory 2 gb

molecule MOL {
0 1

H	 0.137158	 4.200306	 -0.600927
O	 -0.216921	 3.573389	 -1.215737
C	 -0.188298	 2.290154	 -0.650515
C	 1.222213	 1.728281	 -0.629939
H	 -0.598263	 2.285687	 0.355599
H	 -0.817922	 1.662181	 -1.265066
O	 1.171513	 0.459272	 -0.058250
H	 1.877890	 2.383072	 -0.052603
H	 1.613970	 1.687325	 -1.644549
C	 2.397842	 -0.198080	 -0.002151
H	 2.508049	 -0.905315	 -0.822092
H	 3.173794	 0.550865	 -0.078850
H	 2.517602	 -0.735921	 0.936026

	symmetry c1
}
set optking {
	frozen_dihedral = ("
		4 7 10 13
	")
}

ee = optimize('scf')
oeprop('DIPOLE', 'QUADRUPOLE', 'MULLIKEN_CHARGES')
f=open( 'psi4out.xyz', 'w' )
f.write( "13  " )
f.write( str(ee) + "\n" )
f.write( MOL.save_string_xyz() )
f.close()
--------------------------------------------------------------------------

    Molecular point group: c1
  Charge       = 0
  Multiplicity = 1
  Basis Set: 6-31G*
  Basis Set:
  @DF-RHF Final Energy:  -267.94659776021564
    Total Energy =                       -267.9465977602158091
    Molecular point group: c1
  Basis Set: 6-31G*
  Basis Set:
  Basis Set: 6-31G*
  Basis Set:
  @DF-RHF Final Energy:  -267.94745511023473
    Total Energy =                       -267.9474551102348414
  Basis Set: 6-31G*
  Basis Set:
  Basis Set: 6-31G*
  Basis Set:
  @DF-RHF Final Energy:  -267.94771381913949
    Total Energy =                       -267.9477138191395511
  Basis Set: 6-31G*
  Basis Set:
  Charge       = 0
  Multiplicity = 1
  Basis Set: 6-31G*
  Basis Set:

    Orbital Energies (a.u.)
    -----------------------

    Doubly Occupied:

       1A    -20.559856     2A    -20.559444     3A    -11.271183
       4A    -11.269908     5A    -11.268491     6A     -1.385257
       7A     -1.364483     8A     -1.018281     9A     -0.913546
      10A     -0.841656    11A     -0.708671    12A     -0.672151
      13A     -0.658823    14A     -0.635791    15A     -0.597328
      16A     -0.566954    17A     -0.549448    18A     -0.488277
      19A     -0.481747    20A     -0.437991    21A     -0.418087

  @DF-RHF Final Energy:  -267.94771531367792

   => Energetics <=

    Nuclear Repulsion Energy =            189.9966004150670358
    One-Electron Energy =                -742.5538832196956491
    Two-Electron Energy =                 284.6095674909506670
    DFT Exchange-Correlation Energy =       0.0000000000000000
    Empirical Dispersion Energy =           0.0000000000000000
    PCM Polarization Energy =               0.0000000000000000
    EFP Energy =                            0.0000000000000000
    Total Energy =                       -267.9477153136779179
    Molecular point group: c1
  Basis Set: 6-31G*
  Basis Set:

  -Total Gradient:
     Atom            X                  Y                   Z
    ------   -----------------  -----------------  -----------------
       1        0.000002347695     0.000010324836    -0.000001853449
       2        0.000032962650    -0.000016323520     0.000010466167
       3       -0.000046861132    -0.000056090769     0.000018258168
       4        0.000470597944     0.000861495800     0.001921020374
       5       -0.000005983236    -0.000000313840    -0.000001724376
       6       -0.000009134803    -0.000002818814     0.000004575805
       7       -0.000216265154    -0.000801057725    -0.002482609312
       8        0.000009550445    -0.000026187398     0.000012863670
       9        0.000002711096    -0.000022409655     0.000020874013
      10       -0.001240099783    -0.002152206495    -0.000585661857
      11       -0.000047778112     0.000003214186     0.000002518431
      12        0.000027907089     0.000029517464    -0.000000951625
      13        0.001020045300     0.002172855933     0.001082223989

  **** Optimization is complete! (in 4 steps) ****
    Final optimized geometry and variables:
    Molecular point group: c1

    Geometry (in Angstrom), charge = 0, multiplicity = 1:

    H           -0.768947276385     2.600560329163    -0.075453691279
    O           -1.118442354832     1.973054039475    -0.692256339152
    C           -1.072376644694     0.686728278809    -0.134620456398
    C            0.344001954268     0.139736473363    -0.127278050215
    H           -1.474080761328     0.672417798215     0.874677360166
    H           -1.700333526000     0.055520927652    -0.747497703421
    O            0.306795761004    -1.130738040535     0.444547058546
    H            0.996491381971     0.798853343830     0.447344627134
    H            0.725418759039     0.107766359305    -1.145811497561
    C            1.528857276893    -1.804426909711     0.510523009637
    H            1.617922456231    -2.523940506028    -0.297690683866
    H            2.367885955816    -1.116179404759     0.453793117330
    H            1.585854430767    -2.318737135260     1.461635148831

  Mulliken Charges: (a.u.)
   Center  Symbol    Alpha    Beta     Spin     Total
       1     H     0.28132  0.28132  0.00000  0.43737
       2     O     4.37093  4.37093  0.00000 -0.74186
       3     C     3.00495  3.00495  0.00000 -0.00990
       4     C     2.99640  2.99640  0.00000  0.00721
       5     H     0.42234  0.42234  0.00000  0.15531
       6     H     0.40845  0.40845  0.00000  0.18311
       7     O     4.31118  4.31118  0.00000 -0.62237
       8     H     0.43707  0.43707  0.00000  0.12586
       9     H     0.42344  0.42344  0.00000  0.15313
      10     C     3.07711  3.07711  0.00000 -0.15422
      11     H     0.42214  0.42214  0.00000  0.15572
      12     H     0.42928  0.42928  0.00000  0.14145
      13     H     0.41540  0.41540  0.00000  0.16920

   Total alpha = 21.00000, Total beta = 21.00000, Total charge =  0.00000
