  ==> Input File <==

--------------------------------------------------------------------------
set {
	reference rhf
	basis 6-31G*
}

set_num_threads( 4 )
memory 2 gb

molecule MOL {
0 1

O	 -0.906629	 1.972107	 1.994523
C	 -0.764601	 1.982761	 0.809554
C	 0.477768	 1.388962	 0.169065
C	 -1.819685	 2.553750	 -0.111393
C	 0.379448	 -0.143569	 0.099626
H	 1.328848	 1.669630	 0.779960
H	 0.626745	 1.796990	 -0.826599
C	 1.631333	 -0.777471	 -0.511575
H	 0.213439	 -0.517565	 1.103595
H	 -0.490598	 -0.428566	 -0.489902
C	 2.915987	 -0.544314	 0.291766
H	 1.766672	 -0.399098	 -1.523130
H	 1.471257	 -1.849544	 -0.605828
C	 3.373361	 0.914346	 0.347591
H	 3.708709	 -1.142521	 -0.150311
H	 2.780642	 -0.921148	 1.303579
H	 3.506512	 1.320010	 -0.651625
H	 4.322697	 0.999599	 0.867103
H	 2.660624	 1.545032	 0.868198
H	 -1.430389	 3.438163	 -0.608913
H	 -2.701235	 2.819440	 0.455232
H	 -2.080709	 1.839216	 -0.886707

	symmetry c1
}
set optking {
	frozen_dihedral = ("
		3 5 8 12
	")
}

ee = optimize('scf')
oeprop('DIPOLE', 'QUADRUPOLE', 'MULLIKEN_CHARGES')
f=open( 'psi4out.xyz', 'w' )
f.write( "22  " )
f.write( str(ee) + "\n" )
f.write( MOL.save_string_xyz() )
f.close()
--------------------------------------------------------------------------

    Molecular point group: c1
  Charge       = 0
  Multiplicity = 1
  Basis Set: 6-31G*
  Basis Set:
  @DF-RHF Final Energy:  -348.07347765046603
    Total Energy =                       -348.0734776504662022
    Molecular point group: c1
  Basis Set: 6-31G*
  Basis Set:
  Basis Set: 6-31G*
  Basis Set:
  @DF-RHF Final Energy:  -348.08846642339040
    Total Energy =                       -348.0884664233904005
  Basis Set: 6-31G*
  Basis Set:
  Basis Set: 6-31G*
  Basis Set:
  @DF-RHF Final Energy:  -348.09202945934055
    Total Energy =                       -348.0920294593403810
  Basis Set: 6-31G*
  Basis Set:
  Basis Set: 6-31G*
  Basis Set:
  @DF-RHF Final Energy:  -348.09233093892260
    Total Energy =                       -348.0923309389224301
  Basis Set: 6-31G*
  Basis Set:
  @DF-RHF Final Energy:  -348.09287372900121
    Total Energy =                       -348.0928737290010417
  @DF-RHF Final Energy:  -348.09360348261583
    Total Energy =                       -348.0936034826154355
  @DF-RHF Final Energy:  -348.09331644691133
    Total Energy =                       -348.0933164469116150
  @DF-RHF Final Energy:  -348.09365526297557
    Total Energy =                       -348.0936552629758012
  @DF-RHF Final Energy:  -348.09369002368544
    Total Energy =                       -348.0936900236854399
  Basis Set: 6-31G*
  Basis Set:
  @DF-RHF Final Energy:  -348.09373682510767
    Total Energy =                       -348.0937368251072144
  Basis Set: 6-31G*
  Basis Set:
  Basis Set: 6-31G*
  Basis Set:
  @DF-RHF Final Energy:  -348.09374822993806
    Total Energy =                       -348.0937482299381145
  Basis Set: 6-31G*
  Basis Set:
  Basis Set: 6-31G*
  Basis Set:
  @DF-RHF Final Energy:  -348.09375019587560
    Total Energy =                       -348.0937501958758276
  Basis Set: 6-31G*
  Basis Set:
  Charge       = 0
  Multiplicity = 1
  Basis Set: 6-31G*
  Basis Set:

    Orbital Energies (a.u.)
    -----------------------

    Doubly Occupied:

       1A    -20.547423     2A    -11.324427     3A    -11.230824
       4A    -11.228782     5A    -11.228223     6A    -11.222995
       7A    -11.220615     8A    -11.212829     9A     -1.393174
      10A     -1.094637    11A     -1.041903    12A     -0.999116
      13A     -0.944283    14A     -0.854549    15A     -0.786823
      16A     -0.735124    17A     -0.655714    18A     -0.653853
      19A     -0.620678    20A     -0.610488    21A     -0.596772
      22A     -0.593719    23A     -0.556683    24A     -0.551548
      25A     -0.532788    26A     -0.524188    27A     -0.498881
      28A     -0.486314    29A     -0.471271    30A     -0.463661
      31A     -0.454777    32A     -0.396135

  @DF-RHF Final Energy:  -348.09375076186888

   => Energetics <=

    Nuclear Repulsion Energy =            378.1825875221585989
    One-Electron Energy =               -1221.0862810577996243
    Two-Electron Energy =                 494.8099427737722635
    DFT Exchange-Correlation Energy =       0.0000000000000000
    Empirical Dispersion Energy =           0.0000000000000000
    PCM Polarization Energy =               0.0000000000000000
    EFP Energy =                            0.0000000000000000
    Total Energy =                       -348.0937507618687050
    Molecular point group: c1
  Basis Set: 6-31G*
  Basis Set:

  -Total Gradient:
     Atom            X                  Y                   Z
    ------   -----------------  -----------------  -----------------
       1        0.000002722380    -0.000002035837     0.000005156704
       2        0.000002253894     0.000003543270    -0.000015793646
       3       -0.000084005660     0.000041118692    -0.000173284582
       4       -0.000002013929     0.000000667793    -0.000000028035
       5        0.000138473292    -0.000013145000     0.000317481039
       6       -0.000031656328    -0.000001161488    -0.000016555343
       7       -0.000002687482    -0.000000502296    -0.000003874619
       8       -0.000233638910    -0.000245867794    -0.000254352209
       9        0.000001836626     0.000002003459     0.000004816868
      10        0.000008175324     0.000004814497    -0.000002817017
      11        0.000010985749     0.000009569251     0.000023436660
      12        0.000154187154     0.000211470653     0.000130692598
      13        0.000003932231     0.000003193798     0.000006742476
      14        0.000021261952    -0.000006605115    -0.000036267389
      15       -0.000011395303     0.000007974339    -0.000011104138
      16        0.000002516111    -0.000004756596     0.000006805705
      17        0.000007531833     0.000012878713     0.000001186463
      18        0.000001551254    -0.000003984060     0.000001692811
      19        0.000009952813    -0.000020789065     0.000016591114
      20       -0.000000840727     0.000000435826    -0.000001052247
      21        0.000000774755     0.000000062621     0.000000501890
      22        0.000000082976     0.000001114336     0.000000024887

  **** Optimization is complete! (in 13 steps) ****
    Final optimized geometry and variables:
    Molecular point group: c1

    Geometry (in Angstrom), charge = 0, multiplicity = 1:

    O           -1.897850471116     0.873215432801     1.620286869013
    C           -1.604943265405     0.995859666515     0.469869154615
    C           -0.244981281014     0.551940317534    -0.039599838648
    C           -2.572910475559     1.574397139402    -0.538512189485
    C           -0.241241008517    -0.963722682146    -0.299742035716
    H            0.481462676171     0.802802092806     0.722894562732
    H            0.013966335723     1.086237559307    -0.949554789446
    C            1.050424500630    -1.521433439189    -0.911241079931
    H           -0.448324930514    -1.471641047455     0.637362795431
    H           -1.062787632323    -1.209294423753    -0.969985078056
    C            2.312735073705    -1.414168483294    -0.033306102611
    H            1.233780021058    -1.043402438106    -1.871819354210
    H            0.867104876677    -2.569880281648    -1.129605164188
    C            3.171907727560    -0.172533205700    -0.286779995184
    H            2.932773190983    -2.288437377759    -0.210587563305
    H            2.031135162344    -1.457700074036     1.016396494901
    H            3.515635243470    -0.146479330345    -1.317056148416
    H            4.049625190922    -0.175907533825     0.352262302330
    H            2.633862644828     0.749427817440    -0.097629407122
    H           -2.202439704448     2.534529452422    -0.888119246099
    H           -3.544063572372     1.709834628004    -0.083221246418
    H           -2.659037826996     0.928795467851    -1.407458404052

  Mulliken Charges: (a.u.)
   Center  Symbol    Alpha    Beta     Spin     Total
       1     O     4.26219  4.26219  0.00000 -0.52437
       2     C     2.73695  2.73695  0.00000  0.52611
       3     C     3.20203  3.20203  0.00000 -0.40407
       4     C     3.28953  3.28953  0.00000 -0.57907
       5     C     3.16277  3.16277  0.00000 -0.32554
       6     H     0.39917  0.39917  0.00000  0.20167
       7     H     0.41714  0.41714  0.00000  0.16572
       8     C     3.15495  3.15495  0.00000 -0.30990
       9     H     0.40669  0.40669  0.00000  0.18662
      10     H     0.42015  0.42015  0.00000  0.15971
      11     C     3.15778  3.15778  0.00000 -0.31556
      12     H     0.42238  0.42238  0.00000  0.15523
      13     H     0.41670  0.41670  0.00000  0.16660
      14     C     3.24110  3.24110  0.00000 -0.48220
      15     H     0.41838  0.41838  0.00000  0.16323
      16     H     0.41820  0.41820  0.00000  0.16359
      17     H     0.42162  0.42162  0.00000  0.15676
      18     H     0.41824  0.41824  0.00000  0.16352
      19     H     0.42048  0.42048  0.00000  0.15904
      20     H     0.40668  0.40668  0.00000  0.18664
      21     H     0.39700  0.39700  0.00000  0.20600
      22     H     0.40986  0.40986  0.00000  0.18028

   Total alpha = 32.00000, Total beta = 32.00000, Total charge =  0.00000
