                              Psi4 1.0.54 Driver

  ==> Input File <==

--------------------------------------------------------------------------
set {
	reference rhf
	basis cc-pvtz
}

set_num_threads( 4 )
memory 2 gb

molecule MOL {
0 1

H	 -4.230259	 0.539112	 0.036360
O	 -3.515113	 -0.019339	 -0.206321
C	 -2.302264	 0.528872	 0.237390
C	 -1.175688	 -0.398187	 -0.171891
H	 -2.148018	 1.514076	 -0.197759
H	 -2.310727	 0.646384	 1.319032
C	 0.196029	 0.106276	 0.266738
H	 -1.201873	 -0.515469	 -1.250677
H	 -1.365975	 -1.378728	 0.252664
C	 1.330220	 -0.826136	 -0.155230
H	 0.359542	 1.097229	 -0.145561
H	 0.212134	 0.218135	 1.348778
C	 2.719700	 -0.407669	 0.328325
H	 1.339388	 -0.911200	 -1.239363
H	 1.119001	 -1.821953	 0.224128
C	 3.599319	 0.239510	 -0.738815
H	 3.228213	 -1.287367	 0.710756
H	 2.616596	 0.271450	 1.170703
H	 3.714658	 -0.414485	 -1.597330
H	 3.187117	 1.177460	 -1.090989
H	 4.588848	 0.446423	 -0.347419

	symmetry c1
}
set optking {
	frozen_dihedral = ("
		16 13 10 14
	")
}

ee,wfn = optimize('scf', return_wfn=True)
oeprop( wfn, 'DIPOLE', 'QUADRUPOLE', 'MULLIKEN_CHARGES')
f=open( 'psi4out.xyz', 'w' )
f.write( "21  " )
f.write( str(ee) + "\n" )
f.write( MOL.save_string_xyz() )
f.close()
--------------------------------------------------------------------------

    Molecular point group: c1
  Charge       = 0
  Multiplicity = 1
  Basis Set: CC-PVTZ
  Basis Set:
  @DF-RHF Final Energy:  -310.32956472121509
    Total Energy =                       -310.3295647212150925
    Molecular point group: c1
  Basis Set: CC-PVTZ
  Basis Set:
  Basis Set: CC-PVTZ
  Basis Set:
  @DF-RHF Final Energy:  -310.32996317395020
    Total Energy =                       -310.3299631739499773
  Basis Set: CC-PVTZ
  Basis Set:
  Basis Set: CC-PVTZ
  Basis Set:
  @DF-RHF Final Energy:  -310.33022213119727
    Total Energy =                       -310.3302221311977291
  Basis Set: CC-PVTZ
  Basis Set:
  Basis Set: CC-PVTZ
  Basis Set:
  @DF-RHF Final Energy:  -310.33023047257058
    Total Energy =                       -310.3302304725704062
  Basis Set: CC-PVTZ
  Basis Set:
  Basis Set: CC-PVTZ
  Basis Set:
  @DF-RHF Final Energy:  -310.33023547050476
    Total Energy =                       -310.3302354705047037
  Basis Set: CC-PVTZ
  Basis Set:
  Charge       = 0
  Multiplicity = 1
  Basis Set: CC-PVTZ
  Basis Set:

    Orbital Energies (a.u.)
    -----------------------

    Doubly Occupied:

       1A    -20.545399     2A    -11.265053     3A    -11.213806
       4A    -11.212563     5A    -11.210901     6A    -11.208812
       7A    -11.206658     8A     -1.363248     9A     -1.086563
      10A     -1.034466    11A     -0.956716    12A     -0.870535
      13A     -0.805033    14A     -0.787295    15A     -0.696284
      16A     -0.662861    17A     -0.621380    18A     -0.609052
      19A     -0.587967    20A     -0.566945    21A     -0.540821
      22A     -0.522610    23A     -0.508220    24A     -0.487712
      25A     -0.479565    26A     -0.463130    27A     -0.454835
      28A     -0.442717    29A     -0.437414

  @DF-RHF Final Energy:  -310.33023564611443

   => Energetics <=

    Nuclear Repulsion Energy =            311.3334267324933649
    One-Electron Energy =               -1037.6301992829014580
    Two-Electron Energy =                 415.9665369042936049
    DFT Exchange-Correlation Energy =       0.0000000000000000
    Empirical Dispersion Energy =           0.0000000000000000
    PCM Polarization Energy =               0.0000000000000000
    EFP Energy =                            0.0000000000000000
    Total Energy =                       -310.3302356461145450
    Molecular point group: c1
  Basis Set: CC-PVTZ
  Basis Set:

  -Total Gradient:
     Atom            X                  Y                   Z
    ------   -----------------  -----------------  -----------------
       1        0.000002739465    -0.000001043393    -0.000001287412
       2       -0.000015791311    -0.000009918303    -0.000006766185
       3        0.000011417592     0.000000711055     0.000007781319
       4       -0.000020414383     0.000006448878     0.000008679340
       5        0.000003855837     0.000010329578    -0.000006471867
       6       -0.000000416939    -0.000000421663     0.000014710901
       7       -0.000021085498     0.000008182063    -0.000008904754
       8       -0.000000534098     0.000002429919    -0.000012178717
       9       -0.000003230562    -0.000018607671     0.000003308450
      10        0.001521936256    -0.004449335746     0.000044373470
      11        0.000002527235     0.000014989126    -0.000016237276
      12        0.000012871576     0.000005557901     0.000015280783
      13       -0.001459079292     0.003475051588     0.000767255883
      14       -0.000949573114     0.002961858424    -0.000226333208
      15        0.000003092380    -0.000000137153    -0.000005343409
      16        0.000881443516    -0.002010618223    -0.000574494466
      17        0.000008381817    -0.000020640262     0.000015311477
      18       -0.000000810513    -0.000003615780    -0.000000603016
      19        0.000006773661    -0.000027695554    -0.000002813562
      20       -0.000026229003     0.000033484338    -0.000027102930
      21        0.000042125383     0.000022990877     0.000011835179

  **** Optimization is complete! (in 6 steps) ****
    Final optimized geometry and variables:
    Molecular point group: c1

    Geometry (in Angstrom), charge = 0, multiplicity = 1:

    H           -4.250672654883     0.715161072753     0.043489550002
    O           -3.542989240049     0.150931436404    -0.207395461321
    C           -2.331138583114     0.639748768600     0.303378551529
    C           -1.216547663361    -0.294866887056    -0.121331447690
    H           -2.136744631548     1.642417101833    -0.071749290626
    H           -2.371713682842     0.698508981783     1.389040462142
    C            0.153072885292     0.147849906442     0.382775901730
    H           -1.213303003203    -0.355817660811    -1.205005909210
    H           -1.444280000317    -1.290726578788     0.245779506787
    C            1.280122690856    -0.800072779788    -0.028174282099
    H            0.371555277908     1.146249832281     0.010127090065
    H            0.133387012121     0.225811982624     1.467157948883
    C            2.672224538770    -0.318429416186     0.417941426676
    H            1.261312335666    -0.893384618663    -1.110133527095
    H            1.075112571804    -1.785324201364     0.376341491698
    C            3.470398094328     0.351389993570    -0.697672978319
    H            3.246732892850    -1.161091575601     0.788373909381
    H            2.571507960301     0.364814529824     1.255390123569
    H            3.658947503648    -0.344727676913    -1.507638927638
    H            2.937244442360     1.201316197858    -1.112056368178
    H            4.428447103629     0.708401777852    -0.336668336281

  Mulliken Charges: (a.u.)
   Center  Symbol    Alpha    Beta     Spin     Total
       1     H     0.39760  0.39760  0.00000  0.20479
       2     O     4.19434  4.19434  0.00000 -0.38867
       3     C     2.96312  2.96312  0.00000  0.07376
       4     C     3.08572  3.08572  0.00000 -0.17145
       5     H     0.47499  0.47499  0.00000  0.05002
       6     H     0.47484  0.47484  0.00000  0.05033
       7     C     3.10066  3.10066  0.00000 -0.20132
       8     H     0.45064  0.45064  0.00000  0.09871
       9     H     0.45103  0.45103  0.00000  0.09793
      10     C     3.09456  3.09456  0.00000 -0.18912
      11     H     0.45503  0.45503  0.00000  0.08995
      12     H     0.45496  0.45496  0.00000  0.09007
      13     C     3.09045  3.09045  0.00000 -0.18091
      14     H     0.45482  0.45482  0.00000  0.09036
      15     H     0.44687  0.44687  0.00000  0.10626
      16     C     3.14724  3.14724  0.00000 -0.29448
      17     H     0.44885  0.44885  0.00000  0.10229
      18     H     0.45489  0.45489  0.00000  0.09022
      19     H     0.45434  0.45434  0.00000  0.09132
      20     H     0.45573  0.45573  0.00000  0.08853
      21     H     0.44930  0.44930  0.00000  0.10140

   Total alpha = 29.00000, Total beta = 29.00000, Total charge =  0.00000

*** Psi4 exiting successfully. Buy a developer a beer!
