  ==> Input File <==

--------------------------------------------------------------------------
set {
	reference rhf
	basis 6-31G*
}

set_num_threads( 4 )
memory 2 gb

molecule MOL {
0 1

H	 -3.122099	 -1.229338	 0.024407
O	 -2.296894	 -0.886512	 -0.287495
C	 -2.026376	 0.340750	 0.341611
C	 -0.673256	 0.843270	 -0.132153
H	 -2.795603	 1.070625	 0.095626
H	 -2.020638	 0.222057	 1.424446
C	 0.486613	 -0.083066	 0.235839
H	 -0.715586	 0.970948	 -1.210718
H	 -0.508072	 1.829858	 0.297090
C	 1.840406	 0.433480	 -0.254303
H	 0.300215	 -1.068318	 -0.178947
H	 0.519509	 -0.203625	 1.318070
C	 3.000220	 -0.489290	 0.118523
H	 1.809207	 0.553576	 -1.335192
H	 2.021860	 1.424500	 0.157276
H	 2.864959	 -1.479103	 -0.307933
H	 3.946603	 -0.099227	 -0.243630
H	 3.080049	 -0.602997	 1.196117

	symmetry c1
}
set optking {
	frozen_dihedral = ("
		2 3 4 8
	")
}

ee = optimize('scf')
oeprop('DIPOLE', 'QUADRUPOLE', 'MULLIKEN_CHARGES')
f=open( 'psi4out.xyz', 'w' )
f.write( "18  " )
f.write( str(ee) + "\n" )
f.write( MOL.save_string_xyz() )
f.close()
--------------------------------------------------------------------------

    Molecular point group: c1
  Charge       = 0
  Multiplicity = 1
  Basis Set: 6-31G*
  Basis Set:
  @DF-RHF Final Energy:  -271.17994663962816
    Total Energy =                       -271.1799466396279286
    Molecular point group: c1
  Basis Set: 6-31G*
  Basis Set:
  Basis Set: 6-31G*
  Basis Set:
  @DF-RHF Final Energy:  -271.17994771523331
    Total Energy =                       -271.1799477152330837
  Basis Set: 6-31G*
  Basis Set:
  Charge       = 0
  Multiplicity = 1
  Basis Set: 6-31G*
  Basis Set:

    Orbital Energies (a.u.)
    -----------------------

    Doubly Occupied:

       1A    -20.553062     2A    -11.268073     3A    -11.212025
       4A    -11.210656     5A    -11.206266     6A    -11.204455
       7A     -1.359783     8A     -1.074670     9A     -1.008685
      10A     -0.913080    11A     -0.817558    12A     -0.783676
      13A     -0.704900    14A     -0.642153    15A     -0.625157
      16A     -0.579290    17A     -0.570868    18A     -0.557939
      19A     -0.522236    20A     -0.500650    21A     -0.487994
      22A     -0.467254    23A     -0.458124    24A     -0.447756
      25A     -0.428869

  @DF-RHF Final Energy:  -271.17994866824728

   => Energetics <=

    Nuclear Repulsion Energy =            249.0809682358839723
    One-Electron Energy =                -861.3114714455851981
    Two-Electron Energy =                 341.0505545414540620
    DFT Exchange-Correlation Energy =       0.0000000000000000
    Empirical Dispersion Energy =           0.0000000000000000
    PCM Polarization Energy =               0.0000000000000000
    EFP Energy =                            0.0000000000000000
    Total Energy =                       -271.1799486682472207
    Molecular point group: c1
  Basis Set: 6-31G*
  Basis Set:

  -Total Gradient:
     Atom            X                  Y                   Z
    ------   -----------------  -----------------  -----------------
       1       -0.000001450495    -0.000002947297    -0.000001071197
       2        0.000109141285    -0.000148690316     0.000204445612
       3       -0.000187872509     0.000269790432    -0.000244039773
       4        0.000169635332    -0.000448944025    -0.000027552031
       5        0.000000878145     0.000013389135     0.000013323624
       6        0.000001016647    -0.000014175071    -0.000008774418
       7        0.000022802925    -0.000026816065     0.000028056081
       8       -0.000094433850     0.000354359008     0.000050756774
       9       -0.000016853049    -0.000014694647    -0.000011161092
      10       -0.000011490829    -0.000003475722    -0.000024409414
      11       -0.000000898198     0.000022841167     0.000014961335
      12        0.000003404772    -0.000009751557     0.000005842039
      13       -0.000001247586     0.000008133507     0.000012369548
      14        0.000007185157    -0.000001123485    -0.000007761591
      15        0.000002720647     0.000001797582    -0.000006290873
      16        0.000000695194     0.000002193236    -0.000005364279
      17       -0.000000889876     0.000004501007     0.000007230711
      18       -0.000002343711    -0.000006386888    -0.000000561055

  **** Optimization is complete! (in 3 steps) ****
    Final optimized geometry and variables:
    Molecular point group: c1

    Geometry (in Angstrom), charge = 0, multiplicity = 1:

    H           -3.131008402574    -1.221733594589     0.021125004868
    O           -2.303798926648    -0.883230651889    -0.290232227282
    C           -2.028143774137     0.343402688608     0.337819851700
    C           -0.675019249485     0.843378212921    -0.138760613314
    H           -2.796099209107     1.075656765754     0.094979841837
    H           -2.019142600156     0.223846874386     1.420552095004
    C            0.485351890306    -0.081508386614     0.230849380522
    H           -0.717747764578     0.971944455309    -1.217210195872
    H           -0.510030400737     1.830635775696     0.289147507972
    C            1.838961489184     0.437007002225    -0.257788731008
    H            0.300903015816    -1.067111250828    -0.183668836545
    H            0.516972150593    -0.201714568127     1.313192441777
    C            2.999357774534    -0.485057790005     0.114938299804
    H            1.808525641233     0.558156068473    -1.338559072540
    H            2.019209969352     1.427805252847     0.154936491442
    H            2.865703952240    -1.474381013063    -0.313235147084
    H            3.945720987026    -0.093363489836    -0.245440692289
    H            3.078012079562    -0.600387871543     1.192423961499

  Mulliken Charges: (a.u.)
   Center  Symbol    Alpha    Beta     Spin     Total
       1     H     0.28056  0.28056  0.00000  0.43888
       2     O     4.36963  4.36963  0.00000 -0.73925
       3     C     2.99716  2.99716  0.00000  0.00567
       4     C     3.16039  3.16039  0.00000 -0.32079
       5     H     0.42927  0.42927  0.00000  0.14146
       6     H     0.43265  0.43265  0.00000  0.13470
       7     C     3.15287  3.15287  0.00000 -0.30573
       8     H     0.41534  0.41534  0.00000  0.16931
       9     H     0.42424  0.42424  0.00000  0.15152
      10     C     3.15181  3.15181  0.00000 -0.30363
      11     H     0.40769  0.40769  0.00000  0.18461
      12     H     0.42766  0.42766  0.00000  0.14468
      13     C     3.23890  3.23890  0.00000 -0.47779
      14     H     0.42253  0.42253  0.00000  0.15495
      15     H     0.42536  0.42536  0.00000  0.14928
      16     H     0.42087  0.42087  0.00000  0.15825
      17     H     0.42039  0.42039  0.00000  0.15922
      18     H     0.42268  0.42268  0.00000  0.15464

   Total alpha = 25.00000, Total beta = 25.00000, Total charge = -0.00000
