                              Psi4 1.0.54 Driver

  ==> Input File <==

--------------------------------------------------------------------------
set {
	reference rhf
	basis cc-pvtz
}

set_num_threads( 4 )
memory 2 gb

molecule MOL {
0 1

O	 0.622867	 1.345995	 -0.057015
C	 0.485107	 0.171416	 -0.000134
C	 1.606966	 -0.836201	 0.000174
O	 -0.694142	 -0.420812	 0.072135
C	 2.988788	 -0.202529	 -0.000115
H	 1.465110	 -1.474645	 -0.864821
H	 1.465209	 -1.474077	 0.865596
H	 3.131767	 0.419673	 -0.873407
H	 3.750876	 -0.972315	 0.000098
H	 3.131883	 0.420264	 0.872742
C	 -1.850764	 0.404067	 0.081520
C	 -3.060114	 -0.497456	 0.166463
H	 -1.864571	 1.002896	 -0.818236
H	 -1.797494	 1.077284	 0.925478
H	 -3.102316	 -1.167488	 -0.683037
H	 -3.962894	 0.101824	 0.175581
H	 -3.034911	 -1.092631	 1.070621

	symmetry c1
}
set optking {
	frozen_dihedral = ("
		4 2 3 6
	")
}

ee,wfn = optimize('scf', return_wfn=True)
oeprop( wfn, 'DIPOLE', 'QUADRUPOLE', 'MULLIKEN_CHARGES')
f=open( 'psi4out.xyz', 'w' )
f.write( "17  " )
f.write( str(ee) + "\n" )
f.write( MOL.save_string_xyz() )
f.close()
--------------------------------------------------------------------------

    Molecular point group: c1
  Charge       = 0
  Multiplicity = 1
  Basis Set: CC-PVTZ
  Basis Set:
  @DF-RHF Final Energy:  -345.04063003836808
    Total Energy =                       -345.0406300383681355
    Molecular point group: c1
  Basis Set: CC-PVTZ
  Basis Set:
  Basis Set: CC-PVTZ
  Basis Set:
  @DF-RHF Final Energy:  -345.04062830826200
    Total Energy =                       -345.0406283082619439
  Basis Set: CC-PVTZ
  Basis Set:
  Basis Set: CC-PVTZ
  Basis Set:
  @DF-RHF Final Energy:  -345.04062551850734
    Total Energy =                       -345.0406255185075679
  Basis Set: CC-PVTZ
  Basis Set:
  Basis Set: CC-PVTZ
  Basis Set:
  @DF-RHF Final Energy:  -345.04063472360997
    Total Energy =                       -345.0406347236099691
  Basis Set: CC-PVTZ
  Basis Set:
  Charge       = 0
  Multiplicity = 1
  Basis Set: CC-PVTZ
  Basis Set:

    Orbital Energies (a.u.)
    -----------------------

    Doubly Occupied:

       1A    -20.593479     2A    -20.532876     3A    -11.363487
       4A    -11.282580     5A    -11.235872     6A    -11.220349
       7A    -11.213827     8A     -1.470502     9A     -1.364873
      10A     -1.070888    11A     -1.032556    12A     -0.911843
      13A     -0.847642    14A     -0.774862    15A     -0.698048
      16A     -0.692579    17A     -0.667849    18A     -0.630442
      19A     -0.584351    20A     -0.573864    21A     -0.558614
      22A     -0.524737    23A     -0.519978    24A     -0.515116
      25A     -0.505737    26A     -0.493974    27A     -0.456054
      28A     -0.439318

  @DF-RHF Final Energy:  -345.04063476141414

   => Energetics <=

    Nuclear Repulsion Energy =            315.2208531618623510
    One-Electron Energy =               -1094.9703829990862687
    Two-Electron Energy =                 434.7088950758097212
    DFT Exchange-Correlation Energy =       0.0000000000000000
    Empirical Dispersion Energy =           0.0000000000000000
    PCM Polarization Energy =               0.0000000000000000
    EFP Energy =                            0.0000000000000000
    Total Energy =                       -345.0406347614141964
    Molecular point group: c1
  Basis Set: CC-PVTZ
  Basis Set:

  -Total Gradient:
     Atom            X                  Y                   Z
    ------   -----------------  -----------------  -----------------
       1       -0.000002353974     0.000011799150     0.000011640062
       2        0.000007893312    -0.000009356547    -0.000219043442
       3       -0.000112864526    -0.000124751353     0.000134247684
       4        0.000015193214     0.000012223536     0.000169775347
       5        0.000002070441     0.000001624261     0.000020859216
       6        0.000091154313     0.000100143019    -0.000089664224
       7       -0.000000248107     0.000007211806    -0.000001446035
       8       -0.000003016827    -0.000002424279    -0.000000022356
       9       -0.000001143275     0.000001154816    -0.000000320584
      10        0.000005112490     0.000001722478    -0.000002532619
      11       -0.000003749797    -0.000001367643    -0.000072061009
      12       -0.000000363121     0.000001536757     0.000021031706
      13       -0.000006483517     0.000003057593     0.000012801051
      14        0.000008201037    -0.000003221279     0.000011514761
      15        0.000006290819     0.000006267361     0.000000639836
      16       -0.000000123702    -0.000000524941     0.000002021564
      17       -0.000005568786    -0.000005094729     0.000000559043

  **** Optimization is complete! (in 5 steps) ****
    Final optimized geometry and variables:
    Molecular point group: c1

    Geometry (in Angstrom), charge = 0, multiplicity = 1:

    O            0.622804081951     1.345149842083    -0.087158835300
    C            0.484547608179     0.170480774255    -0.033323150762
    C            1.606015974613    -0.837587364889    -0.037615993088
    O           -0.695040942202    -0.421481812360     0.035491348267
    C            2.987977631482    -0.203992836545    -0.042500780974
    H            1.461434592293    -1.470067187692    -0.906967648840
    H            1.467599153220    -1.480572737872     0.824034310900
    H            3.125734231144     0.422901508526    -0.913049321995
    H            3.749946128576    -0.973843299261    -0.050443227203
    H            3.136447108631     0.414006150649     0.833068167145
    C           -1.851607419909     0.403502715613     0.038427850209
    C           -3.061267421695    -0.497580161423     0.123849281687
    H           -1.863052813684     0.998887099499    -0.863648506505
    H           -1.800420798869     1.079941098468     0.879920881878
    H           -3.101384159720    -1.170876447704    -0.723157655220
    H           -3.964002113142     0.101805040626     0.128390963851
    H           -3.038411053292    -1.089267470194     1.030356291366

  Mulliken Charges: (a.u.)
   Center  Symbol    Alpha    Beta     Spin     Total
       1     O     4.19688  4.19688  0.00000 -0.39375
       2     C     2.80920  2.80920  0.00000  0.38161
       3     C     3.09341  3.09341  0.00000 -0.18682
       4     O     4.15117  4.15117  0.00000 -0.30234
       5     C     3.13973  3.13973  0.00000 -0.27945
       6     H     0.44209  0.44209  0.00000  0.11582
       7     H     0.44124  0.44124  0.00000  0.11752
       8     H     0.44778  0.44778  0.00000  0.10443
       9     H     0.45057  0.45057  0.00000  0.09886
      10     H     0.44906  0.44906  0.00000  0.10187
      11     C     2.98044  2.98044  0.00000  0.03913
      12     C     3.13308  3.13308  0.00000 -0.26615
      13     H     0.45406  0.45406  0.00000  0.09187
      14     H     0.45398  0.45398  0.00000  0.09203
      15     H     0.45145  0.45145  0.00000  0.09711
      16     H     0.45446  0.45446  0.00000  0.09108
      17     H     0.45141  0.45141  0.00000  0.09718

   Total alpha = 28.00000, Total beta = 28.00000, Total charge = -0.00000

*** Psi4 exiting successfully. Buy a developer a beer!
