  ==> Input File <==

--------------------------------------------------------------------------
set {
	reference rhf
	basis cc-pvtz
}

set_num_threads( 4 )
memory 2 gb

molecule MOL {
0 1

O	 1.127672	 -0.349825	 -0.111557
C	 0.029490	 0.077183	 0.000078
C	 -1.232113	 -0.748027	 0.000015
O	 -0.237283	 1.364736	 0.142456
C	 -2.501422	 0.088592	 -0.000052
H	 -1.188777	 -1.400384	 -0.865133
H	 -1.188857	 -1.400312	 0.865225
H	 -2.548170	 0.725504	 -0.873205
H	 -3.371613	 -0.556398	 -0.000040
H	 -2.548215	 0.725571	 0.873047
C	 0.859087	 2.256542	 0.159669
H	 1.522499	 2.029254	 0.980924
H	 0.439590	 3.241899	 0.281812
H	 1.411892	 2.198783	 -0.766244

	symmetry c1
}
set optking {
	frozen_dihedral = ("
		4 2 3 6
	")
}

ee = optimize('scf')
oeprop('DIPOLE', 'QUADRUPOLE', 'MULLIKEN_CHARGES')
f=open( 'psi4out.xyz', 'w' )
f.write( "14  " )
f.write( str(ee) + "\n" )
f.write( MOL.save_string_xyz() )
f.close()
--------------------------------------------------------------------------

    Molecular point group: c1
  Charge       = 0
  Multiplicity = 1
  Basis Set: CC-PVTZ
  Basis Set:
  @DF-RHF Final Energy:  -305.98376292507589
    Total Energy =                       -305.9837629250756663
    Molecular point group: c1
  Basis Set: CC-PVTZ
  Basis Set:
  Basis Set: CC-PVTZ
  Basis Set:
  @DF-RHF Final Energy:  -305.98473777380366
    Total Energy =                       -305.9847377738034311
  Basis Set: CC-PVTZ
  Basis Set:
  Basis Set: CC-PVTZ
  Basis Set:
  @DF-RHF Final Energy:  -305.98508016765965
    Total Energy =                       -305.9850801676594756
  Basis Set: CC-PVTZ
  Basis Set:
  Basis Set: CC-PVTZ
  Basis Set:
  @DF-RHF Final Energy:  -305.98506864134401
    Total Energy =                       -305.9850686413441281
  Basis Set: CC-PVTZ
  Basis Set:
  Basis Set: CC-PVTZ
  Basis Set:
  @DF-RHF Final Energy:  -305.98507390748773
    Total Energy =                       -305.9850739074876174
  Basis Set: CC-PVTZ
  Basis Set:
  Charge       = 0
  Multiplicity = 1
  Basis Set: CC-PVTZ
  Basis Set:

    Orbital Energies (a.u.)
    -----------------------

    Doubly Occupied:

       1A    -20.600289     2A    -20.530047     3A    -11.365647
       4A    -11.280114     5A    -11.237542     6A    -11.219264
       7A     -1.474284     8A     -1.364941     9A     -1.066976
      10A     -0.976307    11A     -0.888295    12A     -0.777472
      13A     -0.697063    14A     -0.686517    15A     -0.675051
      16A     -0.622472    17A     -0.587254    18A     -0.559119
      19A     -0.549494    20A     -0.524133    21A     -0.517644
      22A     -0.500406    23A     -0.457415    24A     -0.437062

  @DF-RHF Final Energy:  -305.98510448540992

   => Energetics <=

    Nuclear Repulsion Energy =            248.8620919773145772
    One-Electron Energy =                -910.5047761578540531
    Two-Electron Energy =                 355.6575796951293000
    DFT Exchange-Correlation Energy =       0.0000000000000000
    Empirical Dispersion Energy =           0.0000000000000000
    PCM Polarization Energy =               0.0000000000000000
    EFP Energy =                            0.0000000000000000
    Total Energy =                       -305.9851044854102042
    Molecular point group: c1
  Basis Set: CC-PVTZ
  Basis Set:

  -Total Gradient:
     Atom            X                  Y                   Z
    ------   -----------------  -----------------  -----------------
       1       -0.000082259001     0.000061676990     0.000092384008
       2        0.000103366051    -0.000210545935    -0.000036126016
       3        0.000107084472    -0.000105807848     0.000132431566
       4       -0.000003433673     0.000164100191    -0.000092145499
       5        0.000010139423    -0.000005710020    -0.000005524891
       6       -0.000091534045     0.000141716032    -0.000108290204
       7       -0.000017839177    -0.000016434512     0.000009618545
       8        0.000003349725    -0.000001256212     0.000004643834
       9       -0.000001428436    -0.000007121906     0.000002435432
      10        0.000003079874     0.000000893942    -0.000000935319
      11       -0.000060956584    -0.000053128194    -0.000003329616
      12        0.000013528537     0.000012060305     0.000006270449
      13        0.000006417244     0.000008586834     0.000002177944
      14        0.000010485588     0.000010970336    -0.000003610233

  **** Optimization is complete! (in 6 steps) ****
    Final optimized geometry and variables:
    Molecular point group: c1

    Geometry (in Angstrom), charge = 0, multiplicity = 1:

    O            1.413484722840    -0.834518158027    -0.129103608398
    C            0.329163796232    -0.367532594301    -0.032234360954
    C           -0.930676978425    -1.203121395099    -0.037462592736
    O            0.110279438679     0.927130189041     0.098963498888
    C           -2.255439051654    -0.452643846034    -0.032040342371
    H           -0.853528620542    -1.848362875468    -0.903872557868
    H           -0.854548699151    -1.855371089126     0.825359068411
    H           -2.350657948275     0.188705055470    -0.898519894780
    H           -3.075156468407    -1.160639491031    -0.045910613084
    H           -2.358097216187     0.165185082437     0.849785991114
    C            1.241333639215     1.775432112876     0.123468750113
    H            1.885281414333     1.526322819500     0.953542369563
    H            0.859007899829     2.777058603178     0.234722354096
    H            1.801350451153     1.688576451012    -0.795514007828

  Mulliken Charges: (a.u.)
   Center  Symbol    Alpha    Beta     Spin     Total
       1     O     4.20477  4.20477  0.00000 -0.40955
       2     C     2.80443  2.80443  0.00000  0.39114
       3     C     3.09194  3.09194  0.00000 -0.18388
       4     O     4.14151  4.14151  0.00000 -0.28302
       5     C     3.13972  3.13972  0.00000 -0.27944
       6     H     0.43800  0.43800  0.00000  0.12400
       7     H     0.44039  0.44039  0.00000  0.11921
       8     H     0.45048  0.45048  0.00000  0.09904
       9     H     0.44948  0.44948  0.00000  0.10103
      10     H     0.44959  0.44959  0.00000  0.10083
      11     C     3.03636  3.03636  0.00000 -0.07271
      12     H     0.45330  0.45330  0.00000  0.09340
      13     H     0.44680  0.44680  0.00000  0.10640
      14     H     0.45322  0.45322  0.00000  0.09355

   Total alpha = 24.00000, Total beta = 24.00000, Total charge = -0.00000
