  ==> Input File <==

--------------------------------------------------------------------------
set {
	reference rhf
	basis cc-pvtz
}

set_num_threads( 4 )
memory 2 gb

molecule MOL {
0 1

H	 -2.202844	 0.232365	 2.556094
C	 -1.809542	 -0.710089	 2.930231
O	 -0.613226	 -1.043801	 2.309743
H	 -1.616697	 -0.610610	 3.988438
H	 -2.564707	 -1.480217	 2.783558
C	 -0.709081	 -1.215920	 0.933944
C	 0.659923	 -1.470497	 0.354837
H	 -1.353023	 -2.064650	 0.703800
H	 -1.137368	 -0.332980	 0.464457
O	 1.401606	 -0.295166	 0.366636
H	 1.155912	 -2.244517	 0.936489
H	 0.548888	 -1.836391	 -0.665832
C	 2.714315	 -0.441627	 -0.061017
H	 2.765292	 -0.641548	 -1.128869
H	 3.305661	 0.447341	 0.150952
H	 3.143725	 -1.278506	 0.470147

	symmetry c1
}
set optking {
	frozen_dihedral = ("
		7 10 13 14
	")
}

ee = optimize('scf')
oeprop('DIPOLE', 'QUADRUPOLE', 'MULLIKEN_CHARGES')
f=open( 'psi4out.xyz', 'w' )
f.write( "16  " )
f.write( str(ee) + "\n" )
f.write( MOL.save_string_xyz() )
f.close()
--------------------------------------------------------------------------

    Molecular point group: c1
  Charge       = 0
  Multiplicity = 1
  Basis Set: CC-PVTZ
  Basis Set:
  @DF-RHF Final Energy:  -307.09657791258309
    Total Energy =                       -307.0965779125828021
    Molecular point group: c1
  Basis Set: CC-PVTZ
  Basis Set:
  Basis Set: CC-PVTZ
  Basis Set:
  @DF-RHF Final Energy:  -307.09750755997686
    Total Energy =                       -307.0975075599768616
  Basis Set: CC-PVTZ
  Basis Set:
  Basis Set: CC-PVTZ
  Basis Set:
  @DF-RHF Final Energy:  -307.09772726756358
    Total Energy =                       -307.0977272675636982
  Basis Set: CC-PVTZ
  Basis Set:
  Charge       = 0
  Multiplicity = 1
  Basis Set: CC-PVTZ
  Basis Set:

    Orbital Energies (a.u.)
    -----------------------

    Doubly Occupied:

       1A    -20.547812     2A    -20.547664     3A    -11.267573
       4A    -11.266892     5A    -11.261612     6A    -11.261534
       7A     -1.391709     8A     -1.374468     9A     -1.032137
      10A     -0.937273    11A     -0.892185    12A     -0.824368
      13A     -0.686390    14A     -0.682780    15A     -0.659411
      16A     -0.638485    17A     -0.632088    18A     -0.598407
      19A     -0.551401    20A     -0.535970    21A     -0.509720
      22A     -0.479600    23A     -0.464745    24A     -0.423368
      25A     -0.413561

  @DF-RHF Final Energy:  -307.09772832804407

   => Energetics <=

    Nuclear Repulsion Energy =            258.9027324550045819
    One-Electron Energy =                -932.2386188108547458
    Two-Electron Energy =                 366.2381580278062074
    DFT Exchange-Correlation Energy =       0.0000000000000000
    Empirical Dispersion Energy =           0.0000000000000000
    PCM Polarization Energy =               0.0000000000000000
    EFP Energy =                            0.0000000000000000
    Total Energy =                       -307.0977283280438996
    Molecular point group: c1
  Basis Set: CC-PVTZ
  Basis Set:

  -Total Gradient:
     Atom            X                  Y                   Z
    ------   -----------------  -----------------  -----------------
       1        0.000002323954    -0.000000306871    -0.000001720924
       2        0.000001625605    -0.000000797445     0.000004897309
       3       -0.000005184882    -0.000012964600     0.000031227983
       4       -0.000000275404    -0.000001052783    -0.000000669267
       5       -0.000002070233    -0.000000755526     0.000000974949
       6        0.000050026324     0.000108403161     0.000000500200
       7        0.000359029852    -0.000306790912     0.000934452913
       8        0.000055029881    -0.000000073172    -0.000012863048
       9       -0.000022647123     0.000008974286    -0.000016827080
      10       -0.000414921372     0.000729532208    -0.001529066085
      11        0.000023775598     0.000021090583     0.000011951161
      12       -0.000006280435    -0.000010583816     0.000000309747
      13        0.000025685522    -0.001903384292     0.000766569377
      14       -0.000006172458     0.001357636045    -0.000215525002
      15       -0.000044441254     0.000024665123     0.000011189540
      16       -0.000015503577    -0.000013591990     0.000014598228

  **** Optimization is complete! (in 4 steps) ****
    Final optimized geometry and variables:
    Molecular point group: c1

    Geometry (in Angstrom), charge = 0, multiplicity = 1:

    H           -2.473107386385     1.103035038820     1.413949361376
    C           -2.087259797915     0.156122809805     1.784545298352
    O           -0.892906021885    -0.183988154270     1.163748050009
    H           -1.894666669953     0.249737216300     2.843327238168
    H           -2.848053689927    -0.607704356884     1.633978868290
    C           -0.988674308774    -0.349333231547    -0.212881943996
    C            0.378810584769    -0.612917729481    -0.791555713096
    H           -1.638940643240    -1.192028863766    -0.447354400410
    H           -1.409520799502     0.538894752076    -0.679070505177
    O            1.130616734995     0.555771107606    -0.770580168633
    H            0.867653255520    -1.393755565145    -0.213469424596
    H            0.264979790399    -0.972859627783    -1.814250369543
    C            2.441770527918     0.405745132881    -1.202352288503
    H            2.489819452514     0.216267787483    -2.273082067100
    H            2.963841563702     1.329003466289    -0.995939824441
    H            2.945797960858    -0.403763105816    -0.680353791562

  Mulliken Charges: (a.u.)
   Center  Symbol    Alpha    Beta     Spin     Total
       1     H     0.47020  0.47020  0.00000  0.05960
       2     C     3.03200  3.03200  0.00000 -0.06400
       3     O     4.17041  4.17041  0.00000 -0.34082
       4     H     0.44635  0.44635  0.00000  0.10730
       5     H     0.47369  0.47369  0.00000  0.05262
       6     C     2.96070  2.96070  0.00000  0.07861
       7     C     2.96052  2.96052  0.00000  0.07896
       8     H     0.47616  0.47616  0.00000  0.04768
       9     H     0.47068  0.47068  0.00000  0.05864
      10     O     4.17063  4.17063  0.00000 -0.34125
      11     H     0.46980  0.46980  0.00000  0.06040
      12     H     0.47687  0.47687  0.00000  0.04626
      13     C     3.03178  3.03178  0.00000 -0.06355
      14     H     0.47164  0.47164  0.00000  0.05673
      15     H     0.44658  0.44658  0.00000  0.10685
      16     H     0.47201  0.47201  0.00000  0.05599

   Total alpha = 25.00000, Total beta = 25.00000, Total charge = -0.00000
