  ==> Input File <==

--------------------------------------------------------------------------
set {
	reference rhf
	basis 6-31G*
}

set_num_threads( 1 )
memory 2 gb

molecule MOL {
0 1

H	 -2.646374	 -0.642757	 1.268656
C	 -2.083525	 -0.384536	 0.393091
O	 -0.807605	 -0.127164	 0.768327
F	 -2.118945	 -1.383102	 -0.486752
F	 -2.621877	 0.670592	 -0.209486
C	 0.172799	 -0.172026	 -0.206087
C	 1.328993	 -0.983832	 0.363428
Cl	 0.709272	 1.459955	 -0.637417
H	 -0.166728	 -0.652760	 -1.106859
F	 2.300749	 -1.081020	 -0.518833
F	 0.900021	 -2.200162	 0.635387
F	 1.808681	 -0.457109	 1.463626

	symmetry c1
}
set optking {
	frozen_dihedral = ("
		10 7 6 9,
		9 6 3 2
	")
}

ee = energy('scf')
oeprop('DIPOLE', 'QUADRUPOLE', 'MULLIKEN_CHARGES')
f=open( 'psi4out.xyz', 'w' )
f.write( "12  " )
f.write( str(ee) + "\n" )
f.write( MOL.save_string_xyz() )
f.close()
--------------------------------------------------------------------------

    Molecular point group: c1

    Geometry (in Angstrom), charge = 0, multiplicity = 1:

       Center              X                  Y                   Z               Mass
    ------------   -----------------  -----------------  -----------------  -----------------
           H         -2.685360849037    -0.342006391675     1.194941744763     1.007825032070
           C         -2.122511849037    -0.083785391675     0.319376744763    12.000000000000
           O         -0.846591849037     0.173586608325     0.694612744763    15.994914619560
           F         -2.157931849037    -1.082351391675    -0.560466255237    18.998403224000
           F         -2.660863849037     0.971342608325    -0.283200255237    18.998403224000
           C          0.133812150963     0.128724608325    -0.279801255237    12.000000000000
           C          1.290006150963    -0.683081391675     0.289713744763    12.000000000000
          CL          0.670285150963     1.760705608325    -0.711131255237    34.968852682000
           H         -0.205714849037    -0.352009391675    -1.180573255237     1.007825032070
           F          2.261762150963    -0.780269391675    -0.592547255237    18.998403224000
           F          0.861034150963    -1.899411391675     0.561672744763    18.998403224000
           F          1.769694150963    -0.156358391675     1.389911744763    18.998403224000

  Charge       = 0
  Multiplicity = 1
  Basis Set: 6-31G*
  Basis Set:

    Orbital Energies (a.u.)
    -----------------------

    Doubly Occupied:

       1A   -104.842678     2A    -26.360144     3A    -26.359701
       4A    -26.357674     5A    -26.352480     6A    -26.341728
       7A    -20.649993     8A    -11.527518     9A    -11.490249
      10A    -11.399052    11A    -10.577405    12A     -8.046764
      13A     -8.043229    14A     -8.043135    15A     -1.761442
      16A     -1.719159    17A     -1.657729    18A     -1.656897
      19A     -1.639237    20A     -1.486319    21A     -1.179264
      22A     -1.051594    23A     -0.987089    24A     -0.919385
      25A     -0.861334    26A     -0.853145    27A     -0.846361
      28A     -0.822948    29A     -0.813378    30A     -0.791122
      31A     -0.727836    32A     -0.726712    33A     -0.707706
      34A     -0.700283    35A     -0.679102    36A     -0.675369
      37A     -0.658691    38A     -0.658126    39A     -0.641905
      40A     -0.635406    41A     -0.598456    42A     -0.582088
      43A     -0.523506    44A     -0.475263    45A     -0.467557

  @DF-RHF Final Energy: -1146.31250025425334

   => Energetics <=

    Nuclear Repulsion Energy =            737.3753698995673176
    One-Electron Energy =               -3057.5831719298421376
    Two-Electron Energy =                1173.8953017760213697
    DFT Exchange-Correlation Energy =       0.0000000000000000
    Empirical Dispersion Energy =           0.0000000000000000
    PCM Polarization Energy =               0.0000000000000000
    EFP Energy =                            0.0000000000000000
    Total Energy =                      -1146.3125002542533366

  Mulliken Charges: (a.u.)
   Center  Symbol    Alpha    Beta     Spin     Total
       1     H     0.40242  0.40242  0.00000  0.19517
       2     C     2.56247  2.56247  0.00000  0.87507
       3     O     4.30015  4.30015  0.00000 -0.60029
       4     F     4.68705  4.68705  0.00000 -0.37409
       5     F     4.68227  4.68227  0.00000 -0.36453
       6     C     3.05062  3.05062  0.00000 -0.10123
       7     C     2.43302  2.43302  0.00000  1.13395
       8    CL     8.49940  8.49940  0.00000  0.00121
       9     H     0.36321  0.36321  0.00000  0.27358
      10     F     4.67399  4.67399  0.00000 -0.34798
      11     F     4.67682  4.67682  0.00000 -0.35364
      12     F     4.66861  4.66861  0.00000 -0.33722

   Total alpha = 45.00000, Total beta = 45.00000, Total charge = -0.00000
