                              Psi4 1.0.54 Driver

  ==> Input File <==

--------------------------------------------------------------------------
set {
	reference rhf
	basis cc-pvtz
}

set_num_threads( 4 )
memory 2 gb

molecule MOL {
0 1

H	 -3.941973	 0.934228	 -0.390224
C	 -3.240162	 0.342701	 0.161016
C	 -2.105997	 -0.000418	 -0.398703
H	 -3.485368	 0.047206	 1.162193
O	 -1.189946	 -0.765863	 0.237511
H	 -1.846458	 0.297311	 -1.398265
C	 0.026572	 -0.995256	 -0.379403
C	 1.057223	 0.049888	 -0.004615
H	 -0.054361	 -1.010670	 -1.459674
H	 0.397526	 -1.952058	 -0.044198
F	 0.445115	 1.156482	 0.366671
F	 1.813624	 -0.343663	 0.997624
F	 1.847793	 0.344508	 -1.007937

	symmetry c1
}
set optking {
	frozen_dihedral = ("
		11 8 7 9
	")
}

ee,wfn = optimize('scf', return_wfn=True)
oeprop( wfn, 'DIPOLE', 'QUADRUPOLE', 'MULLIKEN_CHARGES')
f=open( 'psi4out.xyz', 'w' )
f.write( "13  " )
f.write( str(ee) + "\n" )
f.write( MOL.save_string_xyz() )
f.close()
--------------------------------------------------------------------------

    Molecular point group: c1
  Charge       = 0
  Multiplicity = 1
  Basis Set: CC-PVTZ
  Basis Set:
  @DF-RHF Final Energy:  -527.73640009783446
    Total Energy =                       -527.7364000978345757
    Molecular point group: c1
  Basis Set: CC-PVTZ
  Basis Set:
  Basis Set: CC-PVTZ
  Basis Set:
  @DF-RHF Final Energy:  -527.73730680953781
    Total Energy =                       -527.7373068095375857
  Basis Set: CC-PVTZ
  Basis Set:
  Basis Set: CC-PVTZ
  Basis Set:
  @DF-RHF Final Energy:  -527.73750902485290
    Total Energy =                       -527.7375090248522156
  Basis Set: CC-PVTZ
  Basis Set:
  Basis Set: CC-PVTZ
  Basis Set:
  @DF-RHF Final Energy:  -527.73753325972575
    Total Energy =                       -527.7375332597256374
  Basis Set: CC-PVTZ
  Basis Set:
  Basis Set: CC-PVTZ
  Basis Set:
  @DF-RHF Final Energy:  -527.73753844971043
    Total Energy =                       -527.7375384497102004
  Basis Set: CC-PVTZ
  Basis Set:
  Basis Set: CC-PVTZ
  Basis Set:
  @DF-RHF Final Energy:  -527.73754136480159
    Total Energy =                       -527.7375413648015865
  Basis Set: CC-PVTZ
  Basis Set:
  Basis Set: CC-PVTZ
  Basis Set:
  @DF-RHF Final Energy:  -527.73754254649612
    Total Energy =                       -527.7375425464963428
  Basis Set: CC-PVTZ
  Basis Set:
  Charge       = 0
  Multiplicity = 1
  Basis Set: CC-PVTZ
  Basis Set:

    Orbital Energies (a.u.)
    -----------------------

    Doubly Occupied:

       1A    -26.342213     2A    -26.340617     3A    -26.336371
       4A    -20.604159     5A    -11.499173     6A    -11.319695
       7A    -11.298714     8A    -11.214226     9A     -1.750649
      10A     -1.648237    11A     -1.643240    12A     -1.445013
      13A     -1.085729    14A     -1.019664    15A     -0.932588
      16A     -0.844123    17A     -0.838477    18A     -0.828031
      19A     -0.796079    20A     -0.732647    21A     -0.721571
      22A     -0.703308    23A     -0.679840    24A     -0.669254
      25A     -0.661118    26A     -0.650003    27A     -0.635824
      28A     -0.587352    29A     -0.565107    30A     -0.529844
      31A     -0.516592    32A     -0.357053

  @DF-RHF Final Energy:  -527.73754290812258

   => Energetics <=

    Nuclear Repulsion Energy =            412.7230331980052824
    One-Electron Energy =               -1549.3281335886940724
    Two-Electron Energy =                 608.8675574825663261
    DFT Exchange-Correlation Energy =       0.0000000000000000
    Empirical Dispersion Energy =           0.0000000000000000
    PCM Polarization Energy =               0.0000000000000000
    EFP Energy =                            0.0000000000000000
    Total Energy =                       -527.7375429081223501
    Molecular point group: c1
  Basis Set: CC-PVTZ
  Basis Set:

  -Total Gradient:
     Atom            X                  Y                   Z
    ------   -----------------  -----------------  -----------------
       1       -0.000001342224    -0.000018773491    -0.000012390862
       2        0.000014858774    -0.000003102665     0.000005216557
       3        0.000014963408     0.000040193368     0.000036666512
       4        0.000002581284    -0.000001480846     0.000000221139
       5       -0.000027893457    -0.000017778961    -0.000014023249
       6       -0.000005928915    -0.000021036539    -0.000018315352
       7       -0.004068043549     0.003778912589     0.001270898534
       8        0.000907132426     0.000831001367    -0.005107379820
       9        0.003314113749    -0.003425518106    -0.000045335404
      10       -0.000034434750     0.000003018682     0.000006986240
      11       -0.000106968103    -0.001166009099     0.003886852657
      12        0.000009544798     0.000007725305     0.000016792973
      13       -0.000018583444    -0.000007151606    -0.000026189924

  **** Optimization is complete! (in 8 steps) ****
    Final optimized geometry and variables:
    Molecular point group: c1

    Geometry (in Angstrom), charge = 0, multiplicity = 1:

    H           -3.943042497209     0.988478724984    -0.380575226091
    C           -3.272201942764     0.344301272206     0.149803939184
    C           -2.103295597252     0.061205367933    -0.370375391985
    H           -3.575235319767    -0.050101868854     1.099799382036
    O           -1.218362849545    -0.756266074886     0.244611128665
    H           -1.787338762371     0.456701602865    -1.318741734915
    C           -0.006297836531    -0.992359914153    -0.371941324859
    C            1.064867984670     0.041156023373    -0.014981266354
    H           -0.078606358390    -1.048604795128    -1.450936168995
    H            0.353643322950    -1.948114833567    -0.022857511166
    F            0.551482720013     1.200515866515     0.317363645636
    F            1.798540618788    -0.362113817081     1.002164987424
    F            1.881489262478     0.227948218507    -1.031771323568

  Mulliken Charges: (a.u.)
   Center  Symbol    Alpha    Beta     Spin     Total
       1     H     0.42536  0.42536  0.00000  0.14929
       2     C     3.19657  3.19657  0.00000 -0.39314
       3     C     2.95599  2.95599  0.00000  0.08802
       4     H     0.42502  0.42502  0.00000  0.14995
       5     O     4.14083  4.14083  0.00000 -0.28167
       6     H     0.43492  0.43492  0.00000  0.13015
       7     C     3.03221  3.03221  0.00000 -0.06443
       8     C     2.67150  2.67150  0.00000  0.65699
       9     H     0.45505  0.45505  0.00000  0.08989
      10     H     0.43641  0.43641  0.00000  0.12717
      11     F     4.60444  4.60444  0.00000 -0.20888
      12     F     4.61015  4.61015  0.00000 -0.22031
      13     F     4.61152  4.61152  0.00000 -0.22304

   Total alpha = 32.00000, Total beta = 32.00000, Total charge =  0.00000

*** Psi4 exiting successfully. Buy a developer a beer!
