  ==> Input File <==

--------------------------------------------------------------------------
set {
	reference rhf
	basis 6-31G*
}

set_num_threads( 4 )
memory 2 gb

molecule MOL {
0 1

H	 -4.260729	 0.776213	 -0.996541
O	 -3.452007	 0.283848	 -0.965577
C	 -3.181085	 -0.079926	 0.364119
C	 -1.765924	 0.277073	 0.805136
H	 -3.327791	 -1.152017	 0.410903
H	 -3.905698	 0.375695	 1.036898
C	 -0.677594	 -0.417312	 -0.014550
H	 -1.637766	 1.358238	 0.744969
H	 -1.659588	 0.017670	 1.857098
C	 0.738335	 -0.034840	 0.421385
H	 -0.814977	 -0.178223	 -1.064632
H	 -0.802730	 -1.495410	 0.071702
C	 1.822265	 -0.738362	 -0.399735
H	 0.853533	 1.043532	 0.342250
H	 0.871597	 -0.279636	 1.474438
C	 3.258060	 -0.455774	 0.057203
H	 1.718003	 -0.459167	 -1.447053
H	 1.651028	 -1.811884	 -0.354513
C	 3.709143	 0.994797	 -0.123830
H	 3.930637	 -1.101717	 -0.501982
H	 3.365259	 -0.739518	 1.102287
H	 3.601178	 1.310569	 -1.158127
H	 4.753787	 1.110486	 0.148516
H	 3.135362	 1.678896	 0.492569

	symmetry c1
}
set optking {
	frozen_dihedral = ("
		1 2 3 5
	")
}

ee = optimize('scf')
oeprop('DIPOLE', 'QUADRUPOLE', 'MULLIKEN_CHARGES')
f=open( 'psi4out.xyz', 'w' )
f.write( "24  " )
f.write( str(ee) + "\n" )
f.write( MOL.save_string_xyz() )
f.close()
--------------------------------------------------------------------------

    Molecular point group: c1
  Charge       = 0
  Multiplicity = 1
  Basis Set: 6-31G*
  Basis Set:
  @DF-RHF Final Energy:  -349.24483840215947
    Total Energy =                       -349.2448384021593029
    Molecular point group: c1
  Basis Set: 6-31G*
  Basis Set:
  Basis Set: 6-31G*
  Basis Set:
  @DF-RHF Final Energy:  -349.24552632615740
    Total Energy =                       -349.2455263261574601
  Basis Set: 6-31G*
  Basis Set:
  Basis Set: 6-31G*
  Basis Set:
  @DF-RHF Final Energy:  -349.24569084287452
    Total Energy =                       -349.2456908428744100
  Basis Set: 6-31G*
  Basis Set:
  Basis Set: 6-31G*
  Basis Set:
  @DF-RHF Final Energy:  -349.24569324261802
    Total Energy =                       -349.2456932426181311
  Basis Set: 6-31G*
  Basis Set:
  Basis Set: 6-31G*
  Basis Set:
  @DF-RHF Final Energy:  -349.24570018038230
    Total Energy =                       -349.2457001803824141
  Basis Set: 6-31G*
  Basis Set:
  Charge       = 0
  Multiplicity = 1
  Basis Set: 6-31G*
  Basis Set:

    Orbital Energies (a.u.)
    -----------------------

    Doubly Occupied:

       1A    -20.551348     2A    -11.268147     3A    -11.211291
       4A    -11.211274     5A    -11.208427     6A    -11.207760
       7A    -11.205705     8A    -11.204633     9A     -1.357756
      10A     -1.084669    11A     -1.045460    12A     -0.983459
      13A     -0.911836    14A     -0.844153    15A     -0.790890
      16A     -0.772696    17A     -0.699280    18A     -0.649436
      19A     -0.625956    20A     -0.610860    21A     -0.583497
      22A     -0.576228    23A     -0.556350    24A     -0.532881
      25A     -0.522297    26A     -0.503036    27A     -0.490506
      28A     -0.481304    29A     -0.466233    30A     -0.453462
      31A     -0.450088    32A     -0.435187    33A     -0.423157

  @DF-RHF Final Energy:  -349.24570013019093

   => Energetics <=

    Nuclear Repulsion Energy =            384.5491379296556715
    One-Electron Energy =               -1235.7511554493394215
    Two-Electron Energy =                 501.9563173894926535
    DFT Exchange-Correlation Energy =       0.0000000000000000
    Empirical Dispersion Energy =           0.0000000000000000
    PCM Polarization Energy =               0.0000000000000000
    EFP Energy =                            0.0000000000000000
    Total Energy =                       -349.2457001301910964
    Molecular point group: c1
  Basis Set: 6-31G*
  Basis Set:

  -Total Gradient:
     Atom            X                  Y                   Z
    ------   -----------------  -----------------  -----------------
       1        0.000349937956     0.000643097485     0.000112140721
       2       -0.000320131331    -0.000809787059    -0.000150883062
       3       -0.000624942898     0.000191240999     0.000149076827
       4       -0.000013813089     0.000003807208     0.000094271034
       5        0.000594293210    -0.000079092123    -0.000133098785
       6        0.000029513988     0.000014218718    -0.000021445117
       7       -0.000033590946     0.000012018497    -0.000048809148
       8       -0.000006686623     0.000013547288     0.000000146970
       9        0.000007088814     0.000022522591    -0.000002744992
      10        0.000006006695     0.000005730368     0.000011504660
      11        0.000013660036     0.000005682894    -0.000014095884
      12        0.000005519495     0.000007623906    -0.000005434775
      13        0.000000940043    -0.000034168576     0.000019908053
      14        0.000025728892     0.000021375580     0.000001587714
      15       -0.000009102259     0.000002024246    -0.000004842417
      16        0.000013784972    -0.000008111323    -0.000031131160
      17       -0.000000328814    -0.000020027395     0.000001357825
      18       -0.000005869898    -0.000000812453     0.000014774261
      19       -0.000015824474    -0.000000573968     0.000010856077
      20        0.000005283419     0.000014233452    -0.000009912583
      21        0.000006890314    -0.000014825396    -0.000009417873
      22        0.000005773171    -0.000006699023     0.000003774799
      23       -0.000002863878     0.000005817564     0.000008552746
      24       -0.000031266792     0.000011156521     0.000003864110

  **** Optimization is complete! (in 6 steps) ****
    Final optimized geometry and variables:
    Molecular point group: c1

    Geometry (in Angstrom), charge = 0, multiplicity = 1:

    H           -4.187267436317     0.799817149176    -1.038858530836
    O           -3.390340961646     0.298139226154    -0.966169835049
    C           -3.176921432989    -0.086331829717     0.372953698208
    C           -1.765519067962     0.277831815339     0.809123316107
    H           -3.325066098081    -1.159803257306     0.459014086962
    H           -3.897993890764     0.394960523772     1.028552387860
    C           -0.680325714845    -0.417096107309    -0.014493795861
    H           -1.648255027562     1.356481931833     0.736411023650
    H           -1.653506547115     0.016283986387     1.860376728389
    C            0.735881325535    -0.035369459893     0.421233085239
    H           -0.819373693937    -0.171202960861    -1.062454036496
    H           -0.804625235975    -1.495850358379     0.069229274358
    C            1.819525408932    -0.735604452875    -0.403052228885
    H            0.849550503512     1.043109043288     0.344482883197
    H            0.870686528747    -0.283119073224     1.473579877165
    C            3.255849898623    -0.449507451258     0.050053227104
    H            1.711627724015    -0.455932128637    -1.449792207556
    H            1.651430780221    -1.809767517863    -0.358207137720
    C            3.700403133161     1.003665635491    -0.126158030196
    H            3.929251129436    -1.090319868704    -0.514117246283
    H            3.367721780366    -0.737210803111     1.093627593694
    H            3.588705760914     1.323042382267    -1.158911433861
    H            4.745195746592     1.122838423309     0.144432376189
    H            3.124700072676     1.682708762904     0.493927930080

  Mulliken Charges: (a.u.)
   Center  Symbol    Alpha    Beta     Spin     Total
       1     H     0.27921  0.27921  0.00000  0.44159
       2     O     4.37247  4.37247  0.00000 -0.74494
       3     C     2.99952  2.99952  0.00000  0.00096
       4     C     3.15644  3.15644  0.00000 -0.31288
       5     H     0.42546  0.42546  0.00000  0.14908
       6     H     0.42951  0.42951  0.00000  0.14099
       7     C     3.15472  3.15472  0.00000 -0.30944
       8     H     0.42113  0.42113  0.00000  0.15774
       9     H     0.42609  0.42609  0.00000  0.14782
      10     C     3.15375  3.15375  0.00000 -0.30750
      11     H     0.40742  0.40742  0.00000  0.18517
      12     H     0.42594  0.42594  0.00000  0.14813
      13     C     3.15212  3.15212  0.00000 -0.30423
      14     H     0.42189  0.42189  0.00000  0.15622
      15     H     0.42657  0.42657  0.00000  0.14686
      16     C     3.15210  3.15210  0.00000 -0.30420
      17     H     0.42340  0.42340  0.00000  0.15320
      18     H     0.42285  0.42285  0.00000  0.15431
      19     C     3.24092  3.24092  0.00000 -0.48183
      20     H     0.42167  0.42167  0.00000  0.15667
      21     H     0.42423  0.42423  0.00000  0.15155
      22     H     0.42217  0.42217  0.00000  0.15565
      23     H     0.42018  0.42018  0.00000  0.15965
      24     H     0.42028  0.42028  0.00000  0.15945

   Total alpha = 33.00000, Total beta = 33.00000, Total charge = -0.00000
