  ==> Input File <==

--------------------------------------------------------------------------
set {
	reference rhf
	basis 6-31G*
}

set_num_threads( 1 )
memory 2 gb

molecule MOL {
0 1

O	 0.749854	 1.307668	 -0.000040
C	 0.576249	 0.131685	 -0.000108
C	 -0.766779	 -0.556801	 -0.000461
O	 1.568443	 -0.749345	 -0.000005
C	 -1.945214	 0.412366	 0.000161
H	 -0.796911	 -1.211249	 -0.867467
H	 -0.796854	 -1.212390	 0.865687
C	 -2.440460	 0.714143	 -1.413427
H	 -1.651711	 1.332531	 0.493876
H	 -2.751605	 -0.005021	 0.593537
H	 -1.658298	 1.162931	 -2.019450
H	 -3.277206	 1.404624	 -1.391159
H	 -2.771425	 -0.189228	 -1.918258
C	 2.886820	 -0.232538	 0.000322
H	 3.059106	 0.369571	 -0.880203
H	 3.540187	 -1.091012	 0.000050
H	 3.059019	 0.368956	 0.881266

	symmetry c1
}
set optking {
	frozen_dihedral = ("
		1 2 3 6,
		14 4 2 1
	")
}

ee = energy('scf')
oeprop('DIPOLE', 'QUADRUPOLE', 'MULLIKEN_CHARGES')
f=open( 'psi4out.xyz', 'w' )
f.write( "17  " )
f.write( str(ee) + "\n" )
f.write( MOL.save_string_xyz() )
f.close()
--------------------------------------------------------------------------

    Molecular point group: c1

    Geometry (in Angstrom), charge = 0, multiplicity = 1:

       Center              X                  Y                   Z               Mass
    ------------   -----------------  -----------------  -----------------  -----------------
           O          0.625123536606     1.155871504798     0.208038682342    15.994914619560
           C          0.451518536606    -0.020111495202     0.207970682342    12.000000000000
           C         -0.891509463394    -0.708597495202     0.207617682342    12.000000000000
           O          1.443712536606    -0.901141495202     0.208073682342    15.994914619560
           C         -2.069944463394     0.260569504798     0.208239682342    12.000000000000
           H         -0.921641463394    -1.363045495202    -0.659388317658     1.007825032070
           H         -0.921584463394    -1.364186495202     1.073765682342     1.007825032070
           C         -2.565190463394     0.562346504798    -1.205348317658    12.000000000000
           H         -1.776441463394     1.180734504798     0.701954682342     1.007825032070
           H         -2.876335463394    -0.156817495202     0.801615682342     1.007825032070
           H         -1.783028463394     1.011134504798    -1.811371317658     1.007825032070
           H         -3.401936463394     1.252827504798    -1.183080317658     1.007825032070
           H         -2.896155463394    -0.341024495202    -1.710179317658     1.007825032070
           C          2.762089536606    -0.384334495202     0.208400682342    12.000000000000
           H          2.934375536606     0.217774504798    -0.672124317658     1.007825032070
           H          3.415456536606    -1.242808495202     0.208128682342     1.007825032070
           H          2.934288536606     0.217159504798     1.089344682342     1.007825032070

  Charge       = 0
  Multiplicity = 1
  Basis Set: 6-31G*
  Basis Set:

    Orbital Energies (a.u.)
    -----------------------

    Doubly Occupied:

       1A    -20.604732     2A    -20.546788     3A    -11.373391
       4A    -11.281537     5A    -11.234988     6A    -11.219610
       7A    -11.210185     8A     -1.470487     9A     -1.364218
      10A     -1.079702    11A     -0.999896    12A     -0.938075
      13A     -0.829021    14A     -0.766439    15A     -0.703787
      16A     -0.681891    17A     -0.672759    18A     -0.620514
      19A     -0.611434    20A     -0.568658    21A     -0.566552
      22A     -0.533780    23A     -0.524197    24A     -0.487114
      25A     -0.484151    26A     -0.477674    27A     -0.457426
      28A     -0.439931

  @DF-RHF Final Energy:  -344.90416624057076

   => Energetics <=

    Nuclear Repulsion Energy =            316.4326249590808970
    One-Electron Energy =               -1097.1756274048070736
    Two-Electron Energy =                 435.8388362051541662
    DFT Exchange-Correlation Energy =       0.0000000000000000
    Empirical Dispersion Energy =           0.0000000000000000
    PCM Polarization Energy =               0.0000000000000000
    EFP Energy =                            0.0000000000000000
    Total Energy =                       -344.9041662405720672

  Mulliken Charges: (a.u.)
   Center  Symbol    Alpha    Beta     Spin     Total
       1     O     4.28550  4.28550  0.00000 -0.57101
       2     C     2.60896  2.60896  0.00000  0.78209
       3     C     3.20885  3.20885  0.00000 -0.41769
       4     O     4.30598  4.30598  0.00000 -0.61196
       5     C     3.15865  3.15865  0.00000 -0.31729
       6     H     0.39927  0.39927  0.00000  0.20146
       7     H     0.39788  0.39788  0.00000  0.20423
       8     C     3.24328  3.24328  0.00000 -0.48655
       9     H     0.39929  0.39929  0.00000  0.20142
      10     H     0.41861  0.41861  0.00000  0.16278
      11     H     0.41425  0.41425  0.00000  0.17151
      12     H     0.41740  0.41740  0.00000  0.16519
      13     H     0.42344  0.42344  0.00000  0.15313
      14     C     3.09240  3.09240  0.00000 -0.18480
      15     H     0.40900  0.40900  0.00000  0.18200
      16     H     0.40831  0.40831  0.00000  0.18338
      17     H     0.40895  0.40895  0.00000  0.18211

   Total alpha = 28.00000, Total beta = 28.00000, Total charge =  0.00000
