                              Psi4 1.0.54 Driver

  ==> Input File <==

--------------------------------------------------------------------------
set {
	reference rhf
	basis cc-pvtz
}

set_num_threads( 4 )
memory 2 gb

molecule MOL {
0 1

H	 0.948762	 -2.554384	 0.836539
C	 0.914497	 -1.718157	 1.547315
C	 -0.329970	 -0.876716	 1.483462
O	 1.818541	 -1.532737	 2.286205
C	 -0.554654	 -0.292621	 0.086567
H	 -0.255178	 -0.096607	 2.229566
H	 -1.169570	 -1.516944	 1.746252
C	 -1.846385	 0.513195	 -0.016346
H	 0.287886	 0.341121	 -0.175035
H	 -0.574082	 -1.096768	 -0.644626
C	 -3.089953	 -0.365049	 -0.098564
H	 -1.798267	 1.154820	 -0.891143
H	 -1.925398	 1.173265	 0.842889
H	 -3.055079	 -1.012299	 -0.968245
H	 -3.988403	 0.236438	 -0.170014
H	 -3.183055	 -0.995885	 0.779079

	symmetry c1
}
set optking {
	frozen_dihedral = ("
		9 5 8 12
	")
}

ee,wfn = optimize('scf', return_wfn=True)
oeprop( wfn, 'DIPOLE', 'QUADRUPOLE', 'MULLIKEN_CHARGES')
f=open( 'psi4out.xyz', 'w' )
f.write( "16  " )
f.write( str(ee) + "\n" )
f.write( MOL.save_string_xyz() )
f.close()
--------------------------------------------------------------------------

    Molecular point group: c1
  Charge       = 0
  Multiplicity = 1
  Basis Set: CC-PVTZ
  Basis Set:
  @DF-RHF Final Energy:  -270.11703688472073
    Total Energy =                       -270.1170368847206191
    Molecular point group: c1
  Basis Set: CC-PVTZ
  Basis Set:
  Basis Set: CC-PVTZ
  Basis Set:
  @DF-RHF Final Energy:  -270.11724610973408
    Total Energy =                       -270.1172461097341966
  Basis Set: CC-PVTZ
  Basis Set:
  Basis Set: CC-PVTZ
  Basis Set:
  @DF-RHF Final Energy:  -270.11708334781804
    Total Energy =                       -270.1170833478179247
  Basis Set: CC-PVTZ
  Basis Set:
  Basis Set: CC-PVTZ
  Basis Set:
  @DF-RHF Final Energy:  -270.11727680265381
    Total Energy =                       -270.1172768026538620
  Basis Set: CC-PVTZ
  Basis Set:
  Basis Set: CC-PVTZ
  Basis Set:
  @DF-RHF Final Energy:  -270.11727594141456
    Total Energy =                       -270.1172759414146753
  Basis Set: CC-PVTZ
  Basis Set:
  Charge       = 0
  Multiplicity = 1
  Basis Set: CC-PVTZ
  Basis Set:

    Orbital Energies (a.u.)
    -----------------------

    Doubly Occupied:

       1A    -20.551929     2A    -11.321246     3A    -11.234794
       4A    -11.233822     5A    -11.227718     6A    -11.218140
       7A     -1.406672     8A     -1.097532     9A     -1.017743
      10A     -0.913528    11A     -0.809732    12A     -0.793205
      13A     -0.679951    14A     -0.646961    15A     -0.636860
      16A     -0.603966    17A     -0.574914    18A     -0.567995
      19A     -0.523944    20A     -0.518925    21A     -0.489260
      22A     -0.483269    23A     -0.472106    24A     -0.411837

  @DF-RHF Final Energy:  -270.11727971167653

   => Energetics <=

    Nuclear Repulsion Energy =            231.6620276231224693
    One-Electron Energy =                -824.6865132184301501
    Two-Electron Energy =                 322.9072058836311498
    DFT Exchange-Correlation Energy =       0.0000000000000000
    Empirical Dispersion Energy =           0.0000000000000000
    PCM Polarization Energy =               0.0000000000000000
    EFP Energy =                            0.0000000000000000
    Total Energy =                       -270.1172797116764741
    Molecular point group: c1
  Basis Set: CC-PVTZ
  Basis Set:

  -Total Gradient:
     Atom            X                  Y                   Z
    ------   -----------------  -----------------  -----------------
       1        0.000002841677    -0.000026619649    -0.000036165218
       2       -0.000088306264    -0.000035764397    -0.000074824842
       3       -0.000007397203     0.000014948579    -0.000067328214
       4        0.000106937011     0.000032795530     0.000103932511
       5        0.000354641795     0.000901809461     0.002345316429
       6        0.000000691711     0.000047012400     0.000027101774
       7       -0.000027369057    -0.000027908211     0.000019791103
       8       -0.000924396613    -0.001703956990    -0.001612477911
       9       -0.000148572647    -0.000488328871    -0.001696944203
      10       -0.000001969309    -0.000001302690    -0.000007459206
      11       -0.000003406807    -0.000022222538     0.000035395047
      12        0.000700389857     0.001277236449     0.000993666785
      13        0.000006194785    -0.000002134673    -0.000006084737
      14        0.000014300826     0.000000398044    -0.000003326204
      15        0.000015721436     0.000010059618     0.000008499721
      16       -0.000000301197     0.000023977938    -0.000029092836

  **** Optimization is complete! (in 6 steps) ****
    Final optimized geometry and variables:
    Molecular point group: c1

    Geometry (in Angstrom), charge = 0, multiplicity = 1:

    H            1.494848532430    -1.826439000941    -0.061037053571
    C            1.453190268448    -0.995342439630     0.655406858490
    C            0.193884246479    -0.175054373220     0.608973569135
    O            2.361073671657    -0.798830383275     1.386841119387
    C           -0.041627527840     0.422340123763    -0.781529756465
    H            0.261745805435     0.600198985403     1.360951334159
    H           -0.628491533513    -0.834299785747     0.874405108846
    C           -1.343812689573     1.218130288309    -0.901687771838
    H            0.793665930081     1.066120151601    -1.036965707758
    H           -0.042118052842    -0.373668332029    -1.522503744598
    C           -2.601693118965     0.359261438581    -0.987899619830
    H           -1.280734929620     1.851901869143    -1.779777275449
    H           -1.424820528200     1.895411173932    -0.056087058697
    H           -2.563855660087    -0.300918971634    -1.847979303826
    H           -3.484509749034     0.979711896414    -1.086678174653
    H           -2.735002876013    -0.254750323154    -0.104729960801

  Mulliken Charges: (a.u.)
   Center  Symbol    Alpha    Beta     Spin     Total
       1     H     0.46517  0.46517  0.00000  0.06967
       2     C     2.90828  2.90828  0.00000  0.18343
       3     C     3.07774  3.07774  0.00000 -0.15548
       4     O     4.16388  4.16388  0.00000 -0.32775
       5     C     3.10913  3.10913  0.00000 -0.21827
       6     H     0.44244  0.44244  0.00000  0.11511
       7     H     0.45064  0.45064  0.00000  0.09873
       8     C     3.09057  3.09057  0.00000 -0.18113
       9     H     0.43963  0.43963  0.00000  0.12075
      10     H     0.45219  0.45219  0.00000  0.09562
      11     C     3.14977  3.14977  0.00000 -0.29954
      12     H     0.44503  0.44503  0.00000  0.10994
      13     H     0.45221  0.45221  0.00000  0.09558
      14     H     0.45394  0.45394  0.00000  0.09213
      15     H     0.44465  0.44465  0.00000  0.11070
      16     H     0.45474  0.45474  0.00000  0.09052

   Total alpha = 24.00000, Total beta = 24.00000, Total charge = -0.00000

*** Psi4 exiting successfully. Buy a developer a beer!
