  ==> Input File <==

--------------------------------------------------------------------------
set {
	reference rhf
	basis cc-pvtz
}

set_num_threads( 4 )
memory 2 gb

molecule MOL {
0 1

H	 0.009365	 -2.090273	 0.444090
C	 -0.020452	 -1.110679	 0.907410
N	 0.526300	 -0.128137	 0.000000
H	 0.580528	 -1.154478	 1.806824
H	 -1.054747	 -0.912950	 1.196734
C	 -0.247113	 0.037112	 -1.209233
H	 0.621655	 0.748367	 0.465090
H	 -0.996493	 -0.743733	 -1.271440
H	 0.397975	 -0.057351	 -2.073512
H	 -0.763794	 0.997171	 -1.271673

	symmetry c1
}
set optking {
	frozen_dihedral = ("
		2 3 6 8
	")
}

ee = optimize('scf')
oeprop('DIPOLE', 'QUADRUPOLE', 'MULLIKEN_CHARGES')
f=open( 'psi4out.xyz', 'w' )
f.write( "10  " )
f.write( str(ee) + "\n" )
f.write( MOL.save_string_xyz() )
f.close()
--------------------------------------------------------------------------

    Molecular point group: c1
  Charge       = 0
  Multiplicity = 1
  Basis Set: CC-PVTZ
  Basis Set:
  @DF-RHF Final Energy:  -134.28773584039033
    Total Energy =                       -134.2877358403902974
    Molecular point group: c1
  Basis Set: CC-PVTZ
  Basis Set:
  Basis Set: CC-PVTZ
  Basis Set:
  @DF-RHF Final Energy:  -134.28816583748005
    Total Energy =                       -134.2881658374798803
  Basis Set: CC-PVTZ
  Basis Set:
  Basis Set: CC-PVTZ
  Basis Set:
  @DF-RHF Final Energy:  -134.28825404864381
    Total Energy =                       -134.2882540486438359
  Basis Set: CC-PVTZ
  Basis Set:
  Basis Set: CC-PVTZ
  Basis Set:
  @DF-RHF Final Energy:  -134.28825773613079
    Total Energy =                       -134.2882577361307881
  Basis Set: CC-PVTZ
  Basis Set:
  Charge       = 0
  Multiplicity = 1
  Basis Set: CC-PVTZ
  Basis Set:

    Orbital Energies (a.u.)
    -----------------------

    Doubly Occupied:

       1A    -15.528708     2A    -11.234410     3A    -11.233860
       4A     -1.195763     5A     -0.947977     6A     -0.855326
       7A     -0.660723     8A     -0.609503     9A     -0.588830
      10A     -0.545205    11A     -0.511172    12A     -0.506908
      13A     -0.357494

  @DF-RHF Final Energy:  -134.28825838018452

   => Energetics <=

    Nuclear Repulsion Energy =             84.4712587409588735
    One-Electron Energy =                -347.9672788961220249
    Two-Electron Energy =                 129.2077617749786214
    DFT Exchange-Correlation Energy =       0.0000000000000000
    Empirical Dispersion Energy =           0.0000000000000000
    PCM Polarization Energy =               0.0000000000000000
    EFP Energy =                            0.0000000000000000
    Total Energy =                       -134.2882583801845158
    Molecular point group: c1
  Basis Set: CC-PVTZ
  Basis Set:

  -Total Gradient:
     Atom            X                  Y                   Z
    ------   -----------------  -----------------  -----------------
       1       -0.000004255541    -0.000001886635     0.000004740006
       2        0.000594502010    -0.000803957410    -0.000495871309
       3       -0.001068692960     0.001351890930     0.000907388215
       4       -0.000004998836    -0.000001404050    -0.000001354879
       5        0.000012200027     0.000002987056    -0.000003326376
       6        0.001402913650    -0.001384614704    -0.001170064506
       7        0.000007877182     0.000017329751     0.000011644088
       8       -0.000933743435     0.000825051141     0.000698157714
       9       -0.000002079191    -0.000005666177     0.000035378403
      10       -0.000003722906     0.000000270099     0.000013308643

  **** Optimization is complete! (in 5 steps) ****
    Final optimized geometry and variables:
    Molecular point group: c1

    Geometry (in Angstrom), charge = 0, multiplicity = 1:

    H           -0.049050314404    -1.698127721406     0.570935982227
    C           -0.084869225142    -0.712476622804     1.019606276229
    N            0.449328677102     0.263792708270     0.098459604902
    H            0.526182842333    -0.739468826655     1.913250307641
    H           -1.116810810043    -0.521968781743     1.321577908075
    C           -0.304960436268     0.437041260657    -1.131763985178
    H            0.583866315318     1.136508409432     0.555750236000
    H           -1.060949836385    -0.333592091966    -1.227799425187
    H            0.341398583023     0.380803231439    -2.000186313615
    H           -0.826131810884     1.390179164468    -1.166118306920

  Mulliken Charges: (a.u.)
   Center  Symbol    Alpha    Beta     Spin     Total
       1     H     0.45658  0.45658  0.00000  0.08684
       2     C     3.08192  3.08192  0.00000 -0.16384
       3     N     3.63513  3.63513  0.00000 -0.27025
       4     H     0.45330  0.45330  0.00000  0.09340
       5     H     0.47453  0.47453  0.00000  0.05094
       6     C     3.07796  3.07796  0.00000 -0.15591
       7     H     0.43913  0.43913  0.00000  0.12175
       8     H     0.46253  0.46253  0.00000  0.07495
       9     H     0.45544  0.45544  0.00000  0.08911
      10     H     0.46349  0.46349  0.00000  0.07302

   Total alpha = 13.00000, Total beta = 13.00000, Total charge =  0.00000
