  ==> Input File <==

--------------------------------------------------------------------------
set {
	reference rhf
	basis 6-31G*
}

set_num_threads( 1 )
memory 2 gb

molecule MOL {
0 1

H	 -3.135461	 -1.215070	 0.001379
O	 -2.310168	 -0.871793	 -0.309793
C	 -2.026376	 0.340750	 0.341611
C	 -0.673256	 0.843270	 -0.132153
H	 -2.792215	 1.080697	 0.115987
H	 -2.013526	 0.200402	 1.421792
C	 0.486613	 -0.083066	 0.235839
H	 -0.715586	 0.970948	 -1.210718
H	 -0.508072	 1.829858	 0.297090
C	 1.517897	 0.585994	 1.146128
H	 0.970209	 -0.425734	 -0.673132
H	 0.093498	 -0.970230	 0.731058
C	 2.673992	 -0.341562	 1.518632
H	 1.911953	 1.471799	 0.652381
H	 1.029249	 0.935044	 2.053780
H	 3.204467	 -0.680107	 0.633266
H	 3.390317	 0.159998	 2.162262
H	 2.316239	 -1.222102	 2.045103

	symmetry c1
}
set optking {
	frozen_dihedral = ("
		14 10 7 11,
		2 3 4 8,
		1 2 3 4
	")
}

ee = energy('scf')
oeprop('DIPOLE', 'QUADRUPOLE', 'MULLIKEN_CHARGES')
f=open( 'psi4out.xyz', 'w' )
f.write( "18  " )
f.write( str(ee) + "\n" )
f.write( MOL.save_string_xyz() )
f.close()
--------------------------------------------------------------------------

    Molecular point group: c1

    Geometry (in Angstrom), charge = 0, multiplicity = 1:

       Center              X                  Y                   Z               Mass
    ------------   -----------------  -----------------  -----------------  -----------------
           H         -3.028477205773    -1.264481389838    -0.460203113095     1.007825032070
           O         -2.203184205773    -0.921204389838    -0.771375113095    15.994914619560
           C         -1.919392205773     0.291338610162    -0.119971113095    12.000000000000
           C         -0.566272205773     0.793858610162    -0.593735113095    12.000000000000
           H         -2.685231205773     1.031285610162    -0.345595113095     1.007825032070
           H         -1.906542205773     0.150990610162     0.960209886905     1.007825032070
           C          0.593596794227    -0.132477389838    -0.225743113095    12.000000000000
           H         -0.608602205773     0.921536610162    -1.672300113095     1.007825032070
           H         -0.401088205773     1.780446610162    -0.164492113095     1.007825032070
           C          1.624880794227     0.536582610162     0.684545886905    12.000000000000
           H          1.077192794227    -0.475145389838    -1.134714113095     1.007825032070
           H          0.200481794227    -1.019641389838     0.269475886905     1.007825032070
           C          2.780975794227    -0.390973389838     1.057049886905    12.000000000000
           H          2.018936794227     1.422387610162     0.190798886905     1.007825032070
           H          1.136232794227     0.885632610162     1.592197886905     1.007825032070
           H          3.311450794227    -0.729518389838     0.171683886905     1.007825032070
           H          3.497300794227     0.110586610162     1.700679886905     1.007825032070
           H          2.423222794227    -1.271513389838     1.583520886905     1.007825032070

  Charge       = 0
  Multiplicity = 1
  Basis Set: 6-31G*
  Basis Set:

    Orbital Energies (a.u.)
    -----------------------

    Doubly Occupied:

       1A    -20.553136     2A    -11.268115     3A    -11.212055
       4A    -11.210541     5A    -11.205496     6A    -11.204970
       7A     -1.359848     8A     -1.075672     9A     -1.008232
      10A     -0.913059    11A     -0.821832    12A     -0.781709
      13A     -0.701814    14A     -0.651745    15A     -0.618138
      16A     -0.579199    17A     -0.571249    18A     -0.558117
      19A     -0.524294    20A     -0.506272    21A     -0.484022
      22A     -0.468014    23A     -0.454754    24A     -0.448516
      25A     -0.428475

  @DF-RHF Final Energy:  -271.17459072692208

   => Energetics <=

    Nuclear Repulsion Energy =            250.0163431465685449
    One-Electron Energy =                -863.1634004366063664
    Two-Electron Energy =                 341.9724665631159723
    DFT Exchange-Correlation Energy =       0.0000000000000000
    Empirical Dispersion Energy =           0.0000000000000000
    PCM Polarization Energy =               0.0000000000000000
    EFP Energy =                            0.0000000000000000
    Total Energy =                       -271.1745907269217923

  Mulliken Charges: (a.u.)
   Center  Symbol    Alpha    Beta     Spin     Total
       1     H     0.28069  0.28069  0.00000  0.43862
       2     O     4.36912  4.36912  0.00000 -0.73824
       3     C     3.00018  3.00018  0.00000 -0.00036
       4     C     3.16206  3.16206  0.00000 -0.32411
       5     H     0.42978  0.42978  0.00000  0.14044
       6     H     0.43303  0.43303  0.00000  0.13394
       7     C     3.15227  3.15227  0.00000 -0.30454
       8     H     0.41260  0.41260  0.00000  0.17480
       9     H     0.42128  0.42128  0.00000  0.15743
      10     C     3.15504  3.15504  0.00000 -0.31008
      11     H     0.41849  0.41849  0.00000  0.16301
      12     H     0.41319  0.41319  0.00000  0.17362
      13     C     3.23929  3.23929  0.00000 -0.47857
      14     H     0.42372  0.42372  0.00000  0.15256
      15     H     0.42549  0.42549  0.00000  0.14902
      16     H     0.42132  0.42132  0.00000  0.15735
      17     H     0.42064  0.42064  0.00000  0.15871
      18     H     0.42180  0.42180  0.00000  0.15639

   Total alpha = 25.00000, Total beta = 25.00000, Total charge =  0.00000
