  ==> Input File <==

--------------------------------------------------------------------------
set {
	reference rhf
	basis cc-pvtz
}

set_num_threads( 4 )
memory 2 gb

molecule MOL {
0 1

H	 -2.498963	 -0.741158	 -0.729149
O	 -2.346257	 -0.289210	 0.080372
C	 -1.183935	 0.486039	 -0.009831
C	 0.062853	 -0.375310	 0.027457
H	 -1.178881	 1.094526	 -0.908634
H	 -1.184406	 1.155156	 0.838676
O	 -0.035742	 -1.330319	 -0.977376
H	 0.154790	 -0.854935	 1.003368
H	 0.941498	 0.250781	 -0.112426
C	 1.060860	 -2.177643	 -1.080950
H	 1.213895	 -2.743412	 -0.164566
H	 0.870070	 -2.868808	 -1.888772
H	 1.971086	 -1.624427	 -1.299952

	symmetry c1
}
set optking {
	frozen_dihedral = ("
		8 4 3 5
	")
}

ee = optimize('scf')
oeprop('DIPOLE', 'QUADRUPOLE', 'MULLIKEN_CHARGES')
f=open( 'psi4out.xyz', 'w' )
f.write( "13  " )
f.write( str(ee) + "\n" )
f.write( MOL.save_string_xyz() )
f.close()
--------------------------------------------------------------------------

    Molecular point group: c1
  Charge       = 0
  Multiplicity = 1
  Basis Set: CC-PVTZ
  Basis Set:
  @DF-RHF Final Energy:  -268.06386525608298
    Total Energy =                       -268.0638652560829200
    Molecular point group: c1
  Basis Set: CC-PVTZ
  Basis Set:
  Basis Set: CC-PVTZ
  Basis Set:
  @DF-RHF Final Energy:  -268.06496399190451
    Total Energy =                       -268.0649639919046194
  Basis Set: CC-PVTZ
  Basis Set:
  Basis Set: CC-PVTZ
  Basis Set:
  @DF-RHF Final Energy:  -268.06519706424547
    Total Energy =                       -268.0651970642455808
  Basis Set: CC-PVTZ
  Basis Set:
  Basis Set: CC-PVTZ
  Basis Set:
  @DF-RHF Final Energy:  -268.06521217063101
    Total Energy =                       -268.0652121706309572
  Basis Set: CC-PVTZ
  Basis Set:
  Charge       = 0
  Multiplicity = 1
  Basis Set: CC-PVTZ
  Basis Set:

    Orbital Energies (a.u.)
    -----------------------

    Doubly Occupied:

       1A    -20.562002     2A    -20.542264     3A    -11.272427
       4A    -11.271880     5A    -11.266858     6A     -1.399006
       7A     -1.359305     8A     -1.021696     9A     -0.923261
      10A     -0.836733    11A     -0.705308    12A     -0.683542
      13A     -0.668880    14A     -0.637195    15A     -0.585912
      16A     -0.584120    17A     -0.544451    18A     -0.495256
      19A     -0.484939    20A     -0.437213    21A     -0.429574

  @DF-RHF Final Energy:  -268.06521337093540

   => Energetics <=

    Nuclear Repulsion Energy =            194.8101349724803981
    One-Electron Energy =                -752.3270598894706609
    Two-Electron Energy =                 289.4517115460548666
    DFT Exchange-Correlation Energy =       0.0000000000000000
    Empirical Dispersion Energy =           0.0000000000000000
    PCM Polarization Energy =               0.0000000000000000
    EFP Energy =                            0.0000000000000000
    Total Energy =                       -268.0652133709354530
    Molecular point group: c1
  Basis Set: CC-PVTZ
  Basis Set:

  -Total Gradient:
     Atom            X                  Y                   Z
    ------   -----------------  -----------------  -----------------
       1        0.000006846716    -0.000004348511    -0.000007990507
       2       -0.000009855519     0.000014092179     0.000005919774
       3       -0.001161099077    -0.001736453300    -0.001314507700
       4       -0.001302589925    -0.001972859342    -0.000945126226
       5        0.001198570712     0.001748815419     0.001254125927
       6        0.000004815305    -0.000007719255     0.000008022978
       7        0.000011503655     0.000007832486     0.000044607981
       8        0.001274189227     0.001915465958     0.000928219613
       9        0.000006709478     0.000020682383     0.000022915876
      10       -0.000015762221     0.000000949681    -0.000007075687
      11        0.000002311329    -0.000003081982     0.000010199541
      12       -0.000007709269     0.000013427592     0.000001520014
      13       -0.000007930413     0.000003196692    -0.000000831582

  **** Optimization is complete! (in 5 steps) ****
    Final optimized geometry and variables:
    Molecular point group: c1

    Geometry (in Angstrom), charge = 0, multiplicity = 1:

    H           -1.804932484406    -0.195904232213    -0.194403700998
    O           -1.846039577219     0.473372701453     0.466205373894
    C           -0.679149109931     1.232894066337     0.400321667343
    C            0.566885386513     0.375689992459     0.432153836024
    H           -0.662668905248     1.862046477810    -0.486163902371
    H           -0.676217013294     1.889601409569     1.261081927083
    O            0.489518991938    -0.550400761843    -0.606125013339
    H            0.652100422039    -0.126792307102     1.393708011550
    H            1.444998007146     1.009885779348     0.314222334781
    C            1.547757324230    -1.450885560185    -0.664393979752
    H            1.614764097101    -2.042193327972     0.245323867251
    H            1.373692542716    -2.113007514586    -1.499819785725
    H            2.495053043682    -0.938834075219    -0.814640442976

  Mulliken Charges: (a.u.)
   Center  Symbol    Alpha    Beta     Spin     Total
       1     H     0.38548  0.38548  0.00000  0.22905
       2     O     4.20806  4.20806  0.00000 -0.41611
       3     C     2.96017  2.96017  0.00000  0.07966
       4     C     2.97425  2.97425  0.00000  0.05150
       5     H     0.47130  0.47130  0.00000  0.05739
       6     H     0.46023  0.46023  0.00000  0.07955
       7     O     4.18413  4.18413  0.00000 -0.36827
       8     H     0.47020  0.47020  0.00000  0.05960
       9     H     0.47214  0.47214  0.00000  0.05572
      10     C     3.03008  3.03008  0.00000 -0.06016
      11     H     0.46846  0.46846  0.00000  0.06308
      12     H     0.44640  0.44640  0.00000  0.10721
      13     H     0.46911  0.46911  0.00000  0.06178

   Total alpha = 21.00000, Total beta = 21.00000, Total charge = -0.00000
