  ==> Input File <==

--------------------------------------------------------------------------
set {
	reference rhf
	basis 6-31G*
}

set_num_threads( 1 )
memory 2 gb

molecule MOL {
0 1

H	 -1.836216	 1.387520	 -0.000064
C	 -1.301823	 0.443321	 -0.000031
O	 -0.003969	 0.658512	 0.000451
O	 -1.829879	 -0.616434	 -0.000857
C	 0.776213	 -0.038651	 0.971258
C	 2.219741	 0.369786	 0.771937
H	 0.636624	 -1.101918	 0.832352
H	 0.417843	 0.219975	 1.958162
H	 2.559053	 0.110317	 -0.224344
H	 2.849524	 -0.140470	 1.493217
H	 2.339381	 1.438600	 0.906881

	symmetry c1
}
set optking {
	frozen_dihedral = ("
		7 5 3 2
	")
}

ee = energy('scf')
oeprop('DIPOLE', 'QUADRUPOLE', 'MULLIKEN_CHARGES')
f=open( 'psi4out.xyz', 'w' )
f.write( "11  " )
f.write( str(ee) + "\n" )
f.write( MOL.save_string_xyz() )
f.close()
--------------------------------------------------------------------------

    Molecular point group: c1

    Geometry (in Angstrom), charge = 0, multiplicity = 1:

       Center              X                  Y                   Z               Mass
    ------------   -----------------  -----------------  -----------------  -----------------
           H         -1.809446191918     1.226849757347    -0.350113515514     1.007825032070
           C         -1.275053191918     0.282650757347    -0.350080515514    12.000000000000
           O          0.022800808082     0.497841757347    -0.349598515514    15.994914619560
           O         -1.803109191918    -0.777104242653    -0.350906515514    15.994914619560
           C          0.802982808082    -0.199321242653     0.621208484486    12.000000000000
           C          2.246510808082     0.209115757347     0.421887484486    12.000000000000
           H          0.663393808082    -1.262588242653     0.482302484486     1.007825032070
           H          0.444612808082     0.059304757347     1.608112484486     1.007825032070
           H          2.585822808082    -0.050353242653    -0.574393515514     1.007825032070
           H          2.876293808082    -0.301140242653     1.143167484486     1.007825032070
           H          2.366150808082     1.277929757347     0.556831484486     1.007825032070

  Charge       = 0
  Multiplicity = 1
  Basis Set: 6-31G*
  Basis Set:

    Orbital Energies (a.u.)
    -----------------------

    Doubly Occupied:

       1A    -20.600739     2A    -20.562887     3A    -11.378811
       4A    -11.297454     5A    -11.228393     6A     -1.472804
       7A     -1.375388     8A     -1.052828     9A     -0.898462
      10A     -0.815143    11A     -0.740964    12A     -0.687034
      13A     -0.665952    14A     -0.619118    15A     -0.563266
      16A     -0.548372    17A     -0.528940    18A     -0.508514
      19A     -0.464041    20A     -0.449180

  @DF-RHF Final Energy:  -266.81658216986489

   => Energetics <=

    Nuclear Repulsion Energy =            178.5013340033382576
    One-Electron Energy =                -717.7192686996337443
    Two-Electron Energy =                 272.4013525264307987
    DFT Exchange-Correlation Energy =       0.0000000000000000
    Empirical Dispersion Energy =           0.0000000000000000
    PCM Polarization Energy =               0.0000000000000000
    EFP Energy =                            0.0000000000000000
    Total Energy =                       -266.8165821698647164

  Mulliken Charges: (a.u.)
   Center  Symbol    Alpha    Beta     Spin     Total
       1     H     0.41916  0.41916  0.00000  0.16167
       2     C     2.72688  2.72688  0.00000  0.54624
       3     O     4.29621  4.29621  0.00000 -0.59241
       4     O     4.24924  4.24924  0.00000 -0.49848
       5     C     3.00686  3.00686  0.00000 -0.01372
       6     C     3.24890  3.24890  0.00000 -0.49779
       7     H     0.40312  0.40312  0.00000  0.19377
       8     H     0.41632  0.41632  0.00000  0.16737
       9     H     0.40737  0.40737  0.00000  0.18526
      10     H     0.41549  0.41549  0.00000  0.16903
      11     H     0.41046  0.41046  0.00000  0.17908

   Total alpha = 20.00000, Total beta = 20.00000, Total charge =  0.00000
