                              Psi4 1.0.54 Driver

  ==> Input File <==

--------------------------------------------------------------------------
set {
	reference rhf
	basis cc-pvtz
}

set_num_threads( 4 )
memory 2 gb

molecule MOL {
0 1

H	 5.269878	 0.195679	 1.068175
C	 4.673900	 -0.208485	 0.258034
C	 3.190199	 -0.204714	 0.610086
H	 4.865136	 0.391893	 -0.624684
H	 5.027838	 -1.214511	 0.056939
C	 2.319208	 -0.778154	 -0.505491
H	 2.876954	 0.809861	 0.827925
H	 3.035335	 -0.782733	 1.518235
C	 3.100249	 -1.180575	 -1.752456
H	 1.777348	 -1.639752	 -0.135537
H	 1.578020	 -0.037661	 -0.792010
C	 3.954052	 -2.427018	 -1.591570
H	 2.411643	 -1.389443	 -2.567294
H	 3.726794	 -0.364053	 -2.099228
C	 5.042521	 -2.666459	 -2.619809
O	 3.768704	 -3.200749	 -0.708246
C	 4.511977	 -2.884170	 -4.040896
H	 5.601410	 -3.533129	 -2.293672
H	 5.714684	 -1.812441	 -2.613040
C	 5.623526	 -3.216909	 -5.032567
H	 3.786284	 -3.692787	 -4.030682
H	 3.985495	 -1.998651	 -4.382471
C	 5.108160	 -3.443379	 -6.449689
H	 6.150973	 -4.103526	 -4.693770
H	 6.352270	 -2.411004	 -5.037326
H	 4.400283	 -4.264689	 -6.481931
H	 4.606454	 -2.560034	 -6.830548
H	 5.919877	 -3.680101	 -7.127472

	symmetry c1
}
set optking {
	frozen_dihedral = ("
		10 6 3 2
	")
}

ee,wfn = optimize('scf', return_wfn=True)
oeprop( wfn, 'DIPOLE', 'QUADRUPOLE', 'MULLIKEN_CHARGES')
f=open( 'psi4out.xyz', 'w' )
f.write( "28  " )
f.write( str(ee) + "\n" )
f.write( MOL.save_string_xyz() )
f.close()
--------------------------------------------------------------------------

    Molecular point group: c1
  Charge       = 0
  Multiplicity = 1
  Basis Set: CC-PVTZ
  Basis Set:
  @DF-RHF Final Energy:  -426.30355690406475
    Total Energy =                       -426.3035569040652035
    Molecular point group: c1
  Basis Set: CC-PVTZ
  Basis Set:
  Basis Set: CC-PVTZ
  Basis Set:
  @DF-RHF Final Energy:  -426.07438910190803
    Total Energy =                       -426.0743891019077410
  Basis Set: CC-PVTZ
  Basis Set:
  Basis Set: CC-PVTZ
  Basis Set:
  @DF-RHF Final Energy:  -426.21219153879076
    Total Energy =                       -426.2121915387911031
  Basis Set: CC-PVTZ
  Basis Set:
  Basis Set: CC-PVTZ
  Basis Set:
  @DF-RHF Final Energy:  -426.30111322970868
    Total Energy =                       -426.3011132297086760
  Basis Set: CC-PVTZ
  Basis Set:
  @DF-RHF Final Energy:  -426.30814953989795
    Total Energy =                       -426.3081495398979541
  @DF-RHF Final Energy:  -426.30862179244946
    Total Energy =                       -426.3086217924493440
  @DF-RHF Final Energy:  -426.30933288763981
    Total Energy =                       -426.3093328876393571
  @DF-RHF Final Energy:  -426.30966498347402
    Total Energy =                       -426.3096649834736809
  @DF-RHF Final Energy:  -426.30972024075436
    Total Energy =                       -426.3097202407537907
  @DF-RHF Final Energy:  -426.30977289356690
    Total Energy =                       -426.3097728935667874
  Basis Set: CC-PVTZ
  Basis Set:
  @DF-RHF Final Energy:  -426.30979207075063
    Total Energy =                       -426.3097920707512003
  Basis Set: CC-PVTZ
  Basis Set:
  Basis Set: CC-PVTZ
  Basis Set:
  @DF-RHF Final Energy:  -426.30980693771585
    Total Energy =                       -426.3098069377155070
  Basis Set: CC-PVTZ
  Basis Set:
  Basis Set: CC-PVTZ
  Basis Set:
  @DF-RHF Final Energy:  -426.30981117299905
    Total Energy =                       -426.3098111729989341
  Basis Set: CC-PVTZ
  Basis Set:
  Charge       = 0
  Multiplicity = 1
  Basis Set: CC-PVTZ
  Basis Set:

    Orbital Energies (a.u.)
    -----------------------

    Doubly Occupied:

       1A    -20.535832     2A    -11.315971     3A    -11.229603
       4A    -11.227626     5A    -11.226538     6A    -11.223583
       7A    -11.215064     8A    -11.214053     9A    -11.212993
      10A    -11.206439    11A     -1.395924    12A     -1.095529
      13A     -1.075110    14A     -1.021478    15A     -0.989938
      16A     -0.913783    17A     -0.881878    18A     -0.808754
      19A     -0.791068    20A     -0.720529    21A     -0.670086
      22A     -0.652352    23A     -0.637112    24A     -0.624840
      25A     -0.608990    26A     -0.595446    27A     -0.578673
      28A     -0.553144    29A     -0.548096    30A     -0.534696
      31A     -0.531850    32A     -0.510456    33A     -0.506428
      34A     -0.484763    35A     -0.477881    36A     -0.474948
      37A     -0.470117    38A     -0.457259    39A     -0.454373
      40A     -0.393742

  @DF-RHF Final Energy:  -426.30981161902071

   => Energetics <=

    Nuclear Repulsion Energy =            542.3285993895661932
    One-Electron Energy =               -1653.1429420657059381
    Two-Electron Energy =                 684.5045310571192658
    DFT Exchange-Correlation Energy =       0.0000000000000000
    Empirical Dispersion Energy =           0.0000000000000000
    PCM Polarization Energy =               0.0000000000000000
    EFP Energy =                            0.0000000000000000
    Total Energy =                       -426.3098116190205928
    Molecular point group: c1
  Basis Set: CC-PVTZ
  Basis Set:

  -Total Gradient:
     Atom            X                  Y                   Z
    ------   -----------------  -----------------  -----------------
       1        0.000004335090     0.000005404429     0.000003638151
       2        0.000213696901    -0.000345429663     0.000313514493
       3       -0.000154523807     0.000450450588    -0.000474385442
       4        0.000002936244     0.000008348500     0.000000422324
       5        0.000013555170    -0.000006280472    -0.000002217398
       6       -0.000683421571     0.000114360225     0.000217049846
       7       -0.000016203183     0.000002369311    -0.000002498370
       8       -0.000007077652    -0.000003547679     0.000008945425
       9        0.000063717001     0.000003966230    -0.000007964123
      10        0.000609578876    -0.000207147354    -0.000056301893
      11       -0.000021027244     0.000009488764     0.000002298598
      12        0.000006007867     0.000041584169    -0.000065256390
      13       -0.000002363465    -0.000029239231    -0.000001393604
      14       -0.000035522535     0.000000515120     0.000002769013
      15        0.000006102109     0.000020927999     0.000013294780
      16        0.000005077759    -0.000048132012     0.000038130204
      17       -0.000016948394    -0.000033046641     0.000014820866
      18       -0.000002471021    -0.000008123010    -0.000011317700
      19        0.000005846949     0.000009365028     0.000000260409
      20        0.000017016312     0.000001234876    -0.000002871679
      21       -0.000008204574    -0.000002345476     0.000006053265
      22        0.000001148038     0.000004492153     0.000005080395
      23       -0.000006284753     0.000008642588     0.000002742542
      24       -0.000000987157    -0.000002888440     0.000003867276
      25        0.000009897829     0.000001993461    -0.000003407317
      26        0.000001372036     0.000000517104     0.000001206261
      27       -0.000008838387    -0.000000304072    -0.000006044507
      28        0.000003585563     0.000002823506    -0.000000435426

  **** Optimization is complete! (in 14 steps) ****
    Final optimized geometry and variables:
    Molecular point group: c1

    Geometry (in Angstrom), charge = 0, multiplicity = 1:

    H           -0.099994788028     3.561774302294     2.680265702979
    C           -0.290068027218     2.760758453757     1.975120929016
    C           -1.700602421943     2.212544550992     2.188082144730
    H           -0.156753722182     3.173022514115     0.981027144156
    H            0.467326900402     2.004402114912     2.136106788104
    C           -2.173893137167     1.054591764670     1.268064893480
    H           -2.397520779628     3.037582994812     2.087141492407
    H           -1.778396309541     1.884449338766     3.217491780904
    C           -1.218020607225     0.579895109996     0.174239191716
    H           -2.415902532357     0.195594391213     1.877724887264
    H           -3.094421502132     1.355333482747     0.781314672681
    C           -0.053244742078    -0.262361342537     0.664035925747
    H           -1.769206403844    -0.054852425896    -0.515464371784
    H           -0.841656151022     1.399578046979    -0.426454726138
    C            1.111131165391    -0.465256303289    -0.285789509275
    O           -0.058552900414    -0.768973445627     1.739718924260
    C            0.743910072887    -1.257464687920    -1.545376736601
    H            1.884727753556    -0.981973629419     0.265934253849
    H            1.496924526406     0.509309658368    -0.572355190764
    C            1.953526979074    -1.528125846967    -2.435942075914
    H            0.294210148249    -2.202459941389    -1.253555080839
    H           -0.005251175939    -0.720524650182    -2.118498820331
    C            1.601998408177    -2.317228236076    -3.692424529940
    H            2.702429758195    -2.070138827689    -1.866345214818
    H            2.409115263771    -0.582980283222    -2.718233130766
    H            1.174101421415    -3.281912107638    -3.441539272180
    H            0.879559992706    -1.783958207526    -4.301343583054
    H            2.480778618883    -2.493894665026    -4.301400509218

  Mulliken Charges: (a.u.)
   Center  Symbol    Alpha    Beta     Spin     Total
       1     H     0.44162  0.44162  0.00000  0.11676
       2     C     3.16571  3.16571  0.00000 -0.33143
       3     C     3.08103  3.08103  0.00000 -0.16207
       4     H     0.45645  0.45645  0.00000  0.08709
       5     H     0.44743  0.44743  0.00000  0.10515
       6     C     3.10113  3.10113  0.00000 -0.20225
       7     H     0.45238  0.45238  0.00000  0.09524
       8     H     0.44869  0.44869  0.00000  0.10261
       9     C     3.12831  3.12831  0.00000 -0.25663
      10     H     0.44213  0.44213  0.00000  0.11574
      11     H     0.44452  0.44452  0.00000  0.11096
      12     C     2.86874  2.86874  0.00000  0.26252
      13     H     0.43091  0.43091  0.00000  0.13819
      14     H     0.44152  0.44152  0.00000  0.11697
      15     C     3.09055  3.09055  0.00000 -0.18111
      16     O     4.17987  4.17987  0.00000 -0.35974
      17     C     3.10034  3.10034  0.00000 -0.20068
      18     H     0.43807  0.43807  0.00000  0.12387
      19     H     0.44899  0.44899  0.00000  0.10203
      20     C     3.08726  3.08726  0.00000 -0.17452
      21     H     0.44548  0.44548  0.00000  0.10904
      22     H     0.45058  0.45058  0.00000  0.09883
      23     C     3.14940  3.14940  0.00000 -0.29880
      24     H     0.44982  0.44982  0.00000  0.10036
      25     H     0.45362  0.45362  0.00000  0.09277
      26     H     0.45341  0.45341  0.00000  0.09317
      27     H     0.45522  0.45522  0.00000  0.08955
      28     H     0.44681  0.44681  0.00000  0.10638

   Total alpha = 40.00000, Total beta = 40.00000, Total charge =  0.00000

*** Psi4 exiting successfully. Buy a developer a beer!
