  ==> Input File <==

--------------------------------------------------------------------------
set {
	reference rhf
	basis cc-pvtz
}

set_num_threads( 4 )
memory 2 gb

molecule MOL {
0 1

H	 -1.336000	 -1.250000	 -0.875000
C	 -1.288000	 -0.608000	 0.000000
C	 -0.000000	 0.188000	 -0.000000
H	 -2.134000	 0.066000	 0.001000
H	 -1.335000	 -1.251000	 0.874000
C	 1.288000	 -0.608000	 -0.000000
O	 -0.000000	 1.380000	 0.000000
H	 1.335000	 -1.251000	 -0.874000
H	 2.134000	 0.066000	 -0.001000
H	 1.336000	 -1.250000	 0.875000

	symmetry c1
}
ee = optimize('scf')
oeprop('DIPOLE', 'QUADRUPOLE', 'MULLIKEN_CHARGES')
f=open( 'psi4out.xyz', 'w' )
f.write( "10  " )
f.write( str(ee) + "\n" )
f.write( MOL.save_string_xyz() )
f.close()
--------------------------------------------------------------------------

    Molecular point group: c1
  Charge       = 0
  Multiplicity = 1
  Basis Set: CC-PVTZ
  Basis Set:
  @DF-RHF Final Energy:  -192.03504777829772
    Total Energy =                       -192.0350477782977521
    Molecular point group: c1
  Basis Set: CC-PVTZ
  Basis Set:
  Basis Set: CC-PVTZ
  Basis Set:
  @DF-RHF Final Energy:  -192.03514406956742
    Total Energy =                       -192.0351440695674512
  Basis Set: CC-PVTZ
  Basis Set:
  Charge       = 0
  Multiplicity = 1
  Basis Set: CC-PVTZ
  Basis Set:

    Orbital Energies (a.u.)
    -----------------------

    Doubly Occupied:

       1A    -20.540647     2A    -11.324726     3A    -11.229024
       4A    -11.229002     5A     -1.400652     6A     -1.041325
       7A     -0.969291     8A     -0.740697     9A     -0.650041
      10A     -0.639096    11A     -0.626548    12A     -0.564384
      13A     -0.561064    14A     -0.538681    15A     -0.495312
      16A     -0.409346

  @DF-RHF Final Energy:  -192.03514716532129

   => Energetics <=

    Nuclear Repulsion Energy =            120.4847118864715299
    One-Electron Energy =                -499.1200432889190779
    Two-Electron Energy =                 186.6001842371262285
    DFT Exchange-Correlation Energy =       0.0000000000000000
    Empirical Dispersion Energy =           0.0000000000000000
    PCM Polarization Energy =               0.0000000000000000
    EFP Energy =                            0.0000000000000000
    Total Energy =                       -192.0351471653213196
    Molecular point group: c1
  Basis Set: CC-PVTZ
  Basis Set:

  -Total Gradient:
     Atom            X                  Y                   Z
    ------   -----------------  -----------------  -----------------
       1        0.000014728773    -0.000012349578     0.000003613868
       2       -0.000000400018     0.000035563573     0.000064276462
       3       -0.000000002020    -0.000000000263    -0.000265984783
       4       -0.000000649614     0.000061200935    -0.000020156813
       5       -0.000013243154    -0.000012526548     0.000001416339
       6        0.000000401180    -0.000035563266     0.000064276620
       7        0.000000000670    -0.000000000017     0.000167685176
       8        0.000013243119     0.000012526333     0.000001416423
       9        0.000000649654    -0.000061200933    -0.000020156855
      10       -0.000014728591     0.000012349764     0.000003613564

  **** Optimization is complete! (in 3 steps) ****
    Final optimized geometry and variables:
    Molecular point group: c1

    Geometry (in Angstrom), charge = 0, multiplicity = 1:

    H           -0.873466738347    -1.327127698719    -1.330069442037
    C            0.000113038593    -1.285375742455    -0.688614342900
    C           -0.000000004050    -0.000000000053     0.105092795942
    H            0.000747126950    -2.130943306175    -0.018472775337
    H            0.873013631902    -1.326507214803    -1.331031729237
    C           -0.000113037408     1.285375742776    -0.688614342703
    O            0.000000001510    -0.000000000242     1.292080299600
    H           -0.873013630261     1.326507220712    -1.331031729689
    H           -0.000747120375     2.130943306646    -0.018472775480
    H            0.873466740279     1.327127692991    -1.330069441875

  Mulliken Charges: (a.u.)
   Center  Symbol    Alpha    Beta     Spin     Total
       1     H     0.45147  0.45147  0.00000  0.09705
       2     C     3.14913  3.14913  0.00000 -0.29826
       3     C     2.85551  2.85551  0.00000  0.28897
       4     H     0.43613  0.43613  0.00000  0.12774
       5     H     0.45149  0.45149  0.00000  0.09703
       6     C     3.14913  3.14913  0.00000 -0.29826
       7     O     4.16806  4.16806  0.00000 -0.33612
       8     H     0.45149  0.45149  0.00000  0.09703
       9     H     0.43613  0.43613  0.00000  0.12774
      10     H     0.45147  0.45147  0.00000  0.09705

   Total alpha = 16.00000, Total beta = 16.00000, Total charge =  0.00000
