                              Psi4 1.0.54 Driver

  ==> Input File <==

--------------------------------------------------------------------------
set {
	reference rhf
	basis cc-pvtz
}

set_num_threads( 4 )
memory 2 gb

molecule MOL {
0 1

H	 1.913773	 -0.721143	 -0.886281
O	 1.583947	 -0.677544	 -0.001533
C	 0.489979	 0.078084	 0.002623
C	 -0.763662	 -0.754014	 0.000816
O	 0.539051	 1.259395	 -0.000088
C	 -2.038001	 0.074705	 -0.000833
H	 -0.712945	 -1.405886	 -0.864342
H	 -0.715137	 -1.405770	 0.866182
H	 -2.087267	 0.710831	 -0.874232
H	 -2.903419	 -0.576199	 -0.001922
H	 -2.089467	 0.710909	 0.872389

	symmetry c1
}
set optking {
	frozen_dihedral = ("
		1 2 3 5
	")
}

ee,wfn = optimize('scf', return_wfn=True)
oeprop( wfn, 'DIPOLE', 'QUADRUPOLE', 'MULLIKEN_CHARGES')
f=open( 'psi4out.xyz', 'w' )
f.write( "11  " )
f.write( str(ee) + "\n" )
f.write( MOL.save_string_xyz() )
f.close()
--------------------------------------------------------------------------

    Molecular point group: c1
  Charge       = 0
  Multiplicity = 1
  Basis Set: CC-PVTZ
  Basis Set:
  @DF-RHF Final Energy:  -266.93298728498849
    Total Energy =                       -266.9329872849884282
    Molecular point group: c1
  Basis Set: CC-PVTZ
  Basis Set:
  Basis Set: CC-PVTZ
  Basis Set:
  @DF-RHF Final Energy:  -266.93231917930876
    Total Energy =                       -266.9323191793088199
  Basis Set: CC-PVTZ
  Basis Set:
  Basis Set: CC-PVTZ
  Basis Set:
  @DF-RHF Final Energy:  -266.93390350386210
    Total Energy =                       -266.9339035038620978
  Basis Set: CC-PVTZ
  Basis Set:
  Basis Set: CC-PVTZ
  Basis Set:
  @DF-RHF Final Energy:  -266.93471105825483
    Total Energy =                       -266.9347110582549476
  Basis Set: CC-PVTZ
  Basis Set:
  Basis Set: CC-PVTZ
  Basis Set:
  @DF-RHF Final Energy:  -266.93471872035104
    Total Energy =                       -266.9347187203510430
  Basis Set: CC-PVTZ
  Basis Set:
  Charge       = 0
  Multiplicity = 1
  Basis Set: CC-PVTZ
  Basis Set:

    Orbital Energies (a.u.)
    -----------------------

    Doubly Occupied:

       1A    -20.587442     2A    -20.551466     3A    -11.375057
       4A    -11.244212     5A    -11.219853     6A     -1.464770
       7A     -1.371318     8A     -1.065384     9A     -0.912418
      10A     -0.807776    11A     -0.713309    12A     -0.680118
      13A     -0.661540    14A     -0.614767    15A     -0.569803
      16A     -0.529752    17A     -0.524381    18A     -0.502549
      19A     -0.495404    20A     -0.449398

  @DF-RHF Final Energy:  -266.93471924690630

   => Energetics <=

    Nuclear Repulsion Energy =            179.3954668113869104
    One-Electron Energy =                -719.9789404194530107
    Two-Electron Energy =                 273.6487543611597175
    DFT Exchange-Correlation Energy =       0.0000000000000000
    Empirical Dispersion Energy =           0.0000000000000000
    PCM Polarization Energy =               0.0000000000000000
    EFP Energy =                            0.0000000000000000
    Total Energy =                       -266.9347192469064112
    Molecular point group: c1
  Basis Set: CC-PVTZ
  Basis Set:

  -Total Gradient:
     Atom            X                  Y                   Z
    ------   -----------------  -----------------  -----------------
       1       -0.002909912969    -0.004469956805    -0.001213638693
       2        0.003399735006     0.005636565576     0.003669791900
       3       -0.000009516707    -0.001324555676    -0.007220813132
       4        0.000026338117     0.000026006813    -0.000044976803
       5       -0.000517706682     0.000125265711     0.004777166683
       6        0.000000137526     0.000011809609     0.000013001470
       7        0.000002292232    -0.000007599653     0.000009289251
       8        0.000011170847    -0.000001088906     0.000018440713
       9       -0.000003353358     0.000003362281    -0.000006577015
      10        0.000001012840    -0.000002670255    -0.000003426797
      11       -0.000000196851     0.000002861303     0.000001742422

  **** Optimization is complete! (in 6 steps) ****
    Final optimized geometry and variables:
    Molecular point group: c1

    Geometry (in Angstrom), charge = 0, multiplicity = 1:

    H            2.060783359456    -0.772022069008    -0.708422015434
    O            1.606718180019    -0.687522992188     0.113707742881
    C            0.492269622046     0.081604509417    -0.001822522398
    C           -0.775779374494    -0.729300244528    -0.010020890899
    O            0.547725283673     1.254608891998    -0.012413060430
    C           -2.042864214376     0.108806123195    -0.049604759115
    H           -0.719910097519    -1.404720707239    -0.858574186184
    H           -0.743958937907    -1.364948107197     0.868432018886
    H           -2.073823168906     0.727427560762    -0.936719937647
    H           -2.915047028720    -0.533262173534    -0.049882767239
    H           -2.100889059115     0.763927030643     0.809199631230

  Mulliken Charges: (a.u.)
   Center  Symbol    Alpha    Beta     Spin     Total
       1     H     0.38581  0.38581  0.00000  0.22838
       2     O     4.17693  4.17693  0.00000 -0.35386
       3     C     2.80242  2.80242  0.00000  0.39516
       4     C     3.10080  3.10080  0.00000 -0.20160
       5     O     4.16288  4.16288  0.00000 -0.32576
       6     C     3.13949  3.13949  0.00000 -0.27897
       7     H     0.44823  0.44823  0.00000  0.10353
       8     H     0.43811  0.43811  0.00000  0.12377
       9     H     0.44898  0.44898  0.00000  0.10205
      10     H     0.44996  0.44996  0.00000  0.10008
      11     H     0.44639  0.44639  0.00000  0.10722

   Total alpha = 20.00000, Total beta = 20.00000, Total charge = -0.00000

*** Psi4 exiting successfully. Buy a developer a beer!
