  ==> Input File <==

--------------------------------------------------------------------------
set {
	reference rhf
	basis 6-31G*
}

set_num_threads( 4 )
memory 2 gb

molecule MOL {
0 1

H	 -0.216825	 0.021369	 -3.357402
C	 0.374198	 0.036393	 -2.447010
C	 -0.521757	 -0.028637	 -1.217342
H	 0.969602	 0.942322	 -2.434777
H	 1.053364	 -0.811668	 -2.481329
N	 0.263400	 0.031178	 0.000000
H	 -1.199035	 0.820290	 -1.219355
H	 -1.147901	 -0.924895	 -1.265384
C	 -0.521757	 -0.028637	 1.217342
H	 0.935769	 -0.712709	 0.000000
C	 -1.800452	 0.787132	 1.081300
H	 -0.775281	 -1.068735	 1.399848
H	 0.040319	 0.311631	 2.092516
H	 -2.389386	 0.431941	 0.243231
H	 -2.401425	 0.717413	 1.982587
H	 -1.578025	 1.837989	 0.914338

	symmetry c1
}
set optking {
	frozen_dihedral = ("
		12 9 6 3
	")
}

ee = optimize('scf')
oeprop('DIPOLE', 'QUADRUPOLE', 'MULLIKEN_CHARGES')
f=open( 'psi4out.xyz', 'w' )
f.write( "16  " )
f.write( str(ee) + "\n" )
f.write( MOL.save_string_xyz() )
f.close()
--------------------------------------------------------------------------

    Molecular point group: c1
  Charge       = 0
  Multiplicity = 1
  Basis Set: 6-31G*
  Basis Set:
  @DF-RHF Final Energy:  -212.30238668253108
    Total Energy =                       -212.3023866825312780
    Molecular point group: c1
  Basis Set: 6-31G*
  Basis Set:
  Basis Set: 6-31G*
  Basis Set:
  @DF-RHF Final Energy:  -212.30431952524685
    Total Energy =                       -212.3043195252468536
  Basis Set: 6-31G*
  Basis Set:
  Basis Set: 6-31G*
  Basis Set:
  @DF-RHF Final Energy:  -212.30805014144121
    Total Energy =                       -212.3080501414411856
  Basis Set: 6-31G*
  Basis Set:
  Basis Set: 6-31G*
  Basis Set:
  @DF-RHF Final Energy:  -212.30868969492170
    Total Energy =                       -212.3086896949216111
  Basis Set: 6-31G*
  Basis Set:
  Basis Set: 6-31G*
  Basis Set:
  @DF-RHF Final Energy:  -212.30876108714125
    Total Energy =                       -212.3087610871413631
  Basis Set: 6-31G*
  Basis Set:
  Basis Set: 6-31G*
  Basis Set:
  @DF-RHF Final Energy:  -212.30876740908343
    Total Energy =                       -212.3087674090832593
  Basis Set: 6-31G*
  Basis Set:
  Charge       = 0
  Multiplicity = 1
  Basis Set: 6-31G*
  Basis Set:

    Orbital Energies (a.u.)
    -----------------------

    Doubly Occupied:

       1A    -15.531326     2A    -11.240945     3A    -11.239416
       4A    -11.209127     5A    -11.208322     6A     -1.200424
       7A     -1.024508     8A     -0.968562     9A     -0.852230
      10A     -0.793793    11A     -0.661210    12A     -0.624854
      13A     -0.614876    14A     -0.590629    15A     -0.538089
      16A     -0.516832    17A     -0.513074    18A     -0.494158
      19A     -0.483958    20A     -0.472361    21A     -0.351377

  @DF-RHF Final Energy:  -212.30876766157283

   => Energetics <=

    Nuclear Repulsion Energy =            191.7743584012009421
    One-Electron Energy =                -665.9061120799340188
    Two-Electron Energy =                 261.8229860171601331
    DFT Exchange-Correlation Energy =       0.0000000000000000
    Empirical Dispersion Energy =           0.0000000000000000
    PCM Polarization Energy =               0.0000000000000000
    EFP Energy =                            0.0000000000000000
    Total Energy =                       -212.3087676615729151
    Molecular point group: c1
  Basis Set: 6-31G*
  Basis Set:

  -Total Gradient:
     Atom            X                  Y                   Z
    ------   -----------------  -----------------  -----------------
       1       -0.000002366059    -0.000002163363     0.000001957377
       2       -0.000001568511    -0.000028027932     0.000013349722
       3       -0.000607729499     0.004454110174     0.000024383718
       4       -0.000013659963     0.000001922329     0.000007702006
       5        0.000007895263    -0.000001666563    -0.000002549715
       6        0.002254006582    -0.006535605233     0.000783308832
       7       -0.000014279061     0.000002388314    -0.000007909750
       8        0.000020422653    -0.000000501243    -0.000000488430
       9       -0.006413121411     0.002513240190    -0.003805581476
      10        0.000000921677    -0.000012548652     0.000007143982
      11        0.000001502575    -0.000024914376    -0.000000656689
      12        0.004750282295    -0.000375134074     0.002980129785
      13        0.000011980466     0.000011644070    -0.000002095107
      14       -0.000000164387     0.000006529685     0.000002164186
      15       -0.000004061219    -0.000001277795     0.000001359364
      16        0.000009938599    -0.000007995532    -0.000002217806

  **** Optimization is complete! (in 7 steps) ****
    Final optimized geometry and variables:
    Molecular point group: c1

    Geometry (in Angstrom), charge = 0, multiplicity = 1:

    H            0.388836631901    -0.164796284550    -3.124822339164
    C            0.917527203458    -0.142262866103    -2.177124574885
    C           -0.060855036996    -0.176824906644    -1.009901910807
    H            1.520646039386     0.758034991968    -2.138402931076
    H            1.587780691731    -0.997876660186    -2.153557262433
    N            0.656279376837    -0.092666957584     0.247523235009
    H           -0.729335747762     0.671930151399    -1.086786315222
    H           -0.683236209346    -1.074637058352    -1.085849429055
    C           -0.117339366829    -0.205435429838     1.474940937799
    H            1.403299390523    -0.757986280846     0.262674441857
    C           -1.383406056586     0.641008869208     1.490820213262
    H           -0.353733563480    -1.244630271724     1.721166840919
    H            0.526459368595     0.137532049176     2.280546109899
    H           -2.132263396739     0.279330566384     0.795036361719
    H           -1.822399055162     0.621248231607     2.483152596367
    H           -1.155759755006     1.672422855498     1.242235832517

  Mulliken Charges: (a.u.)
   Center  Symbol    Alpha    Beta     Spin     Total
       1     H     0.41970  0.41970  0.00000  0.16059
       2     C     3.24408  3.24408  0.00000 -0.48816
       3     C     3.05243  3.05243  0.00000 -0.10487
       4     H     0.41218  0.41218  0.00000  0.17565
       5     H     0.42516  0.42516  0.00000  0.14968
       6     N     3.85515  3.85515  0.00000 -0.71030
       7     H     0.41764  0.41764  0.00000  0.16473
       8     H     0.43681  0.43681  0.00000  0.12637
       9     C     3.04825  3.04825  0.00000 -0.09650
      10     H     0.33300  0.33300  0.00000  0.33400
      11     C     3.25104  3.25104  0.00000 -0.50207
      12     H     0.43510  0.43510  0.00000  0.12979
      13     H     0.41943  0.41943  0.00000  0.16113
      14     H     0.41854  0.41854  0.00000  0.16293
      15     H     0.41806  0.41806  0.00000  0.16388
      16     H     0.41343  0.41343  0.00000  0.17315

   Total alpha = 21.00000, Total beta = 21.00000, Total charge =  0.00000
