  ==> Input File <==

--------------------------------------------------------------------------
set {
	reference rhf
	basis 6-31G*
}

set_num_threads( 4 )
memory 2 gb

molecule MOL {
0 1

O	 1.893217	 0.088086	 -0.918726
C	 2.701189	 0.057885	 -0.047330
C	 3.130336	 1.233849	 0.796311
O	 3.347903	 -1.046386	 0.304773
C	 2.403257	 2.527594	 0.436179
H	 2.975116	 0.955085	 1.833320
H	 4.205210	 1.342661	 0.675885
C	 2.901923	 3.752041	 1.211135
H	 1.337687	 2.397614	 0.599839
H	 2.522981	 2.707054	 -0.626780
C	 2.625799	 3.719115	 2.717051
H	 2.425484	 4.634223	 0.789846
H	 3.970539	 3.877247	 1.042632
C	 3.042792	 5.008878	 3.426719
H	 1.563584	 3.545220	 2.882208
H	 3.147301	 2.881892	 3.175380
C	 2.776347	 4.985309	 4.932901
H	 2.514735	 5.850866	 2.982371
H	 4.102546	 5.189008	 3.253012
C	 3.192040	 6.278413	 5.633460
H	 1.717972	 4.804408	 5.108288
H	 3.306854	 4.146927	 5.379508
H	 2.990870	 6.231069	 6.699244
H	 2.652774	 7.132145	 5.232799
H	 4.253770	 6.469821	 5.505530
C	 4.728119	 -1.109107	 -0.004993
H	 4.882018	 -1.033965	 -1.071845
H	 5.068212	 -2.067527	 0.355250
H	 5.265056	 -0.311663	 0.488280

	symmetry c1
}
set optking {
	frozen_dihedral = ("
		1 2 4 26
	")
}

ee = optimize('scf')
oeprop('DIPOLE', 'QUADRUPOLE', 'MULLIKEN_CHARGES')
f=open( 'psi4out.xyz', 'w' )
f.write( "29  " )
f.write( str(ee) + "\n" )
f.write( MOL.save_string_xyz() )
f.close()
--------------------------------------------------------------------------

    Molecular point group: c1
  Charge       = 0
  Multiplicity = 1
  Basis Set: 6-31G*
  Basis Set:
  @DF-RHF Final Energy:  -501.01976379260225
    Total Energy =                       -501.0197637926021343
    Molecular point group: c1
  Basis Set: 6-31G*
  Basis Set:
  Basis Set: 6-31G*
  Basis Set:
  @DF-RHF Final Energy:  -501.01878667297433
    Total Energy =                       -501.0187866729751249
  Basis Set: 6-31G*
  Basis Set:
  Basis Set: 6-31G*
  Basis Set:
  @DF-RHF Final Energy:  -501.02164918114283
    Total Energy =                       -501.0216491811429478
  Basis Set: 6-31G*
  Basis Set:
  Basis Set: 6-31G*
  Basis Set:
  @DF-RHF Final Energy:  -501.02289800441486
    Total Energy =                       -501.0228980044148557
  Basis Set: 6-31G*
  Basis Set:
  @DF-RHF Final Energy:  -501.02295863505628
    Total Energy =                       -501.0229586350560567
  Basis Set: 6-31G*
  Basis Set:
  @DF-RHF Final Energy:  -501.02297118590673
    Total Energy =                       -501.0229711859076360
  Basis Set: 6-31G*
  Basis Set:
  Basis Set: 6-31G*
  Basis Set:
  @DF-RHF Final Energy:  -501.02296793211895
    Total Energy =                       -501.0229679321198546
  Basis Set: 6-31G*
  Basis Set:
  Basis Set: 6-31G*
  Basis Set:
  @DF-RHF Final Energy:  -501.02297216869840
    Total Energy =                       -501.0229721686980611
  Basis Set: 6-31G*
  Basis Set:
  Charge       = 0
  Multiplicity = 1
  Basis Set: 6-31G*
  Basis Set:

    Orbital Energies (a.u.)
    -----------------------

    Doubly Occupied:

       1A    -20.586665     2A    -20.555006     3A    -11.374605
       4A    -11.293595     5A    -11.240371     6A    -11.222533
       7A    -11.220656     8A    -11.218460     9A    -11.217600
      10A    -11.216554    11A    -11.210534    12A     -1.458200
      13A     -1.367237    14A     -1.100323    15A     -1.067394
      16A     -1.014704    17A     -0.977331    18A     -0.940700
      19A     -0.867716    20A     -0.803499    21A     -0.793357
      22A     -0.762091    23A     -0.700267    24A     -0.677909
      25A     -0.673309    26A     -0.653343    27A     -0.630270
      28A     -0.617234    29A     -0.600793    30A     -0.588156
      31A     -0.565761    32A     -0.557836    33A     -0.540213
      34A     -0.532926    35A     -0.519668    36A     -0.501542
      37A     -0.493373    38A     -0.481823    39A     -0.473218
      40A     -0.466684    41A     -0.464307    42A     -0.451509
      43A     -0.442441    44A     -0.432790

  @DF-RHF Final Energy:  -501.02297222319794

   => Energetics <=

    Nuclear Repulsion Energy =            612.1490855975753220
    One-Electron Energy =               -1895.1951154490236604
    Two-Electron Energy =                 782.0230576282494894
    DFT Exchange-Correlation Energy =       0.0000000000000000
    Empirical Dispersion Energy =           0.0000000000000000
    PCM Polarization Energy =               0.0000000000000000
    EFP Energy =                            0.0000000000000000
    Total Energy =                       -501.0229722231988490
    Molecular point group: c1
  Basis Set: 6-31G*
  Basis Set:

  -Total Gradient:
     Atom            X                  Y                   Z
    ------   -----------------  -----------------  -----------------
       1        0.000427202150     0.000097024056    -0.000411542828
       2       -0.000685980815    -0.000228525093     0.000375206883
       3        0.000006119484    -0.000000066963    -0.000011601577
       4        0.000403599594     0.000330628372     0.000471894858
       5        0.000003496081    -0.000005452197     0.000005117408
       6       -0.000003107349    -0.000002742241     0.000006267672
       7       -0.000006049775    -0.000004514580     0.000005608856
       8        0.000002187066     0.000002282679    -0.000004528840
       9        0.000004152007     0.000001124001     0.000001143683
      10       -0.000002234742     0.000003978828    -0.000003767132
      11       -0.000008187320     0.000001257294     0.000001631056
      12       -0.000001192555    -0.000000892668    -0.000002645038
      13       -0.000000784225     0.000002314717     0.000000404246
      14        0.000006535949    -0.000002279015     0.000001281956
      15       -0.000003179743     0.000002541674     0.000004418301
      16       -0.000000021589    -0.000000242811    -0.000001787391
      17       -0.000001686586    -0.000000329052    -0.000000140857
      18        0.000000117063    -0.000002780509     0.000000167979
      19        0.000001775463     0.000000968711    -0.000000624116
      20        0.000000909341    -0.000000155428    -0.000000656889
      21       -0.000000829686    -0.000000567266    -0.000000218908
      22       -0.000000041037     0.000000766310     0.000000109322
      23        0.000000342720    -0.000000486357    -0.000000162951
      24       -0.000000522733    -0.000000048477     0.000000460009
      25       -0.000000140354     0.000000399024    -0.000000501636
      26       -0.000157878965    -0.000191514804    -0.000432526394
      27        0.000004254345    -0.000000713503     0.000001917739
      28        0.000005906227    -0.000002617668    -0.000002347425
      29        0.000005239982     0.000000642964    -0.000002577977

  **** Optimization is complete! (in 9 steps) ****
    Final optimized geometry and variables:
    Molecular point group: c1

    Geometry (in Angstrom), charge = 0, multiplicity = 1:

    O           -1.064894512045    -2.174138912549    -2.562020821619
    C           -0.238870989158    -2.203201168478    -1.718160701688
    C            0.178771437488    -1.010435668574    -0.886631461656
    O            0.362918279375    -3.366517093206    -1.380449848456
    C           -0.593138066167     0.263070686511    -1.226868859262
    H            0.052544494665    -1.297590003196     0.152636134040
    H            1.246174754699    -0.851904403774    -1.022171487201
    C           -0.119527172013     1.498510583297    -0.453729913591
    H           -1.650676253789     0.098098947117    -1.045818730057
    H           -0.497441093564     0.450964365666    -2.290832733433
    C           -0.370953650070     1.450666322784     1.056132236284
    H           -0.629385687965     2.367329909654    -0.863302135845
    H            0.942021072508     1.658028513427    -0.638421657154
    C            0.018066860029     2.749335388075     1.765459147458
    H           -1.424601797632     1.243932033788     1.236682724268
    H            0.182375293233     0.627461657733     1.502598500927
    C           -0.224092649007     2.711103601721     3.275431421956
    H           -0.542099178502     3.576756522197     1.333362227744
    H            1.069069805345     2.962416812380     1.576224139726
    C            0.163409907081     4.013087238941     3.975679183134
    H           -1.273639603980     2.497613581588     3.466161594592
    H            0.338203387121     1.887109228585     3.709805489783
    H           -0.019408303485     3.954840942469     5.044187348672
    H           -0.407713893987     4.851820358264     3.587765571759
    H            1.216724608935     4.237198773068     3.832120237028
    C            1.718810490323    -3.549144694481    -1.721831472142
    H            1.872813015123    -3.389520365676    -2.782804248705
    H            1.957402173718    -4.572905833090    -1.479519768878
    H            2.368406915080    -2.891473963317    -1.155771574698

  Mulliken Charges: (a.u.)
   Center  Symbol    Alpha    Beta     Spin     Total
       1     O     4.25084  4.25084  0.00000 -0.50167
       2     C     2.61144  2.61144  0.00000  0.77712
       3     C     3.22098  3.22098  0.00000 -0.44196
       4     O     4.31394  4.31394  0.00000 -0.62789
       5     C     3.15281  3.15281  0.00000 -0.30563
       6     H     0.39696  0.39696  0.00000  0.20609
       7     H     0.40809  0.40809  0.00000  0.18381
       8     C     3.15679  3.15679  0.00000 -0.31359
       9     H     0.41086  0.41086  0.00000  0.17827
      10     H     0.40894  0.40894  0.00000  0.18213
      11     C     3.15492  3.15492  0.00000 -0.30985
      12     H     0.41745  0.41745  0.00000  0.16511
      13     H     0.42501  0.42501  0.00000  0.14999
      14     C     3.15035  3.15035  0.00000 -0.30070
      15     H     0.42157  0.42157  0.00000  0.15687
      16     H     0.42445  0.42445  0.00000  0.15111
      17     C     3.15152  3.15152  0.00000 -0.30304
      18     H     0.42292  0.42292  0.00000  0.15415
      19     H     0.42438  0.42438  0.00000  0.15124
      20     C     3.23941  3.23941  0.00000 -0.47881
      21     H     0.42229  0.42229  0.00000  0.15542
      22     H     0.42362  0.42362  0.00000  0.15277
      23     H     0.41892  0.41892  0.00000  0.16216
      24     H     0.42132  0.42132  0.00000  0.15736
      25     H     0.42198  0.42198  0.00000  0.15603
      26     C     3.09268  3.09268  0.00000 -0.18537
      27     H     0.41338  0.41338  0.00000  0.17323
      28     H     0.40101  0.40101  0.00000  0.19799
      29     H     0.42117  0.42117  0.00000  0.15767

   Total alpha = 44.00000, Total beta = 44.00000, Total charge =  0.00000
