  ==> Input File <==

--------------------------------------------------------------------------
set {
	reference rhf
	basis 6-31G*
}

set_num_threads( 4 )
memory 2 gb

molecule MOL {
0 1

O	 3.283144	 -3.249560	 0.509508
C	 2.731444	 -2.197186	 0.544080
C	 1.270858	 -1.978871	 0.856837
O	 3.347903	 -1.046386	 0.304773
C	 0.520272	 -3.275612	 1.152134
H	 1.223913	 -1.283292	 1.688195
H	 0.833285	 -1.458003	 0.008944
C	 -0.984504	 -3.082180	 1.368303
H	 0.958605	 -3.753293	 2.023227
H	 0.675199	 -3.960631	 0.325593
C	 -1.359285	 -2.283897	 2.620259
H	 -1.444643	 -4.065468	 1.432661
H	 -1.418140	 -2.603385	 0.491534
C	 -2.870247	 -2.212806	 2.850348
H	 -0.884306	 -2.737215	 3.489004
H	 -0.966784	 -1.271924	 2.550795
C	 -3.256732	 -1.413064	 4.095809
H	 -3.269233	 -3.222252	 2.934397
H	 -3.346943	 -1.769404	 1.977506
C	 -4.767112	 -1.350127	 4.320513
H	 -2.780413	 -1.854198	 4.968828
H	 -2.862518	 -0.402470	 4.011681
H	 -5.009321	 -0.776921	 5.210107
H	 -5.186919	 -2.344533	 4.443453
H	 -5.269613	 -0.882171	 3.478621
C	 4.728119	 -1.109107	 -0.004993
H	 4.882018	 -1.033965	 -1.071845
H	 5.068212	 -2.067527	 0.355250
H	 5.265056	 -0.311663	 0.488280

	symmetry c1
}
set optking {
	frozen_dihedral = ("
		2 4 26 27
	")
}

ee = optimize('scf')
oeprop('DIPOLE', 'QUADRUPOLE', 'MULLIKEN_CHARGES')
f=open( 'psi4out.xyz', 'w' )
f.write( "29  " )
f.write( str(ee) + "\n" )
f.write( MOL.save_string_xyz() )
f.close()
--------------------------------------------------------------------------

    Molecular point group: c1
  Charge       = 0
  Multiplicity = 1
  Basis Set: 6-31G*
  Basis Set:
  @DF-RHF Final Energy:  -501.04043444875583
    Total Energy =                       -501.0404344487546950
    Molecular point group: c1
  Basis Set: 6-31G*
  Basis Set:
  Basis Set: 6-31G*
  Basis Set:
  @DF-RHF Final Energy:  -501.04159422954922
    Total Energy =                       -501.0415942295496734
  Basis Set: 6-31G*
  Basis Set:
  Basis Set: 6-31G*
  Basis Set:
  @DF-RHF Final Energy:  -501.04241852953442
    Total Energy =                       -501.0424185295346433
  Basis Set: 6-31G*
  Basis Set:
  Basis Set: 6-31G*
  Basis Set:
  @DF-RHF Final Energy:  -501.04226226980063
    Total Energy =                       -501.0422622698008581
  Basis Set: 6-31G*
  Basis Set:
  Basis Set: 6-31G*
  Basis Set:
  @DF-RHF Final Energy:  -501.04248983176626
    Total Energy =                       -501.0424898317662610
  Basis Set: 6-31G*
  Basis Set:
  Basis Set: 6-31G*
  Basis Set:
  @DF-RHF Final Energy:  -501.04249252184786
    Total Energy =                       -501.0424925218478620
  Basis Set: 6-31G*
  Basis Set:
  Basis Set: 6-31G*
  Basis Set:
  @DF-RHF Final Energy:  -501.04249149479597
    Total Energy =                       -501.0424914947961952
  Basis Set: 6-31G*
  Basis Set:
  Charge       = 0
  Multiplicity = 1
  Basis Set: 6-31G*
  Basis Set:

    Orbital Energies (a.u.)
    -----------------------

    Doubly Occupied:

       1A    -20.602588     2A    -20.544580     3A    -11.373081
       4A    -11.279598     5A    -11.234215     6A    -11.218661
       7A    -11.217360     8A    -11.215827     9A    -11.215714
      10A    -11.214307    11A    -11.208982    12A     -1.466855
      13A     -1.362892    14A     -1.097778    15A     -1.066572
      16A     -1.019563    17A     -0.977749    18A     -0.928490
      19A     -0.861341    20A     -0.798988    21A     -0.790241
      22A     -0.763054    23A     -0.701440    24A     -0.680557
      25A     -0.672040    26A     -0.650672    27A     -0.628721
      28A     -0.604918    29A     -0.595281    30A     -0.580599
      31A     -0.567714    32A     -0.549925    33A     -0.533578
      34A     -0.527482    35A     -0.515510    36A     -0.511611
      37A     -0.496247    38A     -0.477634    39A     -0.469907
      40A     -0.462211    41A     -0.458572    42A     -0.452717
      43A     -0.441283    44A     -0.435091

  @DF-RHF Final Energy:  -501.04249279264354

   => Energetics <=

    Nuclear Repulsion Energy =            609.8048797238373027
    One-Electron Energy =               -1890.7504562148524201
    Two-Electron Energy =                 779.9030836983713471
    DFT Exchange-Correlation Energy =       0.0000000000000000
    Empirical Dispersion Energy =           0.0000000000000000
    PCM Polarization Energy =               0.0000000000000000
    EFP Energy =                            0.0000000000000000
    Total Energy =                       -501.0424927926437704
    Molecular point group: c1
  Basis Set: 6-31G*
  Basis Set:

  -Total Gradient:
     Atom            X                  Y                   Z
    ------   -----------------  -----------------  -----------------
       1        0.000002522485     0.000010207082    -0.000010132598
       2        0.000245198314     0.000098979839     0.001190416584
       3       -0.000002516900     0.000004504576     0.000012041835
       4       -0.000331073410     0.000185466988    -0.001682726148
       5       -0.000001422486    -0.000000957254    -0.000006008787
       6       -0.000002882570     0.000001135845    -0.000005535804
       7       -0.000000973611    -0.000002977866    -0.000005632854
       8        0.000000504377     0.000001098907     0.000000672450
       9       -0.000000366513    -0.000000764738     0.000002064264
      10        0.000000821235     0.000002125845     0.000001457858
      11       -0.000000332228    -0.000000720195     0.000000814225
      12        0.000001270331     0.000000024061    -0.000000113439
      13       -0.000000318233    -0.000000319102    -0.000000627566
      14        0.000000167809     0.000000343732     0.000000059117
      15       -0.000000342634    -0.000000383771     0.000000623309
      16        0.000000701052    -0.000000227661     0.000000035682
      17       -0.000000003559     0.000000589527    -0.000000272552
      18        0.000000288410     0.000000063379     0.000000428672
      19       -0.000000176303    -0.000000338150    -0.000000278500
      20        0.000000026316     0.000000166148    -0.000000188377
      21       -0.000000058925    -0.000000124994    -0.000000134143
      22        0.000000086443     0.000000066137     0.000000159265
      23        0.000000043502     0.000000005070    -0.000000030623
      24        0.000000018250    -0.000000030166     0.000000003553
      25       -0.000000057605    -0.000000005926     0.000000020966
      26        0.000046399430    -0.001669736299     0.000394571228
      27        0.000041216214     0.001372024504     0.000104627001
      28        0.000003276760    -0.000000117137     0.000000900178
      29       -0.000002015963    -0.000000098380     0.000002785211

  **** Optimization is complete! (in 8 steps) ****
    Final optimized geometry and variables:
    Molecular point group: c1

    Geometry (in Angstrom), charge = 0, multiplicity = 1:

    O            2.988581196735    -1.183971465458    -1.174123190553
    C            2.449712537604    -0.125229002321    -1.140129365120
    C            0.990672654469     0.104103892845    -0.826276345897
    O            3.066220976950     1.026586473215    -1.379605094663
    C            0.228918767441    -1.186829229938    -0.534486177150
    H            0.949624127423     0.798021489676     0.006712465876
    H            0.557629176803     0.630849701797    -1.672833529775
    C           -1.273931402474    -0.980589073995    -0.316660290557
    H            0.663478654621    -1.671168238160     0.334800175822
    H            0.377100826076    -1.870617315906    -1.363263698246
    C           -1.640764474344    -0.183421978285     0.938375691043
    H           -1.742921571048    -1.959896172295    -0.255454879676
    H           -1.703813205272    -0.494782116028    -1.191425967619
    C           -3.150886894868    -0.099479152875     1.169663748564
    H           -1.169406052939    -0.644131909811     1.805202452858
    H           -1.239152941536     0.825187585778     0.872289344376
    C           -3.529424598473     0.699639979217     2.417956104020
    H           -3.558904964748    -1.105555770682     1.250669263636
    H           -3.624091098538     0.351038662503     0.298569872613
    C           -5.039066186664     0.775878840650     2.643534666218
    H           -3.056878720979     0.251183260269     3.289294594474
    H           -3.125864436442     1.706801129145     2.337035022687
    H           -5.275577443696     1.348455245889     3.535071764069
    H           -5.468037098685    -0.214976022561     2.763463499655
    H           -5.537546863313     1.251174836130     1.803365379163
    C            4.453461195088     1.013274854397    -1.669130113249
    H            4.594373029164     1.092727822302    -2.738848562785
    H            4.917178401768     0.113892450377    -1.299911631335
    H            4.877739475211     1.883036284876    -1.189425026971

  Mulliken Charges: (a.u.)
   Center  Symbol    Alpha    Beta     Spin     Total
       1     O     4.28556  4.28556  0.00000 -0.57113
       2     C     2.60453  2.60453  0.00000  0.79093
       3     C     3.21007  3.21007  0.00000 -0.42014
       4     O     4.30911  4.30911  0.00000 -0.61823
       5     C     3.15374  3.15374  0.00000 -0.30749
       6     H     0.39901  0.39901  0.00000  0.20199
       7     H     0.40125  0.40125  0.00000  0.19750
       8     C     3.15660  3.15660  0.00000 -0.31319
       9     H     0.41317  0.41317  0.00000  0.17366
      10     H     0.40881  0.40881  0.00000  0.18239
      11     C     3.15503  3.15503  0.00000 -0.31006
      12     H     0.41830  0.41830  0.00000  0.16339
      13     H     0.42390  0.42390  0.00000  0.15219
      14     C     3.15028  3.15028  0.00000 -0.30057
      15     H     0.42265  0.42265  0.00000  0.15469
      16     H     0.42362  0.42362  0.00000  0.15276
      17     C     3.15145  3.15145  0.00000 -0.30289
      18     H     0.42334  0.42334  0.00000  0.15332
      19     H     0.42398  0.42398  0.00000  0.15203
      20     C     3.23934  3.23934  0.00000 -0.47869
      21     H     0.42282  0.42282  0.00000  0.15436
      22     H     0.42345  0.42345  0.00000  0.15310
      23     H     0.41926  0.41926  0.00000  0.16149
      24     H     0.42155  0.42155  0.00000  0.15690
      25     H     0.42183  0.42183  0.00000  0.15633
      26     C     3.09673  3.09673  0.00000 -0.19347
      27     H     0.41336  0.41336  0.00000  0.17327
      28     H     0.39656  0.39656  0.00000  0.20689
      29     H     0.41068  0.41068  0.00000  0.17865

   Total alpha = 44.00000, Total beta = 44.00000, Total charge = -0.00000
