                              Psi4 1.0.54 Driver

  ==> Input File <==

--------------------------------------------------------------------------
set {
	reference rhf
	basis cc-pvtz
}

set_num_threads( 4 )
memory 2 gb

molecule MOL {
0 1

H	 1.211229	 -1.009955	 -0.654811
O	 1.025292	 -0.335832	 -1.283649
C	 0.530217	 0.792681	 -0.631740
C	 -0.793473	 0.591216	 0.050087
H	 0.428746	 1.563261	 -1.386864
H	 1.247663	 1.165610	 0.096885
C	 -1.534243	 -0.493009	 -0.013340
H	 -1.131909	 1.433294	 0.631134
H	 -1.101195	 -1.466332	 -0.144046
H	 -2.604242	 -0.437780	 0.050785

	symmetry c1
}
set optking {
	frozen_dihedral = ("
		3 4 7 9
	")
}

ee,wfn = optimize('scf', return_wfn=True)
oeprop( wfn, 'DIPOLE', 'QUADRUPOLE', 'MULLIKEN_CHARGES')
f=open( 'psi4out.xyz', 'w' )
f.write( "10  " )
f.write( str(ee) + "\n" )
f.write( MOL.save_string_xyz() )
f.close()
--------------------------------------------------------------------------

    Molecular point group: c1
  Charge       = 0
  Multiplicity = 1
  Basis Set: CC-PVTZ
  Basis Set:
  @DF-RHF Final Energy:  -191.97689824631917
    Total Energy =                       -191.9768982463192231
    Molecular point group: c1
  Basis Set: CC-PVTZ
  Basis Set:
  Basis Set: CC-PVTZ
  Basis Set:
  @DF-RHF Final Energy:  -191.98764096905990
    Total Energy =                       -191.9876409690597825
  Basis Set: CC-PVTZ
  Basis Set:
  Basis Set: CC-PVTZ
  Basis Set:
  @DF-RHF Final Energy:  -191.99069783011524
    Total Energy =                       -191.9906978301152662
  Basis Set: CC-PVTZ
  Basis Set:
  Basis Set: CC-PVTZ
  Basis Set:
  @DF-RHF Final Energy:  -191.99088581642010
    Total Energy =                       -191.9908858164201320
  Basis Set: CC-PVTZ
  Basis Set:
  Basis Set: CC-PVTZ
  Basis Set:
  @DF-RHF Final Energy:  -191.99091506102829
    Total Energy =                       -191.9909150610281472
  Basis Set: CC-PVTZ
  Basis Set:
  Basis Set: CC-PVTZ
  Basis Set:
  @DF-RHF Final Energy:  -191.98716976856005
    Total Energy =                       -191.9871697685600793
  Basis Set: CC-PVTZ
  Basis Set:
  Basis Set: CC-PVTZ
  Basis Set:
  @DF-RHF Final Energy:  -191.99073789117170
    Total Energy =                       -191.9907378911718183
  Basis Set: CC-PVTZ
  Basis Set:
  Charge       = 0
  Multiplicity = 1
  Basis Set: CC-PVTZ
  Basis Set:

    Orbital Energies (a.u.)
    -----------------------

    Doubly Occupied:

       1A    -20.554059     2A    -11.278937     3A    -11.230914
       4A    -11.217731     5A     -1.374009     6A     -1.062051
       7A     -0.932228     8A     -0.771443     9A     -0.692735
      10A     -0.661836    11A     -0.618297    12A     -0.574571
      13A     -0.543540    14A     -0.493227    15A     -0.451535
      16A     -0.366213

  @DF-RHF Final Energy:  -191.99091839503575

   => Energetics <=

    Nuclear Repulsion Energy =            119.1590383441683372
    One-Electron Energy =                -496.6532584583556513
    Two-Electron Energy =                 185.5033017191513807
    DFT Exchange-Correlation Energy =       0.0000000000000000
    Empirical Dispersion Energy =           0.0000000000000000
    PCM Polarization Energy =               0.0000000000000000
    EFP Energy =                            0.0000000000000000
    Total Energy =                       -191.9909183950359477
    Molecular point group: c1
  Basis Set: CC-PVTZ
  Basis Set:

  -Total Gradient:
     Atom            X                  Y                   Z
    ------   -----------------  -----------------  -----------------
       1        0.000004577393     0.000005936282     0.000010943357
       2       -0.000035736804    -0.000005622338    -0.000018501056
       3       -0.005997843349     0.006550736348    -0.009054708618
       4        0.010917926809    -0.013157886645     0.022222954953
       5       -0.000001875412     0.000022473513    -0.000031388219
       6        0.000010367295     0.000022112272     0.000036893188
       7       -0.006437501881     0.011000997196    -0.029662636214
       8       -0.000109277227     0.000177526299     0.000141025610
       9        0.001645320340    -0.004585258569     0.016362802031
      10        0.000004042837    -0.000031014359    -0.000007385031

  **** Optimization is complete! (in 8 steps) ****
    Final optimized geometry and variables:
    Molecular point group: c1

    Geometry (in Angstrom), charge = 0, multiplicity = 1:

    H            1.452551568340    -1.081869650688    -0.074914331738
    O            1.195257058557    -0.458875095511    -0.730337046658
    C            0.654158189177     0.673531364528    -0.120812027338
    C           -0.656963962267     0.446286667605     0.578762772380
    H            0.479353180846     1.395015008042    -0.909210798195
    H            1.371543328274     1.124782421312     0.562229207925
    C           -1.477871298696    -0.566320162628     0.386400344213
    H           -1.039428061999     1.330845437395     1.064684684896
    H           -1.136307083586    -1.540530113661     0.088868030578
    H           -2.467141598226    -0.535966648173     0.805778360895

  Mulliken Charges: (a.u.)
   Center  Symbol    Alpha    Beta     Spin     Total
       1     H     0.39238  0.39238  0.00000  0.21524
       2     O     4.19773  4.19773  0.00000 -0.39546
       3     C     2.95416  2.95416  0.00000  0.09168
       4     C     3.09103  3.09103  0.00000 -0.18206
       5     H     0.45117  0.45117  0.00000  0.09766
       6     H     0.46610  0.46610  0.00000  0.06780
       7     C     3.16130  3.16130  0.00000 -0.32259
       8     H     0.42645  0.42645  0.00000  0.14710
       9     H     0.42951  0.42951  0.00000  0.14098
      10     H     0.43017  0.43017  0.00000  0.13966

   Total alpha = 16.00000, Total beta = 16.00000, Total charge = -0.00000

*** Psi4 exiting successfully. Buy a developer a beer!
