  ==> Input File <==

--------------------------------------------------------------------------
set {
	reference rhf
	basis 6-31G*
}

set_num_threads( 1 )
memory 2 gb

molecule MOL {
0 1

H	 -2.646374	 -0.642757	 1.268656
C	 -2.083525	 -0.384536	 0.393091
O	 -0.807605	 -0.127164	 0.768327
F	 -2.118945	 -1.383102	 -0.486752
F	 -2.621877	 0.670592	 -0.209486
C	 -0.537304	 -0.046283	 2.122241
C	 0.308708	 1.202723	 2.332976
Cl	 0.328062	 -1.487402	 2.680392
H	 -1.431422	 0.047015	 2.713529
F	 0.595876	 1.353427	 3.608500
F	 -0.382875	 2.254583	 1.942154
F	 1.426840	 1.163921	 1.650152

	symmetry c1
}
set optking {
	frozen_dihedral = ("
		10 7 6 9,
		9 6 3 2
	")
}

ee = energy('scf')
oeprop('DIPOLE', 'QUADRUPOLE', 'MULLIKEN_CHARGES')
f=open( 'psi4out.xyz', 'w' )
f.write( "12  " )
f.write( str(ee) + "\n" )
f.write( MOL.save_string_xyz() )
f.close()
--------------------------------------------------------------------------

    Molecular point group: c1

    Geometry (in Angstrom), charge = 0, multiplicity = 1:

       Center              X                  Y                   Z               Mass
    ------------   -----------------  -----------------  -----------------  -----------------
           H         -2.145130606730    -0.815274232555    -0.317400050125     1.007825032070
           C         -1.582281606730    -0.557053232555    -1.192965050125    12.000000000000
           O         -0.306361606730    -0.299681232555    -0.817729050125    15.994914619560
           F         -1.617701606730    -1.555619232555    -2.072808050125    18.998403224000
           F         -2.120633606730     0.498074767445    -1.795542050125    18.998403224000
           C         -0.036060606730    -0.218800232555     0.536184949875    12.000000000000
           C          0.809951393270     1.030205767445     0.746919949875    12.000000000000
          CL          0.829305393270    -1.659919232555     1.094335949875    34.968852682000
           H         -0.930178606730    -0.125502232555     1.127472949875     1.007825032070
           F          1.097119393270     1.180909767445     2.022443949875    18.998403224000
           F          0.118368393270     2.082065767445     0.356097949875    18.998403224000
           F          1.928083393270     0.991403767445     0.064095949875    18.998403224000

  Charge       = 0
  Multiplicity = 1
  Basis Set: 6-31G*
  Basis Set:

    Orbital Energies (a.u.)
    -----------------------

    Doubly Occupied:

       1A   -104.853674     2A    -26.366210     3A    -26.364330
       4A    -26.361998     5A    -26.340663     6A    -26.339341
       7A    -20.653098     8A    -11.534187     9A    -11.491133
      10A    -11.413421    11A    -10.588393    12A     -8.057733
      13A     -8.054197    14A     -8.054092    15A     -1.766457
      16A     -1.708905    17A     -1.663174    18A     -1.661190
      19A     -1.630395    20A     -1.492530    21A     -1.187804
      22A     -1.056676    23A     -0.984457    24A     -0.935226
      25A     -0.861594    26A     -0.859336    27A     -0.850541
      28A     -0.820830    29A     -0.806517    30A     -0.793770
      31A     -0.732133    32A     -0.728855    33A     -0.695460
      34A     -0.692273    35A     -0.682740    36A     -0.678664
      37A     -0.663078    38A     -0.657717    39A     -0.652948
      40A     -0.641708    41A     -0.614315    42A     -0.566017
      43A     -0.527710    44A     -0.486481    45A     -0.479423

  @DF-RHF Final Energy: -1146.30563017585564

   => Energetics <=

    Nuclear Repulsion Energy =            724.9516306776569081
    One-Electron Energy =               -3032.4115498286755610
    Two-Electron Energy =                1161.1542889751644907
    DFT Exchange-Correlation Energy =       0.0000000000000000
    Empirical Dispersion Energy =           0.0000000000000000
    PCM Polarization Energy =               0.0000000000000000
    EFP Energy =                            0.0000000000000000
    Total Energy =                      -1146.3056301758542759

  Mulliken Charges: (a.u.)
   Center  Symbol    Alpha    Beta     Spin     Total
       1     H     0.42785  0.42785  0.00000  0.14429
       2     C     2.56284  2.56284  0.00000  0.87433
       3     O     4.29473  4.29473  0.00000 -0.58947
       4     F     4.67606  4.67606  0.00000 -0.35211
       5     F     4.67603  4.67603  0.00000 -0.35206
       6     C     3.04522  3.04522  0.00000 -0.09043
       7     C     2.42967  2.42967  0.00000  1.14067
       8    CL     8.49566  8.49566  0.00000  0.00868
       9     H     0.37623  0.37623  0.00000  0.24755
      10     F     4.67368  4.67368  0.00000 -0.34735
      11     F     4.67542  4.67542  0.00000 -0.35084
      12     F     4.66663  4.66663  0.00000 -0.33326

   Total alpha = 45.00000, Total beta = 45.00000, Total charge = -0.00000
