  ==> Input File <==

--------------------------------------------------------------------------
set {
	reference rhf
	basis 6-31G*
}

set_num_threads( 4 )
memory 2 gb

molecule MOL {
0 1

H	 2.005350	 -3.583195	 1.183805
C	 2.222516	 -2.610844	 0.753546
C	 0.955862	 -1.763494	 0.641531
H	 2.962678	 -2.128636	 1.385893
H	 2.676227	 -2.774767	 -0.219862
C	 1.217350	 -0.386724	 0.039429
H	 0.504536	 -1.632810	 1.620109
H	 0.224046	 -2.289203	 0.030412
N	 0.000003	 0.397874	 -0.023260
H	 1.928089	 0.148327	 0.663556
H	 1.691157	 -0.499897	 -0.941426
C	 -1.217365	 -0.386708	 0.039277
H	 -0.000031	 1.072115	 0.718656
C	 -2.452633	 0.504241	 -0.042481
H	 -1.215291	 -1.074557	 -0.802042
H	 -1.269739	 -1.003477	 0.942735
C	 -3.758029	 -0.289423	 -0.010781
H	 -2.394220	 1.093569	 -0.952170
H	 -2.440793	 1.210787	 0.785871
H	 -3.816659	 -0.981993	 -0.845726
H	 -4.617837	 0.370165	 -0.069296
H	 -3.847478	 -0.867502	 0.904682

	symmetry c1
}
set optking {
	frozen_dihedral = ("
		10 6 9 12
	")
}

ee = optimize('scf')
oeprop('DIPOLE', 'QUADRUPOLE', 'MULLIKEN_CHARGES')
f=open( 'psi4out.xyz', 'w' )
f.write( "22  " )
f.write( str(ee) + "\n" )
f.write( MOL.save_string_xyz() )
f.close()
--------------------------------------------------------------------------

    Molecular point group: c1
  Charge       = 0
  Multiplicity = 1
  Basis Set: 6-31G*
  Basis Set:
  @DF-RHF Final Energy:  -290.36600699222583
    Total Energy =                       -290.3660069922254934
    Molecular point group: c1
  Basis Set: 6-31G*
  Basis Set:
  Basis Set: 6-31G*
  Basis Set:
  @DF-RHF Final Energy:  -290.36538745339141
    Total Energy =                       -290.3653874533916905
  Basis Set: 6-31G*
  Basis Set:
  Basis Set: 6-31G*
  Basis Set:
  @DF-RHF Final Energy:  -290.37239323649720
    Total Energy =                       -290.3723932364967482
  Basis Set: 6-31G*
  Basis Set:
  Basis Set: 6-31G*
  Basis Set:
  @DF-RHF Final Energy:  -290.37375704013652
    Total Energy =                       -290.3737570401366384
  Basis Set: 6-31G*
  Basis Set:
  Basis Set: 6-31G*
  Basis Set:
  @DF-RHF Final Energy:  -290.37398080891438
    Total Energy =                       -290.3739808089144958
  Basis Set: 6-31G*
  Basis Set:
  Basis Set: 6-31G*
  Basis Set:
  @DF-RHF Final Energy:  -290.37407428134384
    Total Energy =                       -290.3740742813437237
  Basis Set: 6-31G*
  Basis Set:
  Basis Set: 6-31G*
  Basis Set:
  @DF-RHF Final Energy:  -290.37408173366339
    Total Energy =                       -290.3740817336633881
  Basis Set: 6-31G*
  Basis Set:
  Charge       = 0
  Multiplicity = 1
  Basis Set: 6-31G*
  Basis Set:

    Orbital Energies (a.u.)
    -----------------------

    Doubly Occupied:

       1A    -15.530892     2A    -11.239170     3A    -11.237143
       4A    -11.214719     5A    -11.212289     6A    -11.211142
       7A    -11.208963     8A     -1.198189     9A     -1.056867
      10A     -1.027536    11A     -0.929582    12A     -0.874137
      13A     -0.813509    14A     -0.782634    15A     -0.669364
      16A     -0.627155    17A     -0.618181    18A     -0.607817
      19A     -0.573797    20A     -0.557780    21A     -0.539071
      22A     -0.530968    23A     -0.502214    24A     -0.491581
      25A     -0.482766    26A     -0.472760    27A     -0.462591
      28A     -0.459654    29A     -0.349809

  @DF-RHF Final Energy:  -290.37408169910645

   => Energetics <=

    Nuclear Repulsion Energy =            317.7968139253844129
    One-Electron Energy =               -1021.3772330189665354
    Two-Electron Energy =                 413.2063373944754403
    DFT Exchange-Correlation Energy =       0.0000000000000000
    Empirical Dispersion Energy =           0.0000000000000000
    PCM Polarization Energy =               0.0000000000000000
    EFP Energy =                            0.0000000000000000
    Total Energy =                       -290.3740816991066822
    Molecular point group: c1
  Basis Set: 6-31G*
  Basis Set:

  -Total Gradient:
     Atom            X                  Y                   Z
    ------   -----------------  -----------------  -----------------
       1        0.000008107359     0.000005348400     0.000022761730
       2       -0.000014389476     0.000018521710     0.000058239693
       3        0.000035793555    -0.000087540618    -0.000128169932
       4        0.000018085786     0.000005082581    -0.000009106276
       5       -0.000022295572    -0.000003592586     0.000006106690
       6        0.002474731017     0.003648638968    -0.003419888876
       7       -0.000059109491     0.000008517196     0.000001721474
       8        0.000049245676     0.000007384330     0.000006849530
       9       -0.000373596447    -0.001122049550    -0.006090792041
      10       -0.002022184741    -0.002847872797     0.004710638481
      11       -0.000029404797    -0.000010285631    -0.000009299451
      12       -0.000048972432     0.000390687630     0.004820703750
      13       -0.000021474008     0.000006162117     0.000029472511
      14        0.000012720121    -0.000009332081     0.000002766063
      15       -0.000011830238     0.000000833838    -0.000014659536
      16        0.000007928655    -0.000009028657     0.000005618896
      17       -0.000002300666    -0.000002081109     0.000012026545
      18        0.000003743016    -0.000006713668    -0.000008603442
      19       -0.000004489418     0.000004751310     0.000001535418
      20        0.000002053063     0.000006605425    -0.000000977117
      21       -0.000000714425    -0.000000032392     0.000004471609
      22       -0.000001646532    -0.000004004415    -0.000001415720

  **** Optimization is complete! (in 8 steps) ****
    Final optimized geometry and variables:
    Molecular point group: c1

    Geometry (in Angstrom), charge = 0, multiplicity = 1:

    H            2.841958673826    -2.896231648420     0.926988152250
    C            2.903527581690    -1.894379788624     0.514271914820
    C            1.526358288579    -1.231621199909     0.467984008443
    H            3.595446320161    -1.326000458554     1.129679774653
    H            3.334910749627    -1.972845337639    -0.479632196017
    C            1.605877188476     0.182989102871    -0.121460024081
    H            1.112772021314    -1.187845480508     1.472524724225
    H            0.854769545822    -1.850992961687    -0.118465703692
    N            0.363666790950     0.953959492496    -0.191812610646
    H            2.295295393862     0.736211038621     0.509408307050
    H            2.046727328886     0.121874957869    -1.113331894416
    C           -0.905590366810     0.251589345732    -0.147540149262
    H            0.366510141314     1.646753976937     0.528969628904
    C           -2.059141545027     1.238829507663    -0.300328548181
    H           -0.939275601217    -0.456128930657    -0.971093151141
    H           -1.048444371754    -0.327510675885     0.766939637515
    C           -3.427046388342     0.557994543296    -0.281183968863
    H           -1.925136592580     1.787359280893    -1.227199949610
    H           -2.011617443563     1.972492522133     0.503089679744
    H           -3.520695551209    -0.158036192846    -1.092830901577
    H           -4.226377162422     1.284123708854    -0.389282113469
    H           -3.590744737952     0.023959819235     0.650703499690

  Mulliken Charges: (a.u.)
   Center  Symbol    Alpha    Beta     Spin     Total
       1     H     0.41756  0.41756  0.00000  0.16489
       2     C     3.24242  3.24242  0.00000 -0.48484
       3     C     3.16557  3.16557  0.00000 -0.33113
       4     H     0.42188  0.42188  0.00000  0.15624
       5     H     0.42008  0.42008  0.00000  0.15985
       6     C     3.04046  3.04046  0.00000 -0.08091
       7     H     0.42277  0.42277  0.00000  0.15446
       8     H     0.41935  0.41935  0.00000  0.16130
       9     N     3.86562  3.86562  0.00000 -0.73123
      10     H     0.42605  0.42605  0.00000  0.14790
      11     H     0.42142  0.42142  0.00000  0.15717
      12     C     3.04942  3.04942  0.00000 -0.09885
      13     H     0.33330  0.33330  0.00000  0.33340
      14     C     3.15406  3.15406  0.00000 -0.30811
      15     H     0.42190  0.42190  0.00000  0.15620
      16     H     0.43356  0.43356  0.00000  0.13287
      17     C     3.24321  3.24321  0.00000 -0.48642
      18     H     0.41294  0.41294  0.00000  0.17413
      19     H     0.42751  0.42751  0.00000  0.14499
      20     H     0.42097  0.42097  0.00000  0.15806
      21     H     0.41788  0.41788  0.00000  0.16425
      22     H     0.42210  0.42210  0.00000  0.15580

   Total alpha = 29.00000, Total beta = 29.00000, Total charge = -0.00000
