  ==> Input File <==

--------------------------------------------------------------------------
set {
	reference rhf
	basis 6-31G*
}

set_num_threads( 1 )
memory 2 gb

molecule MOL {
0 1

H	 3.815643	 0.280271	 -0.520354
N	 3.092854	 -0.246221	 -0.068770
C	 1.865559	 0.531981	 0.018834
H	 3.430138	 -0.474182	 0.847256
C	 0.645745	 -0.382037	 -0.029944
H	 1.841966	 1.207024	 -0.831236
H	 1.815756	 1.155410	 0.915079
C	 -0.679275	 0.379305	 0.025956
H	 0.698998	 -0.976915	 -0.937203
H	 0.693479	 -1.083846	 0.802235
C	 -1.903357	 -0.536963	 -0.023547
H	 -0.726309	 1.082987	 -0.803784
H	 -0.717680	 0.977832	 0.934877
C	 -3.225172	 0.228290	 0.028445
H	 -1.867824	 -1.134999	 -0.931459
H	 -1.860449	 -1.239604	 0.805977
H	 -3.313397	 0.915643	 -0.808262
H	 -4.073500	 -0.448134	 -0.008893
H	 -3.306061	 0.809945	 0.942516

	symmetry c1
}
set optking {
	frozen_dihedral = ("
		6 3 5 9,
		12 8 5 9,
		12 8 11 15
	")
}

ee = energy('scf')
oeprop('DIPOLE', 'QUADRUPOLE', 'MULLIKEN_CHARGES')
f=open( 'psi4out.xyz', 'w' )
f.write( "19  " )
f.write( str(ee) + "\n" )
f.write( MOL.save_string_xyz() )
f.close()
--------------------------------------------------------------------------

    Molecular point group: c1

    Geometry (in Angstrom), charge = 0, multiplicity = 1:

       Center              X                  Y                   Z               Mass
    ------------   -----------------  -----------------  -----------------  -----------------
           H          3.813871639162     0.277069372683    -0.516724675583     1.007825032070
           N          3.091082639162    -0.249422627317    -0.065140675583    14.003074004780
           C          1.863787639162     0.528779372683     0.022463324417    12.000000000000
           H          3.428366639162    -0.477383627317     0.850885324417     1.007825032070
           C          0.643973639162    -0.385238627317    -0.026314675583    12.000000000000
           H          1.840194639162     1.203822372683    -0.827606675583     1.007825032070
           H          1.813984639162     1.152208372683     0.918708324417     1.007825032070
           C         -0.681046360838     0.376103372683     0.029585324417    12.000000000000
           H          0.697226639162    -0.980116627317    -0.933573675583     1.007825032070
           H          0.691707639162    -1.087047627317     0.805864324417     1.007825032070
           C         -1.905128360838    -0.540164627317    -0.019917675583    12.000000000000
           H         -0.728080360838     1.079785372683    -0.800154675583     1.007825032070
           H         -0.719451360838     0.974630372683     0.938506324417     1.007825032070
           C         -3.226943360838     0.225088372683     0.032074324417    12.000000000000
           H         -1.869595360838    -1.138200627317    -0.927829675583     1.007825032070
           H         -1.862220360838    -1.242805627317     0.809606324417     1.007825032070
           H         -3.315168360838     0.912441372683    -0.804632675583     1.007825032070
           H         -4.075271360838    -0.451335627317    -0.005263675583     1.007825032070
           H         -3.307832360838     0.806743372683     0.946145324417     1.007825032070

  Charge       = 0
  Multiplicity = 1
  Basis Set: 6-31G*
  Basis Set:

    Orbital Energies (a.u.)
    -----------------------

    Doubly Occupied:

       1A    -15.532592     2A    -11.240039     3A    -11.212101
       4A    -11.210060     5A    -11.206156     6A    -11.204392
       7A     -1.176470     8A     -1.070913     9A     -0.996775
      10A     -0.899240    11A     -0.810309    12A     -0.785876
      13A     -0.673147    14A     -0.636306    15A     -0.615679
      16A     -0.581503    17A     -0.566219    18A     -0.551679
      19A     -0.521190    20A     -0.501939    21A     -0.474426
      22A     -0.462514    23A     -0.458072    24A     -0.453220
      25A     -0.379763

  @DF-RHF Final Energy:  -251.35008902396461

   => Energetics <=

    Nuclear Repulsion Energy =            245.4927547030344215
    One-Electron Energy =                -825.2446469213850833
    Two-Electron Energy =                 328.4018031943856499
    DFT Exchange-Correlation Energy =       0.0000000000000000
    Empirical Dispersion Energy =           0.0000000000000000
    PCM Polarization Energy =               0.0000000000000000
    EFP Energy =                            0.0000000000000000
    Total Energy =                       -251.3500890239650403

  Mulliken Charges: (a.u.)
   Center  Symbol    Alpha    Beta     Spin     Total
       1     H     0.33169  0.33169  0.00000  0.33662
       2     N     3.92231  3.92231  0.00000 -0.84461
       3     C     3.06707  3.06707  0.00000 -0.13413
       4     H     0.33377  0.33377  0.00000  0.33246
       5     C     3.14236  3.14236  0.00000 -0.28472
       6     H     0.42314  0.42314  0.00000  0.15372
       7     H     0.43134  0.43134  0.00000  0.13733
       8     C     3.15625  3.15625  0.00000 -0.31250
       9     H     0.41585  0.41585  0.00000  0.16830
      10     H     0.42590  0.42590  0.00000  0.14820
      11     C     3.15038  3.15038  0.00000 -0.30077
      12     H     0.42519  0.42519  0.00000  0.14963
      13     H     0.42586  0.42586  0.00000  0.14828
      14     C     3.23910  3.23910  0.00000 -0.47820
      15     H     0.42222  0.42222  0.00000  0.15557
      16     H     0.42316  0.42316  0.00000  0.15368
      17     H     0.42221  0.42221  0.00000  0.15559
      18     H     0.41969  0.41969  0.00000  0.16062
      19     H     0.42252  0.42252  0.00000  0.15497

   Total alpha = 25.00000, Total beta = 25.00000, Total charge = -0.00000
