  ==> Input File <==

--------------------------------------------------------------------------
set {
	reference rhf
	basis 6-31G*
}

set_num_threads( 1 )
memory 2 gb

molecule MOL {
0 1

H	 2.086900	 -0.473801	 -0.784060
O	 1.586534	 -0.678666	 -0.000226
C	 0.489431	 0.077273	 0.000046
C	 -0.764129	 -0.759190	 0.000191
O	 0.537743	 1.263962	 0.000257
C	 -2.038368	 0.075731	 -0.000248
H	 -0.717284	 -1.412404	 -0.866059
H	 -0.717458	 -1.411724	 0.866967
H	 -2.086483	 0.712501	 -0.875098
H	 -2.908485	 -0.571682	 -0.000042
H	 -2.086576	 0.713280	 0.874068

	symmetry c1
}
set optking {
	frozen_dihedral = ("
		2 3 4 7
	")
}

ee = energy('scf')
oeprop('DIPOLE', 'QUADRUPOLE', 'MULLIKEN_CHARGES')
f=open( 'psi4out.xyz', 'w' )
f.write( "11  " )
f.write( str(ee) + "\n" )
f.write( MOL.save_string_xyz() )
f.close()
--------------------------------------------------------------------------

    Molecular point group: c1

    Geometry (in Angstrom), charge = 0, multiplicity = 1:

       Center              X                  Y                   Z               Mass
    ------------   -----------------  -----------------  -----------------  -----------------
           H          2.090396355600    -0.468730202704    -0.773389671797     1.007825032070
           O          1.590030355600    -0.673595202704     0.010444328203    15.994914619560
           C          0.492927355600     0.082343797296     0.010716328203    12.000000000000
           C         -0.760632644400    -0.754119202704     0.010861328203    12.000000000000
           O          0.541239355600     1.269032797296     0.010927328203    15.994914619560
           C         -2.034871644400     0.080801797296     0.010422328203    12.000000000000
           H         -0.713787644400    -1.407333202704    -0.855388671797     1.007825032070
           H         -0.713961644400    -1.406653202704     0.877637328203     1.007825032070
           H         -2.082986644400     0.717571797296    -0.864427671797     1.007825032070
           H         -2.904988644400    -0.566611202704     0.010628328203     1.007825032070
           H         -2.083079644400     0.718350797296     0.884738328203     1.007825032070

  Charge       = 0
  Multiplicity = 1
  Basis Set: 6-31G*
  Basis Set:

    Orbital Energies (a.u.)
    -----------------------

    Doubly Occupied:

       1A    -20.602604     2A    -20.558335     3A    -11.381072
       4A    -11.243736     5A    -11.219897     6A     -1.471778
       7A     -1.368329     8A     -1.063994     9A     -0.912517
      10A     -0.805257    11A     -0.708810    12A     -0.684366
      13A     -0.661599    14A     -0.613566    15A     -0.570215
      16A     -0.527055    17A     -0.523007    18A     -0.501752
      19A     -0.485019    20A     -0.446024

  @DF-RHF Final Energy:  -266.82970695277106

   => Energetics <=

    Nuclear Repulsion Energy =            179.7708535728994832
    One-Electron Energy =                -720.5032673920039770
    Two-Electron Energy =                 273.9027068663330624
    DFT Exchange-Correlation Energy =       0.0000000000000000
    Empirical Dispersion Energy =           0.0000000000000000
    PCM Polarization Energy =               0.0000000000000000
    EFP Energy =                            0.0000000000000000
    Total Energy =                       -266.8297069527714598

  Mulliken Charges: (a.u.)
   Center  Symbol    Alpha    Beta     Spin     Total
       1     H     0.26483  0.26483  0.00000  0.47033
       2     O     4.35530  4.35530  0.00000 -0.71060
       3     C     2.63560  2.63560  0.00000  0.72881
       4     C     3.20646  3.20646  0.00000 -0.41292
       5     O     4.25984  4.25984  0.00000 -0.51968
       6     C     3.24013  3.24013  0.00000 -0.48025
       7     H     0.40420  0.40420  0.00000  0.19160
       8     H     0.39738  0.39738  0.00000  0.20524
       9     H     0.41072  0.41072  0.00000  0.17856
      10     H     0.41727  0.41727  0.00000  0.16546
      11     H     0.40828  0.40828  0.00000  0.18344

   Total alpha = 20.00000, Total beta = 20.00000, Total charge =  0.00000
