                              Psi4 1.0.54 Driver

  ==> Input File <==

--------------------------------------------------------------------------
set {
	reference rhf
	basis cc-pvtz
}

set_num_threads( 4 )
memory 2 gb

molecule MOL {
0 1

H	 -0.000105	 1.988529	 0.748933
O	 -0.000098	 1.879786	 -0.188206
C	 -0.000014	 0.545691	 -0.532416
C	 -1.286000	 -0.125171	 -0.046657
C	 1.286016	 -0.125031	 -0.046584
H	 0.000021	 0.481103	 -1.610604
F	 -0.987323	 -1.251567	 0.552412
F	 -1.945388	 0.619992	 0.804020
F	 -2.087517	 -0.407709	 -1.051206
F	 2.317750	 0.468717	 -0.594166
F	 1.336617	 -1.393765	 -0.365123
F	 1.414467	 -0.024806	 1.259108

	symmetry c1
}
set optking {
	frozen_dihedral = ("
		7 4 3 6
	")
}

ee,wfn = optimize('scf', return_wfn=True)
oeprop( wfn, 'DIPOLE', 'QUADRUPOLE', 'MULLIKEN_CHARGES')
f=open( 'psi4out.xyz', 'w' )
f.write( "12  " )
f.write( str(ee) + "\n" )
f.write( MOL.save_string_xyz() )
f.close()
--------------------------------------------------------------------------

    Molecular point group: c1
  Charge       = 0
  Multiplicity = 1
  Basis Set: CC-PVTZ
  Basis Set:
  @DF-RHF Final Energy:  -786.58206436528349
    Total Energy =                       -786.5820643652837134
    Molecular point group: c1
  Basis Set: CC-PVTZ
  Basis Set:
  Basis Set: CC-PVTZ
  Basis Set:
  @DF-RHF Final Energy:  -786.58354538394087
    Total Energy =                       -786.5835453839412139
  Basis Set: CC-PVTZ
  Basis Set:
  Basis Set: CC-PVTZ
  Basis Set:
  @DF-RHF Final Energy:  -786.58411514588170
    Total Energy =                       -786.5841151458818103
  Basis Set: CC-PVTZ
  Basis Set:
  Basis Set: CC-PVTZ
  Basis Set:
  @DF-RHF Final Energy:  -786.58421107255924
    Total Energy =                       -786.5842110725589009
  Basis Set: CC-PVTZ
  Basis Set:
  Basis Set: CC-PVTZ
  Basis Set:
  @DF-RHF Final Energy:  -786.58422721947500
    Total Energy =                       -786.5842272194749967
  Basis Set: CC-PVTZ
  Basis Set:
  Charge       = 0
  Multiplicity = 1
  Basis Set: CC-PVTZ
  Basis Set:

    Orbital Energies (a.u.)
    -----------------------

    Doubly Occupied:

       1A    -26.358802     2A    -26.357211     3A    -26.357053
       4A    -26.356736     5A    -26.355348     6A    -26.351822
       7A    -20.607991     8A    -11.523208     9A    -11.517206
      10A    -11.351795    11A     -1.772678    12A     -1.765557
      13A     -1.665816    14A     -1.665523    15A     -1.663354
      16A     -1.659144    17A     -1.438099    18A     -1.100097
      19A     -1.001170    20A     -0.944020    21A     -0.872908
      22A     -0.866465    23A     -0.857912    24A     -0.853576
      25A     -0.841765    26A     -0.820785    27A     -0.740315
      28A     -0.738486    29A     -0.734011    30A     -0.730141
      31A     -0.694783    32A     -0.692027    33A     -0.688190
      34A     -0.683618    35A     -0.675314    36A     -0.669021
      37A     -0.662954    38A     -0.653900    39A     -0.622822
      40A     -0.552841    41A     -0.508873

  @DF-RHF Final Energy:  -786.58422975041606

   => Energetics <=

    Nuclear Repulsion Energy =            669.7249492437584877
    One-Electron Energy =               -2426.6716845579285291
    Two-Electron Energy =                 970.3625055637536434
    DFT Exchange-Correlation Energy =       0.0000000000000000
    Empirical Dispersion Energy =           0.0000000000000000
    PCM Polarization Energy =               0.0000000000000000
    EFP Energy =                            0.0000000000000000
    Total Energy =                       -786.5842297504162843
    Molecular point group: c1
  Basis Set: CC-PVTZ
  Basis Set:

  -Total Gradient:
     Atom            X                  Y                   Z
    ------   -----------------  -----------------  -----------------
       1        0.000022997197    -0.000004335808    -0.000105813121
       2        0.000043022042    -0.000043463978     0.000041694515
       3        0.001950994590    -0.002934741996     0.001048111509
       4       -0.000799716138    -0.001245556394    -0.003330847655
       5       -0.000137253565     0.000037008395    -0.000244970652
       6       -0.001470004968     0.002880425538    -0.000118756537
       7        0.000265822963     0.001426718668     0.002400433925
       8       -0.000011440352    -0.000003387656     0.000160430120
       9        0.000032278550    -0.000074033601    -0.000056045033
      10       -0.000025555979    -0.000059062975     0.000043068372
      11        0.000084072481     0.000088080049     0.000100588072
      12        0.000044783170    -0.000067650243     0.000062106492

  **** Optimization is complete! (in 6 steps) ****
    Final optimized geometry and variables:
    Molecular point group: c1

    Geometry (in Angstrom), charge = 0, multiplicity = 1:

    H           -0.013053809483     2.029357244715     0.740306129336
    O            0.085286554380     1.900999422351    -0.188121633730
    C            0.020581908768     0.567249787751    -0.524490351664
    C           -1.293983396753    -0.088703827823    -0.024603621838
    C            1.284192197645    -0.157882466678    -0.066509658603
    H            0.000387368024     0.527810672669    -1.602398274126
    F           -1.104783180465    -1.246740964579     0.559031777866
    F           -1.892841161100     0.686612087870     0.851243400965
    F           -2.119982958400    -0.272210718400    -1.026304445124
    F            2.338387945387     0.454078244825    -0.544822500506
    F            1.315153990227    -1.396857755612    -0.491748669583
    F            1.386118070718    -0.163541884474     1.245548747116

  Mulliken Charges: (a.u.)
   Center  Symbol    Alpha    Beta     Spin     Total
       1     H     0.38133  0.38133  0.00000  0.23734
       2     O     4.18532  4.18532  0.00000 -0.37064
       3     C     3.02293  3.02293  0.00000 -0.04585
       4     C     2.67338  2.67338  0.00000  0.65324
       5     C     2.67825  2.67825  0.00000  0.64350
       6     H     0.42756  0.42756  0.00000  0.14488
       7     F     4.60116  4.60116  0.00000 -0.20232
       8     F     4.60814  4.60814  0.00000 -0.21628
       9     F     4.60371  4.60371  0.00000 -0.20742
      10     F     4.60107  4.60107  0.00000 -0.20213
      11     F     4.60536  4.60536  0.00000 -0.21073
      12     F     4.61179  4.61179  0.00000 -0.22358

   Total alpha = 41.00000, Total beta = 41.00000, Total charge = -0.00000

*** Psi4 exiting successfully. Buy a developer a beer!
