  ==> Input File <==

--------------------------------------------------------------------------
set {
	reference rhf
	basis 6-31G*
}

set_num_threads( 4 )
memory 2 gb

molecule MOL {
0 1

O	 3.225979	 0.970355	 -0.599647
C	 2.701189	 0.057885	 -0.047330
C	 1.245376	 -0.013843	 0.345420
O	 3.347903	 -1.046386	 0.304773
C	 0.455112	 1.231400	 -0.050772
H	 0.838542	 -0.913825	 -0.103701
H	 1.208210	 -0.175333	 1.419774
C	 -0.998893	 1.219485	 0.433193
H	 0.482531	 1.345121	 -1.130325
H	 0.957290	 2.103070	 0.354729
C	 -1.862161	 0.094262	 -0.144521
H	 -1.449520	 2.173427	 0.169273
H	 -1.018575	 1.167583	 1.520818
C	 -3.328443	 0.190619	 0.281777
H	 -1.801451	 0.118978	 -1.231499
H	 -1.470501	 -0.873203	 0.161398
C	 -4.199567	 -0.931696	 -0.285395
H	 -3.732126	 1.151536	 -0.032731
H	 -3.389044	 0.176766	 1.368899
C	 -5.663101	 -0.825998	 0.141918
H	 -4.139369	 -0.919928	 -1.371617
H	 -3.800171	 -1.892864	 0.031495
H	 -6.254627	 -1.634931	 -0.275613
H	 -6.101982	 0.110411	 -0.190825
H	 -5.760003	 -0.869411	 1.223120
C	 4.728119	 -1.109107	 -0.004993
H	 4.882018	 -1.033965	 -1.071845
H	 5.068212	 -2.067527	 0.355250
H	 5.265056	 -0.311663	 0.488280

	symmetry c1
}
set optking {
	frozen_dihedral = ("
		11 8 5 9
	")
}

ee = optimize('scf')
oeprop('DIPOLE', 'QUADRUPOLE', 'MULLIKEN_CHARGES')
f=open( 'psi4out.xyz', 'w' )
f.write( "29  " )
f.write( str(ee) + "\n" )
f.write( MOL.save_string_xyz() )
f.close()
--------------------------------------------------------------------------

    Molecular point group: c1
  Charge       = 0
  Multiplicity = 1
  Basis Set: 6-31G*
  Basis Set:
  @DF-RHF Final Energy:  -501.04406132938584
    Total Energy =                       -501.0440613293860679
    Molecular point group: c1
  Basis Set: 6-31G*
  Basis Set:
  Basis Set: 6-31G*
  Basis Set:
  @DF-RHF Final Energy:  -501.04402229091272
    Total Energy =                       -501.0440222909128352
  Basis Set: 6-31G*
  Basis Set:
  Basis Set: 6-31G*
  Basis Set:
  @DF-RHF Final Energy:  -501.04407265500663
    Total Energy =                       -501.0440726550068575
  Basis Set: 6-31G*
  Basis Set:
  Basis Set: 6-31G*
  Basis Set:
  @DF-RHF Final Energy:  -501.04404603850492
    Total Energy =                       -501.0440460385045753
  Basis Set: 6-31G*
  Basis Set:
  Basis Set: 6-31G*
  Basis Set:
  @DF-RHF Final Energy:  -501.04407526256387
    Total Energy =                       -501.0440752625632967
  Basis Set: 6-31G*
  Basis Set:
  Charge       = 0
  Multiplicity = 1
  Basis Set: 6-31G*
  Basis Set:

    Orbital Energies (a.u.)
    -----------------------

    Doubly Occupied:

       1A    -20.603377     2A    -20.545207     3A    -11.372028
       4A    -11.280669     5A    -11.234775     6A    -11.219062
       7A    -11.217639     8A    -11.216037     9A    -11.215891
      10A    -11.214495    11A    -11.209096    12A     -1.469074
      13A     -1.362518    14A     -1.098126    15A     -1.066794
      16A     -1.019462    17A     -0.977222    18A     -0.928666
      19A     -0.861926    20A     -0.799194    21A     -0.790514
      22A     -0.763445    23A     -0.700701    24A     -0.682356
      25A     -0.672131    26A     -0.651280    27A     -0.628722
      28A     -0.604605    29A     -0.594707    30A     -0.580893
      31A     -0.567155    32A     -0.549631    33A     -0.531456
      34A     -0.530384    35A     -0.516295    36A     -0.512201
      37A     -0.496261    38A     -0.477835    39A     -0.470025
      40A     -0.462229    41A     -0.458954    42A     -0.455718
      43A     -0.440996    44A     -0.435570

  @DF-RHF Final Energy:  -501.04407524854912

   => Energetics <=

    Nuclear Repulsion Energy =            610.4349954306525206
    One-Electron Energy =               -1891.9874930929595394
    Two-Electron Energy =                 780.5084224137576712
    DFT Exchange-Correlation Energy =       0.0000000000000000
    Empirical Dispersion Energy =           0.0000000000000000
    PCM Polarization Energy =               0.0000000000000000
    EFP Energy =                            0.0000000000000000
    Total Energy =                       -501.0440752485492339
    Molecular point group: c1
  Basis Set: 6-31G*
  Basis Set:

  -Total Gradient:
     Atom            X                  Y                   Z
    ------   -----------------  -----------------  -----------------
       1       -0.000002561919    -0.000005712874    -0.000041646847
       2        0.000021001948     0.000038041048     0.000096057361
       3       -0.000020481905    -0.000011862703    -0.000044232532
       4       -0.000013603604    -0.000013654459    -0.000023380464
       5        0.000028939344    -0.000878388268     0.000067043150
       6       -0.000013839069    -0.000012120064     0.000001400865
       7        0.000002591615     0.000009184808    -0.000006725107
       8       -0.000168840856     0.000509600655    -0.000464672988
       9        0.000031897411     0.000623398273     0.000063099730
      10        0.000007495798    -0.000002486246     0.000007898562
      11        0.000129579610    -0.000267523210     0.000358237037
      12       -0.000010173190    -0.000019403842    -0.000013431036
      13       -0.000005384946     0.000013346630     0.000016060902
      14       -0.000011317784     0.000014920224    -0.000018138598
      15        0.000009978777     0.000011961207     0.000000406791
      16        0.000014926437    -0.000013379296    -0.000003389915
      17        0.000008148439    -0.000002952791     0.000005102547
      18       -0.000010428352     0.000010230753    -0.000012759692
      19       -0.000009527638     0.000006489509     0.000002458650
      20       -0.000001522700    -0.000006864951     0.000015546397
      21        0.000001592115     0.000009524890    -0.000003849295
      22        0.000010361522    -0.000013474787    -0.000005226297
      23        0.000002093232    -0.000001906497     0.000002042427
      24       -0.000003065321     0.000006544002    -0.000004103107
      25       -0.000008410101    -0.000000076296     0.000010356227
      26        0.000004512095    -0.000002633265    -0.000003495019
      27        0.000003965605    -0.000000597615    -0.000001661524
      28        0.000001209076    -0.000002286849    -0.000000157270
      29        0.000000864345     0.000002082018     0.000001159044

  **** Optimization is complete! (in 6 steps) ****
    Final optimized geometry and variables:
    Molecular point group: c1

    Geometry (in Angstrom), charge = 0, multiplicity = 1:

    O            3.217689709386     1.008865987253    -0.621457224839
    C            2.695974943252     0.088929701360    -0.078699196393
    C            1.238557591691     0.004447401485     0.305676787209
    O            3.347868002193    -1.014022767987     0.267953077448
    C            0.442373228346     1.246911525255    -0.086225871131
    H            0.840603457050    -0.895097584644    -0.152031370053
    H            1.196670395792    -0.164855097708     1.378714543147
    C           -1.009570675128     1.233973619827     0.403641574745
    H            0.465815734293     1.365562046158    -1.165422214346
    H            0.943016829755     2.119960139406     0.318478180701
    C           -1.878631377000     0.113202856767    -0.173972934114
    H           -1.458642036082     2.191156301588     0.149204137493
    H           -1.023273530119     1.174036601779     1.491018880228
    C           -3.345874969931     0.222273115722     0.246081573337
    H           -1.813618517584     0.132430127339    -1.260965304087
    H           -1.495313100149    -0.855525397055     0.138082283536
    C           -4.221574287962    -0.900355220768    -0.313326128641
    H           -3.742830070985     1.182486123982    -0.078944252245
    H           -3.410287082099     0.219135426661     1.333086826892
    C           -5.685375554210    -0.783703424988     0.110307325003
    H           -4.159252166624    -0.897994528882    -1.399503488299
    H           -3.827625597191    -1.860841846889     0.012378962388
    H           -6.280125059128    -1.593280125910    -0.301360984658
    H           -6.118987617496     0.151966775698    -0.231333900259
    H           -5.784521106026    -0.817307452383     1.191666526423
    C            4.729986571203    -1.065700242557    -0.035364474418
    H            4.888725832166    -0.981255328325    -1.100816928237
    H            5.074271664665    -2.024772584755     0.319104890405
    H            5.259441362854    -0.268808243908     0.466816507432

  Mulliken Charges: (a.u.)
   Center  Symbol    Alpha    Beta     Spin     Total
       1     O     4.28594  4.28594  0.00000 -0.57188
       2     C     2.60478  2.60478  0.00000  0.79044
       3     C     3.20999  3.20999  0.00000 -0.41997
       4     O     4.30747  4.30747  0.00000 -0.61495
       5     C     3.15373  3.15373  0.00000 -0.30746
       6     H     0.39859  0.39859  0.00000  0.20283
       7     H     0.40128  0.40128  0.00000  0.19744
       8     C     3.15633  3.15633  0.00000 -0.31266
       9     H     0.41326  0.41326  0.00000  0.17347
      10     H     0.40865  0.40865  0.00000  0.18270
      11     C     3.15545  3.15545  0.00000 -0.31091
      12     H     0.41824  0.41824  0.00000  0.16352
      13     H     0.42381  0.42381  0.00000  0.15238
      14     C     3.15027  3.15027  0.00000 -0.30054
      15     H     0.42282  0.42282  0.00000  0.15436
      16     H     0.42337  0.42337  0.00000  0.15327
      17     C     3.15145  3.15145  0.00000 -0.30290
      18     H     0.42328  0.42328  0.00000  0.15343
      19     H     0.42396  0.42396  0.00000  0.15208
      20     C     3.23935  3.23935  0.00000 -0.47871
      21     H     0.42283  0.42283  0.00000  0.15434
      22     H     0.42344  0.42344  0.00000  0.15313
      23     H     0.41923  0.41923  0.00000  0.16154
      24     H     0.42154  0.42154  0.00000  0.15692
      25     H     0.42181  0.42181  0.00000  0.15637
      26     C     3.09240  3.09240  0.00000 -0.18480
      27     H     0.40908  0.40908  0.00000  0.18185
      28     H     0.40851  0.40851  0.00000  0.18297
      29     H     0.40913  0.40913  0.00000  0.18174

   Total alpha = 44.00000, Total beta = 44.00000, Total charge = -0.00000
