  ==> Input File <==

--------------------------------------------------------------------------
set {
	reference rhf
	basis 6-31G*
}

set_num_threads( 4 )
memory 2 gb

molecule MOL {
0 1

H	 -2.178638	 -0.610182	 -3.399427
C	 -1.356702	 -0.596077	 -2.707115
C	 -1.243353	 -1.575675	 -1.726420
C	 -0.397894	 0.393487	 -2.777133
H	 -1.981517	 -2.354846	 -1.656888
C	 -0.190813	 -1.560840	 -0.836961
H	 -0.469266	 1.159367	 -3.529076
C	 0.670461	 0.422688	 -1.887064
H	 -0.091233	 -2.311207	 -0.074814
C	 0.773843	 -0.558448	 -0.913532
H	 1.399813	 1.205183	 -1.967154
O	 1.765256	 -0.628444	 0.000000
C	 2.778419	 0.335181	 0.000000
H	 2.731280	 0.961222	 -0.884976
H	 3.711703	 -0.207767	 0.000000
H	 2.731280	 0.961222	 0.884976

	symmetry c1
}
set optking {
	frozen_dihedral = ("
		10 12 13 14
	")
}

ee = optimize('scf')
oeprop('DIPOLE', 'QUADRUPOLE', 'MULLIKEN_CHARGES')
f=open( 'psi4out.xyz', 'w' )
f.write( "16  " )
f.write( str(ee) + "\n" )
f.write( MOL.save_string_xyz() )
f.close()
--------------------------------------------------------------------------

    Molecular point group: c1
  Charge       = 0
  Multiplicity = 1
  Basis Set: 6-31G*
  Basis Set:
  @DF-RHF Final Energy:  -344.57443854179525
    Total Energy =                       -344.5744385417954732
    Molecular point group: c1
  Basis Set: 6-31G*
  Basis Set:
  Basis Set: 6-31G*
  Basis Set:
  @DF-RHF Final Energy:  -344.57283837360399
    Total Energy =                       -344.5728383736038722
  Basis Set: 6-31G*
  Basis Set:
  Basis Set: 6-31G*
  Basis Set:
  @DF-RHF Final Energy:  -344.57701739897931
    Total Energy =                       -344.5770173989793648
  Basis Set: 6-31G*
  Basis Set:
  Basis Set: 6-31G*
  Basis Set:
  @DF-RHF Final Energy:  -344.57765717037074
    Total Energy =                       -344.5776571703707418
  Basis Set: 6-31G*
  Basis Set:
  @DF-RHF Final Energy:  -344.57872851360537
    Total Energy =                       -344.5787285136054834
  Basis Set: 6-31G*
  Basis Set:
  @DF-RHF Final Energy:  -344.57893405565233
    Total Energy =                       -344.5789340556519846
  Basis Set: 6-31G*
  Basis Set:
  Basis Set: 6-31G*
  Basis Set:
  @DF-RHF Final Energy:  -344.57895480477208
    Total Energy =                       -344.5789548047719109
  Basis Set: 6-31G*
  Basis Set:
  Basis Set: 6-31G*
  Basis Set:
  @DF-RHF Final Energy:  -344.57896164329094
    Total Energy =                       -344.5789616432908247
  Basis Set: 6-31G*
  Basis Set:
  Charge       = 0
  Multiplicity = 1
  Basis Set: 6-31G*
  Basis Set:

    Orbital Energies (a.u.)
    -----------------------

    Doubly Occupied:

       1A    -20.577379     2A    -11.291627     3A    -11.278103
       4A    -11.233182     5A    -11.231625     6A    -11.224614
       7A    -11.221401     8A    -11.220225     9A     -1.405690
      10A     -1.146135    11A     -1.019697    12A     -1.013316
      13A     -0.938634    14A     -0.831857    15A     -0.804977
      16A     -0.717770    17A     -0.664058    18A     -0.661555
      19A     -0.647126    20A     -0.614478    21A     -0.590441
      22A     -0.581388    23A     -0.525531    24A     -0.512910
      25A     -0.507355    26A     -0.480166    27A     -0.449223
      28A     -0.334413    29A     -0.309014

  @DF-RHF Final Energy:  -344.57896255276614

   => Energetics <=

    Nuclear Repulsion Energy =            347.6339357830208883
    One-Electron Energy =               -1156.3580162587743416
    Two-Electron Energy =                 464.1451179229875947
    DFT Exchange-Correlation Energy =       0.0000000000000000
    Empirical Dispersion Energy =           0.0000000000000000
    PCM Polarization Energy =               0.0000000000000000
    EFP Energy =                            0.0000000000000000
    Total Energy =                       -344.5789625527658586
    Molecular point group: c1
  Basis Set: 6-31G*
  Basis Set:

  -Total Gradient:
     Atom            X                  Y                   Z
    ------   -----------------  -----------------  -----------------
       1       -0.000004620001    -0.000017692659    -0.000002780839
       2        0.000050568109     0.000066155265    -0.000013197999
       3       -0.000013324969     0.000001255670     0.000063929575
       4       -0.000079513937    -0.000020705597    -0.000059247361
       5        0.000003785720     0.000007755159    -0.000021830866
       6        0.000037788536    -0.000028965782     0.000020189021
       7       -0.000000648314    -0.000007869565     0.000002172594
       8        0.000045773466    -0.000018824147     0.000060173312
       9       -0.000001897346     0.000001561783     0.000001247899
      10        0.000506281862    -0.001755436572    -0.000623534941
      11       -0.000000523815    -0.000019171211     0.000014392840
      12       -0.001175902110     0.003249579384     0.000776765168
      13        0.001489761329    -0.003534763826    -0.000344316073
      14       -0.000869342939     0.002093706116     0.000159567332
      15        0.000018921197    -0.000003318528    -0.000020865592
      16       -0.000007106788    -0.000013265491    -0.000012664069

  **** Optimization is complete! (in 9 steps) ****
    Final optimized geometry and variables:
    Molecular point group: c1

    Geometry (in Angstrom), charge = 0, multiplicity = 1:

    H           -2.451635595195    -0.365680892511    -2.251159178891
    C           -1.694565277888    -0.264530297755    -1.494864790966
    C           -1.530077372759    -1.248268776945    -0.529684839251
    C           -0.875759529026     0.849778472720    -1.468293489739
    H           -2.161178135035    -2.119191747538    -0.536934602854
    C           -0.553870088805    -1.125296379602     0.440837294730
    H           -0.998537623482     1.625548315277    -2.203175451898
    C            0.101411599203     0.989511755079    -0.493234155665
    H           -0.412627931533    -1.880769470224     1.191240266140
    C            0.268139301886    -0.005869434558     0.458418261858
    H            0.713250597332     1.872391893767    -0.468763944017
    O            1.176522347458     0.074484864722     1.458951674380
    C            2.457866123210     0.594712897221     1.209238505639
    H            2.638638412920     0.728607521133     0.150827091165
    H            3.184339248413    -0.096283366656     1.615871342728
    H            2.567540013550     1.553227643438     1.703534331345

  Mulliken Charges: (a.u.)
   Center  Symbol    Alpha    Beta     Spin     Total
       1     H     0.40085  0.40085  0.00000  0.19830
       2     C     3.11034  3.11034  0.00000 -0.22069
       3     C     3.09344  3.09344  0.00000 -0.18688
       4     C     3.09293  3.09293  0.00000 -0.18586
       5     H     0.39870  0.39870  0.00000  0.20260
       6     C     3.12447  3.12447  0.00000 -0.24893
       7     H     0.39926  0.39926  0.00000  0.20148
       8     C     3.13449  3.13449  0.00000 -0.26898
       9     H     0.39328  0.39328  0.00000  0.21343
      10     C     2.78933  2.78933  0.00000  0.42135
      11     H     0.39754  0.39754  0.00000  0.20493
      12     O     4.33145  4.33145  0.00000 -0.66291
      13     C     3.08598  3.08598  0.00000 -0.17195
      14     H     0.41967  0.41967  0.00000  0.16066
      15     H     0.41091  0.41091  0.00000  0.17817
      16     H     0.41736  0.41736  0.00000  0.16528

   Total alpha = 29.00000, Total beta = 29.00000, Total charge = -0.00000
