                              Psi4 1.0.54 Driver

  ==> Input File <==

--------------------------------------------------------------------------
set {
	reference rhf
	basis cc-pvtz
}

set_num_threads( 4 )
memory 2 gb

molecule MOL {
0 1

H	 -3.162190	 0.493205	 -0.000107
C	 -2.363908	 -0.234727	 0.000005
O	 -1.158738	 0.454634	 -0.000087
H	 -2.464314	 -0.863616	 -0.882153
H	 -2.464327	 -0.863359	 0.882345
C	 -0.028611	 -0.359694	 0.000037
C	 -0.404199	 -1.734906	 -0.513888
H	 0.378676	 -0.433831	 1.008629
H	 0.747276	 0.077463	 -0.628879
C	 0.784036	 -2.689635	 -0.544538
H	 -1.189916	 -2.136497	 0.116430
H	 -0.824192	 -1.629267	 -1.508070
H	 1.205080	 -2.828775	 0.445639
H	 0.487783	 -3.663265	 -0.915078
H	 1.573113	 -2.318310	 -1.189940

	symmetry c1
}
set optking {
	frozen_dihedral = ("
		8 6 3 2
	")
}

ee,wfn = optimize('scf', return_wfn=True)
oeprop( wfn, 'DIPOLE', 'QUADRUPOLE', 'MULLIKEN_CHARGES')
f=open( 'psi4out.xyz', 'w' )
f.write( "15  " )
f.write( str(ee) + "\n" )
f.write( MOL.save_string_xyz() )
f.close()
--------------------------------------------------------------------------

    Molecular point group: c1
  Charge       = 0
  Multiplicity = 1
  Basis Set: CC-PVTZ
  Basis Set:
  @DF-RHF Final Energy:  -232.20560133291895
    Total Energy =                       -232.2056013329190591
    Molecular point group: c1
  Basis Set: CC-PVTZ
  Basis Set:
  Basis Set: CC-PVTZ
  Basis Set:
  @DF-RHF Final Energy:  -231.13619754580071
    Total Energy =                       -231.1361975458006555
  Basis Set: CC-PVTZ
  Basis Set:
  Basis Set: CC-PVTZ
  Basis Set:
  @DF-RHF Final Energy:  -231.32960085300610
    Total Energy =                       -231.3296008530060988
  Basis Set: CC-PVTZ
  Basis Set:
  Basis Set: CC-PVTZ
  Basis Set:
  @DF-RHF Final Energy:  -231.69605722635583
    Total Energy =                       -231.6960572263558618
  Basis Set: CC-PVTZ
  Basis Set:
  @DF-RHF Final Energy:  -231.98256147341897
    Total Energy =                       -231.9825614734187980
  @DF-RHF Final Energy:  -231.15816642058397
    Total Energy =                       -231.1581664205838820
  @DF-RHF Final Energy:  -231.49322774067696
    Total Energy =                       -231.4932277406771561
  @DF-RHF Final Energy:  -231.80335390399466
    Total Energy =                       -231.8033539039946618
  @DF-RHF Final Energy:  -231.99435782379203
    Total Energy =                       -231.9943578237922566
  @DF-RHF Final Energy:  -232.12559707197616
    Total Energy =                       -232.1255970719761876
  @DF-RHF Final Energy:  -231.46975372121290
    Total Energy =                       -231.4697537212129532
  @DF-RHF Final Energy:  -231.77633922329235
    Total Energy =                       -231.7763392232922683
  @DF-RHF Final Energy:  -232.03111469299733
    Total Energy =                       -232.0311146929971642
  @DF-RHF Final Energy:  -232.18027892685419
    Total Energy =                       -232.1802789268541574
  @DF-RHF Final Energy:  -231.52107155997334
    Total Energy =                       -231.5210715599733362
  @DF-RHF Final Energy:  -231.83605076422663
    Total Energy =                       -231.8360507642265702
  @DF-RHF Final Energy:  -232.07751441102175
    Total Energy =                       -232.0775144110218093
  @DF-RHF Final Energy:  -232.19151383686020
    Total Energy =                       -232.1915138368602811
  @DF-RHF Final Energy:  -232.21418094605247
    Total Energy =                       -232.2141809460523518
  @DF-RHF Final Energy:  -232.21809270569443
    Total Energy =                       -232.2180927056944029
  @DF-RHF Final Energy:  -232.21887215360377
    Total Energy =                       -232.2188721536039111
  Basis Set: CC-PVTZ
  Basis Set:
  @DF-RHF Final Energy:  -232.21919730158476
    Total Energy =                       -232.2191973015846429
  Basis Set: CC-PVTZ
  Basis Set:
  Basis Set: CC-PVTZ
  Basis Set:
  @DF-RHF Final Energy:  -232.21929058179890
    Total Energy =                       -232.2192905817989299
  Basis Set: CC-PVTZ
  Basis Set:
  Basis Set: CC-PVTZ
  Basis Set:
  @DF-RHF Final Energy:  -232.21930389552730
    Total Energy =                       -232.2193038955273323
  Basis Set: CC-PVTZ
  Basis Set:
  Charge       = 0
  Multiplicity = 1
  Basis Set: CC-PVTZ
  Basis Set:

    Orbital Energies (a.u.)
    -----------------------

    Doubly Occupied:

       1A    -20.541807     2A    -11.263956     3A    -11.259944
       4A    -11.220420     5A    -11.215124     6A     -1.371641
       7A     -1.060339     8A     -0.962747     9A     -0.886398
      10A     -0.798400    11A     -0.671878    12A     -0.661102
      13A     -0.628767    14A     -0.607211    15A     -0.559451
      16A     -0.540074    17A     -0.524452    18A     -0.500837
      19A     -0.491661    20A     -0.445816    21A     -0.405603

  @DF-RHF Final Energy:  -232.21930531517907

   => Energetics <=

    Nuclear Repulsion Energy =            192.3165260512536463
    One-Electron Energy =                -695.8364029762951759
    Two-Electron Energy =                 271.3005716098625726
    DFT Exchange-Correlation Energy =       0.0000000000000000
    Empirical Dispersion Energy =           0.0000000000000000
    PCM Polarization Energy =               0.0000000000000000
    EFP Energy =                            0.0000000000000000
    Total Energy =                       -232.2193053151789854
    Molecular point group: c1
  Basis Set: CC-PVTZ
  Basis Set:

  -Total Gradient:
     Atom            X                  Y                   Z
    ------   -----------------  -----------------  -----------------
       1        0.000006403162     0.000078800227    -0.000008487795
       2       -0.003057968302     0.000272288704     0.002807080648
       3        0.005132652771    -0.000208783461    -0.003127888265
       4        0.000014322327     0.000005290192     0.000016355452
       5        0.000025844505    -0.000008796359    -0.000045438392
       6       -0.004670479039    -0.001496367675    -0.003611264294
       7        0.000110495494     0.000037696683    -0.000005577741
       8        0.002484904709     0.001322710487     0.003928261756
       9       -0.000020329537     0.000024273349    -0.000032215287
      10       -0.000023435966    -0.000068536650     0.000041973295
      11        0.000011598924     0.000007151140     0.000055872981
      12       -0.000025660560     0.000009373139    -0.000010417377
      13        0.000009730670     0.000006148972    -0.000007560614
      14        0.000015759773     0.000008862527     0.000028363019
      15       -0.000013838929     0.000009888724    -0.000029057386

  **** Optimization is complete! (in 25 steps) ****
    Final optimized geometry and variables:
    Molecular point group: c1

    Geometry (in Angstrom), charge = 0, multiplicity = 1:

    H            0.404909252451    -2.983946228524     0.347583293758
    C            0.081782811636    -2.032483260560    -0.049840260124
    O            0.785917211821    -1.051691788052     0.638736650143
    H           -0.990465532983    -1.950593659933     0.090350071441
    H            0.293778569415    -2.020788746968    -1.116808145537
    C            0.611042121481     0.298152439102     0.300052707555
    C           -0.716318262046     0.694875072993    -0.328580422722
    H            1.440725172081     0.613239831903    -0.330860010736
    H            0.725236022085     0.844965135559     1.229606062920
    C           -0.779822923426     2.202235450097    -0.556384378833
    H           -0.860225518541     0.185289627841    -1.274358626630
    H           -1.530617894425     0.392673790254     0.321805984292
    H            0.012131282235     2.533151678288    -1.219550004162
    H           -1.724548385139     2.486081350282    -1.003543383976
    H           -0.679050449212     2.746020387394     0.376448138219

  Mulliken Charges: (a.u.)
   Center  Symbol    Alpha    Beta     Spin     Total
       1     H     0.44280  0.44280  0.00000  0.11440
       2     C     3.03626  3.03626  0.00000 -0.07251
       3     O     4.17917  4.17917  0.00000 -0.35833
       4     H     0.46896  0.46896  0.00000  0.06208
       5     H     0.47262  0.47262  0.00000  0.05476
       6     C     2.96232  2.96232  0.00000  0.07536
       7     C     3.10266  3.10266  0.00000 -0.20531
       8     H     0.46863  0.46863  0.00000  0.06274
       9     H     0.45971  0.45971  0.00000  0.08058
      10     C     3.15258  3.15258  0.00000 -0.30516
      11     H     0.45098  0.45098  0.00000  0.09805
      12     H     0.44957  0.44957  0.00000  0.10086
      13     H     0.45414  0.45414  0.00000  0.09171
      14     H     0.44635  0.44635  0.00000  0.10731
      15     H     0.45327  0.45327  0.00000  0.09346

   Total alpha = 21.00000, Total beta = 21.00000, Total charge = -0.00000

*** Psi4 exiting successfully. Buy a developer a beer!
