  ==> Input File <==

--------------------------------------------------------------------------
set {
	reference rhf
	basis 6-31G*
}

set_num_threads( 4 )
memory 2 gb

molecule MOL {
0 1

O	 3.225979	 0.970355	 -0.599647
C	 2.701189	 0.057885	 -0.047330
C	 1.245376	 -0.013843	 0.345420
O	 3.347903	 -1.046386	 0.304773
C	 0.604586	 -1.363517	 0.029375
H	 1.188603	 0.225986	 1.402041
H	 0.731524	 0.793472	 -0.170231
C	 -0.898096	 -1.417647	 0.325199
H	 1.117212	 -2.142832	 0.585255
H	 0.768413	 -1.586896	 -1.019283
C	 -1.268700	 -1.303975	 1.806699
H	 -1.283025	 -2.359899	 -0.057834
H	 -1.406394	 -0.634385	 -0.235284
C	 -2.768116	 -1.473634	 2.059611
H	 -0.721421	 -2.057443	 2.371137
H	 -0.953456	 -0.339713	 2.198865
C	 -3.150796	 -1.356740	 3.536101
H	 -3.089304	 -2.442771	 1.681661
H	 -3.316593	 -0.727279	 1.487049
C	 -4.649307	 -1.531172	 3.780515
H	 -2.602850	 -2.101191	 4.109852
H	 -2.834449	 -0.386955	 3.914551
H	 -4.889065	 -1.443028	 4.835671
H	 -4.990453	 -2.506236	 3.444262
H	 -5.223768	 -0.779138	 3.246930
C	 4.728119	 -1.109107	 -0.004993
H	 4.882018	 -1.033965	 -1.071845
H	 5.068212	 -2.067527	 0.355250
H	 5.265056	 -0.311663	 0.488280

	symmetry c1
}
set optking {
	frozen_dihedral = ("
		6 3 2 1
	")
}

ee = optimize('scf')
oeprop('DIPOLE', 'QUADRUPOLE', 'MULLIKEN_CHARGES')
f=open( 'psi4out.xyz', 'w' )
f.write( "29  " )
f.write( str(ee) + "\n" )
f.write( MOL.save_string_xyz() )
f.close()
--------------------------------------------------------------------------

    Molecular point group: c1
  Charge       = 0
  Multiplicity = 1
  Basis Set: 6-31G*
  Basis Set:
  @DF-RHF Final Energy:  -501.04201533655760
    Total Energy =                       -501.0420153365575970
    Molecular point group: c1
  Basis Set: 6-31G*
  Basis Set:
  Basis Set: 6-31G*
  Basis Set:
  @DF-RHF Final Energy:  -501.04060069151626
    Total Energy =                       -501.0406006915164880
  Basis Set: 6-31G*
  Basis Set:
  Basis Set: 6-31G*
  Basis Set:
  @DF-RHF Final Energy:  -501.04229580743493
    Total Energy =                       -501.0422958074352664
  Basis Set: 6-31G*
  Basis Set:
  Basis Set: 6-31G*
  Basis Set:
  @DF-RHF Final Energy:  -501.04245435656890
    Total Energy =                       -501.0424543565700333
  Basis Set: 6-31G*
  Basis Set:
  Basis Set: 6-31G*
  Basis Set:
  @DF-RHF Final Energy:  -501.04237788558726
    Total Energy =                       -501.0423778855870296
  Basis Set: 6-31G*
  Basis Set:
  Basis Set: 6-31G*
  Basis Set:
  @DF-RHF Final Energy:  -501.04246112868304
    Total Energy =                       -501.0424611286831578
  Basis Set: 6-31G*
  Basis Set:
  Charge       = 0
  Multiplicity = 1
  Basis Set: 6-31G*
  Basis Set:

    Orbital Energies (a.u.)
    -----------------------

    Doubly Occupied:

       1A    -20.604432     2A    -20.542536     3A    -11.371061
       4A    -11.280883     5A    -11.234063     6A    -11.226066
       7A    -11.220643     8A    -11.217859     9A    -11.216880
      10A    -11.215830    11A    -11.209814    12A     -1.468891
      13A     -1.360823    14A     -1.100719    15A     -1.068532
      16A     -1.019356    17A     -0.973912    18A     -0.931867
      19A     -0.865364    20A     -0.799962    21A     -0.791354
      22A     -0.772938    23A     -0.696892    24A     -0.680598
      25A     -0.671063    26A     -0.652560    27A     -0.629403
      28A     -0.606309    29A     -0.589754    30A     -0.575219
      31A     -0.571863    32A     -0.545728    33A     -0.540405
      34A     -0.532949    35A     -0.519137    36A     -0.514609
      37A     -0.501063    38A     -0.479503    39A     -0.472881
      40A     -0.464026    41A     -0.462248    42A     -0.454754
      43A     -0.445919    44A     -0.426305

  @DF-RHF Final Energy:  -501.04246136823383

   => Energetics <=

    Nuclear Repulsion Energy =            612.9324928287829835
    One-Electron Energy =               -1896.8959687669382674
    Two-Electron Energy =                 782.9210145699212262
    DFT Exchange-Correlation Energy =       0.0000000000000000
    Empirical Dispersion Energy =           0.0000000000000000
    PCM Polarization Energy =               0.0000000000000000
    EFP Energy =                            0.0000000000000000
    Total Energy =                       -501.0424613682339441
    Molecular point group: c1
  Basis Set: 6-31G*
  Basis Set:

  -Total Gradient:
     Atom            X                  Y                   Z
    ------   -----------------  -----------------  -----------------
       1        0.000213187912     0.000293304869     0.000784836793
       2       -0.000330331354    -0.000237788719    -0.001162135203
       3        0.000219690653    -0.000842083137     0.000528854173
       4        0.000018699547    -0.000009622584    -0.000002035814
       5        0.000021204674    -0.000020427798     0.000018261178
       6       -0.000089430467     0.000810685336    -0.000162543018
       7       -0.000001187701    -0.000005294223     0.000008945955
       8       -0.000018744383    -0.000022157483    -0.000008089026
       9        0.000017004198    -0.000007459206    -0.000011907954
      10       -0.000003054023     0.000006613801     0.000016562105
      11       -0.000000496627     0.000032808730    -0.000004411286
      12       -0.000029535026     0.000005523617     0.000008562266
      13       -0.000003226814     0.000002664308     0.000003022439
      14        0.000004291006    -0.000003681851    -0.000007936183
      15        0.000007133277     0.000021546963    -0.000002700532
      16       -0.000020590579     0.000000360068    -0.000003928982
      17        0.000004357208    -0.000025335967     0.000001767959
      18       -0.000007746363     0.000004469307    -0.000014427835
      19        0.000003372047     0.000007852526     0.000011905538
      20        0.000000751953    -0.000007077731     0.000000281946
      21        0.000003222099     0.000000996455     0.000007604004
      22       -0.000002902578    -0.000001442974    -0.000007481613
      23        0.000000010219     0.000000119706     0.000000134101
      24       -0.000001082984     0.000000381074     0.000000989792
      25        0.000001311809     0.000000043446    -0.000000997859
      26       -0.000016298141    -0.000004650179    -0.000009705741
      27        0.000006608215    -0.000001239775     0.000000969790
      28        0.000002164652    -0.000000633551     0.000002750816
      29        0.000001617561     0.000001524969     0.000002852194

  **** Optimization is complete! (in 7 steps) ****
    Final optimized geometry and variables:
    Molecular point group: c1

    Geometry (in Angstrom), charge = 0, multiplicity = 1:

    O            2.871845784846     1.857016727940    -1.599413273177
    C            2.383016302702     0.902871837860    -1.084749205135
    C            0.934641926271     0.802231333702    -0.670328939953
    O            3.075968891024    -0.185172824489    -0.775042026551
    C            0.268953251859    -0.537958666056    -1.004489677011
    H            0.905806619759     0.990188936104     0.399289082882
    H            0.418492166599     1.623848430653    -1.151516686947
    C           -1.236074854436    -0.562024775149    -0.715593705652
    H            0.761531866691    -1.333523324679    -0.456346377586
    H            0.421992131735    -0.750506308455    -2.059532678828
    C           -1.607875976750    -0.444218488864     0.765132904173
    H           -1.638105909678    -1.495668704783    -1.102371592888
    H           -1.724991225902     0.232882983700    -1.275997232258
    C           -3.110342406829    -0.592600571001     1.013623925459
    H           -1.072789423166    -1.205626150143     1.330577356003
    H           -1.280130835447     0.515365300448     1.158062205024
    C           -3.494595778612    -0.474691362149     2.489615762915
    H           -3.444942752813    -1.555716811670     0.631874188130
    H           -3.646137584645     0.163637014353     0.442185508094
    C           -4.996037132233    -0.628266693520     2.729945001725
    H           -2.958733772773    -1.228663467602     3.062381988046
    H           -3.165251584928     0.489305393742     2.871574171468
    H           -5.236916006130    -0.539503769805     3.784765686519
    H           -5.350387216885    -1.597422903566     2.390256754097
    H           -5.558295705770     0.133420723077     2.197128404708
    C            4.456329601401    -0.178987126019    -1.091327974163
    H            4.601656294310    -0.052852639396    -2.154421875252
    H            4.836317738919    -1.137062385436    -0.772433687844
    H            4.962089495225     0.618593328025    -0.566506990824

  Mulliken Charges: (a.u.)
   Center  Symbol    Alpha    Beta     Spin     Total
       1     O     4.28761  4.28761  0.00000 -0.57523
       2     C     2.60989  2.60989  0.00000  0.78021
       3     C     3.20466  3.20466  0.00000 -0.40932
       4     O     4.30252  4.30252  0.00000 -0.60505
       5     C     3.16003  3.16003  0.00000 -0.32006
       6     H     0.40071  0.40071  0.00000  0.19857
       7     H     0.39871  0.39871  0.00000  0.20257
       8     C     3.15577  3.15577  0.00000 -0.31153
       9     H     0.40859  0.40859  0.00000  0.18282
      10     H     0.41587  0.41587  0.00000  0.16826
      11     C     3.15547  3.15547  0.00000 -0.31093
      12     H     0.41858  0.41858  0.00000  0.16284
      13     H     0.42147  0.42147  0.00000  0.15707
      14     C     3.15050  3.15050  0.00000 -0.30100
      15     H     0.42265  0.42265  0.00000  0.15470
      16     H     0.42242  0.42242  0.00000  0.15515
      17     C     3.15159  3.15159  0.00000 -0.30317
      18     H     0.42355  0.42355  0.00000  0.15290
      19     H     0.42331  0.42331  0.00000  0.15338
      20     C     3.23942  3.23942  0.00000 -0.47885
      21     H     0.42294  0.42294  0.00000  0.15412
      22     H     0.42296  0.42296  0.00000  0.15407
      23     H     0.41903  0.41903  0.00000  0.16195
      24     H     0.42167  0.42167  0.00000  0.15666
      25     H     0.42152  0.42152  0.00000  0.15696
      26     C     3.09224  3.09224  0.00000 -0.18447
      27     H     0.40861  0.40861  0.00000  0.18278
      28     H     0.40889  0.40889  0.00000  0.18223
      29     H     0.40881  0.40881  0.00000  0.18237

   Total alpha = 44.00000, Total beta = 44.00000, Total charge = -0.00000
