                              Psi4 1.0.54 Driver

  ==> Input File <==

--------------------------------------------------------------------------
set {
	reference rhf
	basis cc-pvtz
}

set_num_threads( 4 )
memory 2 gb

molecule MOL {
0 1

H	 -0.939693	 0.000281	 1.681345
O	 -0.046262	 -0.000157	 1.387678
C	 -0.000837	 0.000006	 -0.025491
C	 -0.908523	 1.103150	 -0.566164
C	 1.439196	 0.207233	 -0.490795
C	 -0.510771	 -1.371598	 -0.446035
H	 -0.922412	 1.104705	 -1.649953
H	 -0.564976	 2.079563	 -0.238043
H	 -1.921152	 0.964647	 -0.208586
H	 1.511251	 0.175929	 -1.571820
H	 1.815052	 1.171341	 -0.161705
H	 2.080603	 -0.562428	 -0.080083
H	 -0.513186	 -1.468824	 -1.525307
H	 -1.519463	 -1.523666	 -0.083230
H	 0.118306	 -2.148695	 -0.030587

	symmetry c1
}
set optking {
	frozen_dihedral = ("
		4 3 2 1
	")
}

ee,wfn = optimize('scf', return_wfn=True)
oeprop( wfn, 'DIPOLE', 'QUADRUPOLE', 'MULLIKEN_CHARGES')
f=open( 'psi4out.xyz', 'w' )
f.write( "15  " )
f.write( str(ee) + "\n" )
f.write( MOL.save_string_xyz() )
f.close()
--------------------------------------------------------------------------

    Molecular point group: c1
  Charge       = 0
  Multiplicity = 1
  Basis Set: CC-PVTZ
  Basis Set:
  @DF-RHF Final Energy:  -232.24473195576988
    Total Energy =                       -232.2447319557697938
    Molecular point group: c1
  Basis Set: CC-PVTZ
  Basis Set:
  Basis Set: CC-PVTZ
  Basis Set:
  @DF-RHF Final Energy:  -232.24553408314262
    Total Energy =                       -232.2455340831427861
  Basis Set: CC-PVTZ
  Basis Set:
  Basis Set: CC-PVTZ
  Basis Set:
  @DF-RHF Final Energy:  -232.24662356650887
    Total Energy =                       -232.2466235665091290
  Basis Set: CC-PVTZ
  Basis Set:
  Basis Set: CC-PVTZ
  Basis Set:
  @DF-RHF Final Energy:  -232.24664427074208
    Total Energy =                       -232.2466442707424790
  Basis Set: CC-PVTZ
  Basis Set:
  Basis Set: CC-PVTZ
  Basis Set:
  @DF-RHF Final Energy:  -232.24664584123971
    Total Energy =                       -232.2466458412396833
  Basis Set: CC-PVTZ
  Basis Set:
  Basis Set: CC-PVTZ
  Basis Set:
  @DF-RHF Final Energy:  -232.24664723832177
    Total Energy =                       -232.2466472383216569
  Basis Set: CC-PVTZ
  Basis Set:
  Charge       = 0
  Multiplicity = 1
  Basis Set: CC-PVTZ
  Basis Set:

    Orbital Energies (a.u.)
    -----------------------

    Doubly Occupied:

       1A    -20.542089     2A    -11.280810     3A    -11.211169
       4A    -11.207483     5A    -11.203894     6A     -1.364840
       7A     -1.065258     8A     -0.942902     9A     -0.939703
      10A     -0.778510    11A     -0.672620    12A     -0.624426
      13A     -0.622729    14A     -0.576070    15A     -0.557505
      16A     -0.532948    17A     -0.517050    18A     -0.511360
      19A     -0.504481    20A     -0.459011    21A     -0.428439

  @DF-RHF Final Energy:  -232.24664732780099

   => Energetics <=

    Nuclear Repulsion Energy =            200.6738575130936511
    One-Electron Energy =                -712.7544149086972993
    Two-Electron Energy =                 279.8339100678030036
    DFT Exchange-Correlation Energy =       0.0000000000000000
    Empirical Dispersion Energy =           0.0000000000000000
    PCM Polarization Energy =               0.0000000000000000
    EFP Energy =                            0.0000000000000000
    Total Energy =                       -232.2466473278005878
    Molecular point group: c1
  Basis Set: CC-PVTZ
  Basis Set:

  -Total Gradient:
     Atom            X                  Y                   Z
    ------   -----------------  -----------------  -----------------
       1        0.000080658233     0.000961911314    -0.000074167397
       2       -0.000256035623    -0.001299942982     0.000112562526
       3        0.000653404064     0.000672250654    -0.000121405661
       4       -0.000471853749    -0.000339944820     0.000072381135
       5       -0.000020513955     0.000001750623     0.000008144842
       6        0.000009064003     0.000003292042     0.000000012222
       7        0.000000898221     0.000002518589    -0.000002257214
       8       -0.000001425853    -0.000002541720    -0.000002959761
       9        0.000010860534    -0.000006454858    -0.000000315481
      10       -0.000005766247     0.000007239257     0.000003468256
      11        0.000002281423     0.000001093993     0.000002871619
      12       -0.000010708856    -0.000007795623     0.000002676771
      13       -0.000002552147    -0.000000320879    -0.000000339852
      14        0.000008354212     0.000004787780     0.000002191620
      15        0.000003335740     0.000002156630    -0.000002863622

  **** Optimization is complete! (in 7 steps) ****
    Final optimized geometry and variables:
    Molecular point group: c1

    Geometry (in Angstrom), charge = 0, multiplicity = 1:

    H           -0.668629526483     0.161162175586     1.799273118046
    O            0.166290440031     0.067922794324     1.377093325102
    C           -0.003514814441    -0.001762679940    -0.025095268853
    C           -0.890363218618     1.149633710091    -0.493882869248
    C            1.396449240419     0.119119702334    -0.610776308624
    C           -0.628561794292    -1.346575043400    -0.392760484357
    H           -1.009173610137     1.139356770048    -1.570905325791
    H           -0.459065592624     2.100081760202    -0.204662385768
    H           -1.880037555145     1.077720432187    -0.052371584609
    H            1.369998867836     0.056046694450    -1.692267172719
    H            1.840874574161     1.065539785748    -0.329779766911
    H            2.028315416716    -0.675572210354    -0.234596776501
    H           -0.741492858215    -1.448296688034    -1.466143658000
    H           -1.611168865653    -1.448556385956     0.056921646255
    H           -0.008622473388    -2.157869614182    -0.032614042618

  Mulliken Charges: (a.u.)
   Center  Symbol    Alpha    Beta     Spin     Total
       1     H     0.39548  0.39548  0.00000  0.20904
       2     O     4.21135  4.21135  0.00000 -0.42270
       3     C     2.87839  2.87839  0.00000  0.24322
       4     C     3.15222  3.15222  0.00000 -0.30444
       5     C     3.14283  3.14283  0.00000 -0.28566
       6     C     3.14834  3.14834  0.00000 -0.29669
       7     H     0.45450  0.45450  0.00000  0.09099
       8     H     0.44590  0.44590  0.00000  0.10821
       9     H     0.45627  0.45627  0.00000  0.08746
      10     H     0.45876  0.45876  0.00000  0.08248
      11     H     0.44921  0.44921  0.00000  0.10158
      12     H     0.44766  0.44766  0.00000  0.10468
      13     H     0.45646  0.45646  0.00000  0.08707
      14     H     0.45546  0.45546  0.00000  0.08908
      15     H     0.44717  0.44717  0.00000  0.10566

   Total alpha = 21.00000, Total beta = 21.00000, Total charge = -0.00000

*** Psi4 exiting successfully. Buy a developer a beer!
