                              Psi4 1.0.54 Driver

  ==> Input File <==

--------------------------------------------------------------------------
set {
	reference rhf
	basis cc-pvtz
}

set_num_threads( 4 )
memory 2 gb

molecule MOL {
0 1

O	 3.219313	 0.959291	 -0.614106
C	 2.698710	 0.058177	 -0.050237
C	 1.246364	 -0.005813	 0.348416
O	 3.344101	 -1.038700	 0.312317
C	 0.453207	 1.232821	 -0.049003
H	 0.839270	 -0.907818	 -0.092281
H	 1.216683	 -0.160521	 1.422434
C	 -0.998367	 1.217982	 0.432195
H	 0.481498	 1.345443	 -1.127236
H	 0.951413	 2.105557	 0.354893
C	 -1.882951	 0.151251	 -0.211235
H	 -1.429490	 2.193659	 0.228843
H	 -1.019755	 1.099323	 1.513279
C	 -3.342450	 0.243269	 0.226009
H	 -1.826223	 0.246578	 -1.293162
H	 -1.508033	 -0.839650	 0.027695
C	 -4.234517	 -0.821434	 -0.405970
H	 -3.730149	 1.228245	 -0.022691
H	 -3.398860	 0.159952	 1.308941
C	 -4.116250	 -0.878291	 -1.925364
H	 -3.983681	 -1.793021	 0.010948
H	 -5.268987	 -0.631455	 -0.132771
H	 -4.761697	 -1.643240	 -2.341580
H	 -3.099410	 -1.101876	 -2.230579
H	 -4.393904	 0.069174	 -2.375282
C	 4.720529	 -1.114346	 0.001449
H	 4.874321	 -1.055557	 -1.065852
H	 5.057824	 -2.067950	 0.373977
H	 5.264321	 -0.313596	 0.480350

	symmetry c1
}
set optking {
	frozen_dihedral = ("
		21 17 14 11
	")
}

ee,wfn = optimize('scf', return_wfn=True)
oeprop( wfn, 'DIPOLE', 'QUADRUPOLE', 'MULLIKEN_CHARGES')
f=open( 'psi4out.xyz', 'w' )
f.write( "29  " )
f.write( str(ee) + "\n" )
f.write( MOL.save_string_xyz() )
f.close()
--------------------------------------------------------------------------

    Molecular point group: c1
  Charge       = 0
  Multiplicity = 1
  Basis Set: CC-PVTZ
  Basis Set:
  @DF-RHF Final Energy:  -501.22138009031630
    Total Energy =                       -501.2213800903159608
    Molecular point group: c1
  Basis Set: CC-PVTZ
  Basis Set:
  Basis Set: CC-PVTZ
  Basis Set:
  @DF-RHF Final Energy:  -501.21133469039887
    Total Energy =                       -501.2113346903989850
  Basis Set: CC-PVTZ
  Basis Set:
  Basis Set: CC-PVTZ
  Basis Set:
  @DF-RHF Final Energy:  -501.22235889776618
    Total Energy =                       -501.2223588977653890
  Basis Set: CC-PVTZ
  Basis Set:
  Basis Set: CC-PVTZ
  Basis Set:
  @DF-RHF Final Energy:  -501.22267541541396
    Total Energy =                       -501.2226754154135051
  Basis Set: CC-PVTZ
  Basis Set:
  @DF-RHF Final Energy:  -501.22239355412955
    Total Energy =                       -501.2223935541302353
  Basis Set: CC-PVTZ
  Basis Set:
  @DF-RHF Final Energy:  -501.22266090022833
    Total Energy =                       -501.2226609002291298
  Basis Set: CC-PVTZ
  Basis Set:
  Basis Set: CC-PVTZ
  Basis Set:
  @DF-RHF Final Energy:  -501.22270477549284
    Total Energy =                       -501.2227047754930709
  Basis Set: CC-PVTZ
  Basis Set:
  Basis Set: CC-PVTZ
  Basis Set:
  @DF-RHF Final Energy:  -501.22270253570196
    Total Energy =                       -501.2227025357019556
  Basis Set: CC-PVTZ
  Basis Set:
  Charge       = 0
  Multiplicity = 1
  Basis Set: CC-PVTZ
  Basis Set:

    Orbital Energies (a.u.)
    -----------------------

    Doubly Occupied:

       1A    -20.595965     2A    -20.533816     3A    -11.364232
       4A    -11.278240     5A    -11.232924     6A    -11.216949
       7A    -11.215398     8A    -11.214340     9A    -11.213233
      10A    -11.212558    11A    -11.207113    12A     -1.471851
      13A     -1.365428    14A     -1.099235    15A     -1.067330
      16A     -1.019060    17A     -0.976559    18A     -0.928981
      19A     -0.872171    20A     -0.804116    21A     -0.778236
      22A     -0.765421    23A     -0.702576    24A     -0.685444
      25A     -0.675977    26A     -0.646659    27A     -0.626363
      28A     -0.609439    29A     -0.602733    30A     -0.586099
      31A     -0.559363    32A     -0.554041    33A     -0.540823
      34A     -0.526999    35A     -0.519358    36A     -0.505378
      37A     -0.502619    38A     -0.478092    39A     -0.472975
      40A     -0.460980    41A     -0.458989    42A     -0.452624
      43A     -0.444238    44A     -0.437678

  @DF-RHF Final Energy:  -501.22270561155642

   => Energetics <=

    Nuclear Repulsion Energy =            617.5732361932466574
    One-Electron Energy =               -1906.6266770764193552
    Two-Electron Energy =                 787.8307352716171863
    DFT Exchange-Correlation Energy =       0.0000000000000000
    Empirical Dispersion Energy =           0.0000000000000000
    PCM Polarization Energy =               0.0000000000000000
    EFP Energy =                            0.0000000000000000
    Total Energy =                       -501.2227056115555115
    Molecular point group: c1
  Basis Set: CC-PVTZ
  Basis Set:

  -Total Gradient:
     Atom            X                  Y                   Z
    ------   -----------------  -----------------  -----------------
       1        0.000037718086     0.000006542650    -0.000007163469
       2       -0.000033363444    -0.000002204710     0.000009481275
       3       -0.000000509084    -0.000001406358    -0.000003441652
       4        0.000004577006     0.000007576144    -0.000006167176
       5       -0.000014238121    -0.000005519966     0.000005229956
       6       -0.000010283610    -0.000017717786    -0.000008646067
       7       -0.000002437705    -0.000006721145     0.000018685637
       8       -0.000007301061    -0.000001631266    -0.000007440979
       9        0.000000294631     0.000009958661    -0.000026312203
      10        0.000011327339     0.000020174409     0.000015232931
      11       -0.000315124435     0.001348275906    -0.001324657192
      12       -0.000004541959    -0.000002679227     0.000002496687
      13       -0.000000796545    -0.000001790353    -0.000003474412
      14        0.000021035829    -0.001900064343     0.002336499385
      15        0.000005332397     0.000000413192     0.000006382206
      16       -0.000001339613    -0.000000271875    -0.000002082916
      17        0.002123317430     0.000427294164    -0.002854030867
      18       -0.000005149816     0.000010392014    -0.000001206313
      19        0.000001551123     0.000000770607     0.000002362932
      20       -0.000005476248    -0.000011212373     0.000003968807
      21       -0.001812219778     0.000123698639     0.001839728988
      22       -0.000009959544    -0.000001240265    -0.000003299442
      23        0.000012750057     0.000013629038     0.000000843727
      24       -0.000023224329     0.000004753644     0.000005831713
      25        0.000008238440    -0.000013478725     0.000000931079
      26       -0.000000556074    -0.000007618556    -0.000003738759
      27       -0.000002908933     0.000005237114    -0.000012369481
      28        0.000016097326    -0.000018920001     0.000002782759
      29        0.000007190633     0.000013760765     0.000013572846

  **** Optimization is complete! (in 9 steps) ****
    Final optimized geometry and variables:
    Molecular point group: c1

    Geometry (in Angstrom), charge = 0, multiplicity = 1:

    O            3.085008493769     1.092200584986    -0.049343857156
    C            2.553585677014     0.086054175415     0.276672719605
    C            1.083479016563    -0.075324465677     0.568639214623
    O            3.201380332626    -1.057608616286     0.430288649685
    C            0.287258653413     1.213261418503     0.404414840378
    H            0.719229980594    -0.863300323897    -0.079528689270
    H            0.999121820261    -0.460288109694     1.580106399550
    C           -1.187456164154     1.080984563264     0.786978473418
    H            0.371473396032     1.558094040307    -0.620361467749
    H            0.744450456817     1.981601050196     1.015806303551
    C           -2.012864305418     0.169310003624    -0.120398852946
    H           -1.628328993162     2.073410676170     0.772773821539
    H           -1.264714271216     0.732661238845     1.814485260637
    C           -3.497775960414     0.176758606154     0.239312573181
    H           -1.881676550109     0.487781371827    -1.149645641970
    H           -1.640333575254    -0.850184328673    -0.064102477389
    C           -4.366138042766    -0.806747453928    -0.549059926533
    H           -3.884670027493     1.183046441729     0.094420091788
    H           -3.608916517621    -0.039223689356     1.298172206501
    C           -4.275225586062    -0.685098113188    -2.067180966107
    H           -4.129232338977    -1.822505045608    -0.243040614047
    H           -5.399021463754    -0.650881550450    -0.250937987642
    H           -4.994255853045    -1.339534849696    -2.546252185118
    H           -3.293761192541    -0.952885773407    -2.438759852304
    H           -4.486355899592     0.329246373609    -2.391035654485
    C            4.593782522773    -1.052038865678     0.189079656782
    H            4.803173659255    -0.762207581388    -0.829957449498
    H            4.930656888534    -2.060651350120     0.365730239129
    H            5.094303606255    -0.369112432304     0.859464655223

  Mulliken Charges: (a.u.)
   Center  Symbol    Alpha    Beta     Spin     Total
       1     O     4.19698  4.19698  0.00000 -0.39396
       2     C     2.80491  2.80491  0.00000  0.39017
       3     C     3.10145  3.10145  0.00000 -0.20291
       4     O     4.14724  4.14724  0.00000 -0.29448
       5     C     3.09240  3.09240  0.00000 -0.18481
       6     H     0.43911  0.43911  0.00000  0.12178
       7     H     0.43990  0.43990  0.00000  0.12020
       8     C     3.10363  3.10363  0.00000 -0.20726
       9     H     0.44637  0.44637  0.00000  0.10726
      10     H     0.43964  0.43964  0.00000  0.12071
      11     C     3.09742  3.09742  0.00000 -0.19483
      12     H     0.44537  0.44537  0.00000  0.10925
      13     H     0.45288  0.45288  0.00000  0.09424
      14     C     3.09538  3.09538  0.00000 -0.19076
      15     H     0.44978  0.44978  0.00000  0.10045
      16     H     0.45345  0.45345  0.00000  0.09309
      17     C     3.08948  3.08948  0.00000 -0.17896
      18     H     0.45225  0.45225  0.00000  0.09550
      19     H     0.44974  0.44974  0.00000  0.10053
      20     C     3.15507  3.15507  0.00000 -0.31014
      21     H     0.45403  0.45403  0.00000  0.09193
      22     H     0.44944  0.44944  0.00000  0.10112
      23     H     0.44546  0.44546  0.00000  0.10908
      24     H     0.45295  0.45295  0.00000  0.09411
      25     H     0.45369  0.45369  0.00000  0.09263
      26     C     3.03812  3.03812  0.00000 -0.07624
      27     H     0.45435  0.45435  0.00000  0.09129
      28     H     0.44528  0.44528  0.00000  0.10943
      29     H     0.45423  0.45423  0.00000  0.09154

   Total alpha = 44.00000, Total beta = 44.00000, Total charge =  0.00000

*** Psi4 exiting successfully. Buy a developer a beer!
