  ==> Input File <==

--------------------------------------------------------------------------
set {
	reference rhf
	basis cc-pvtz
}

set_num_threads( 4 )
memory 2 gb

molecule MOL {
0 1

H	 -0.493415	 -1.744877	 0.812864
C	 -0.214530	 -0.732795	 1.083180
N	 0.526300	 -0.128137	 0.000000
H	 0.407696	 -0.788761	 1.967343
H	 -1.129320	 -0.195665	 1.342451
C	 -0.247113	 0.037112	 -1.209233
H	 0.895961	 0.751013	 0.290008
H	 -0.996493	 -0.743733	 -1.271440
H	 0.397975	 -0.057351	 -2.073512
H	 -0.763794	 0.997171	 -1.271673

	symmetry c1
}
set optking {
	frozen_dihedral = ("
		2 3 6 8
	")
}

ee = optimize('scf')
oeprop('DIPOLE', 'QUADRUPOLE', 'MULLIKEN_CHARGES')
f=open( 'psi4out.xyz', 'w' )
f.write( "10  " )
f.write( str(ee) + "\n" )
f.write( MOL.save_string_xyz() )
f.close()
--------------------------------------------------------------------------

    Molecular point group: c1
  Charge       = 0
  Multiplicity = 1
  Basis Set: CC-PVTZ
  Basis Set:
  @DF-RHF Final Energy:  -134.28986304420616
    Total Energy =                       -134.2898630442061858
    Molecular point group: c1
  Basis Set: CC-PVTZ
  Basis Set:
  Basis Set: CC-PVTZ
  Basis Set:
  @DF-RHF Final Energy:  -134.29014151319060
    Total Energy =                       -134.2901415131904628
  Basis Set: CC-PVTZ
  Basis Set:
  Basis Set: CC-PVTZ
  Basis Set:
  @DF-RHF Final Energy:  -134.29018741743306
    Total Energy =                       -134.2901874174330032
  Basis Set: CC-PVTZ
  Basis Set:
  Basis Set: CC-PVTZ
  Basis Set:
  @DF-RHF Final Energy:  -134.29019058122321
    Total Energy =                       -134.2901905812232428
  Basis Set: CC-PVTZ
  Basis Set:
  Charge       = 0
  Multiplicity = 1
  Basis Set: CC-PVTZ
  Basis Set:

    Orbital Energies (a.u.)
    -----------------------

    Doubly Occupied:

       1A    -15.529539     2A    -11.234461     3A    -11.233941
       4A     -1.197493     5A     -0.947975     6A     -0.855505
       7A     -0.661934     8A     -0.609591     9A     -0.590731
      10A     -0.541312    11A     -0.513018    12A     -0.508440
      13A     -0.358199

  @DF-RHF Final Energy:  -134.29019087798554

   => Energetics <=

    Nuclear Repulsion Energy =             84.5926465145157351
    One-Electron Energy =                -348.2013974268497236
    Two-Electron Energy =                 129.3185600343484793
    DFT Exchange-Correlation Energy =       0.0000000000000000
    Empirical Dispersion Energy =           0.0000000000000000
    PCM Polarization Energy =               0.0000000000000000
    EFP Energy =                            0.0000000000000000
    Total Energy =                       -134.2901908779855376
    Molecular point group: c1
  Basis Set: CC-PVTZ
  Basis Set:

  -Total Gradient:
     Atom            X                  Y                   Z
    ------   -----------------  -----------------  -----------------
       1       -0.000003533713    -0.000004192812     0.000008125029
       2        0.000837127473    -0.002677071529    -0.000888110129
       3       -0.001801512715     0.004342137580     0.001732034795
       4       -0.000006386037     0.000002019981    -0.000004924596
       5        0.000008992392     0.000000649367     0.000002064184
       6        0.003440639241    -0.003895403026    -0.002706413559
       7        0.000009053521     0.000012591417    -0.000003023896
       8       -0.002466237993     0.002197219498     0.001817684131
       9       -0.000007177957     0.000005339021     0.000030721731
      10       -0.000010964212     0.000016710502     0.000011842309

  **** Optimization is complete! (in 5 steps) ****
    Final optimized geometry and variables:
    Molecular point group: c1

    Geometry (in Angstrom), charge = 0, multiplicity = 1:

    H           -0.493861815158    -1.480319733477     0.870147266604
    C           -0.219881961414    -0.465055307959     1.131022399266
    N            0.513507524229     0.134791797573     0.041198615873
    H            0.410522405614    -0.511950336992     2.010165102523
    H           -1.134704993084     0.067477508652     1.400852298722
    C           -0.240540307306     0.301043132188    -1.184455095514
    H            0.927607590947     0.994978246762     0.322709852989
    H           -0.989488254762    -0.477619997074    -1.258640327841
    H            0.407883107839     0.240206245736    -2.049678912324
    H           -0.780642372647     1.247248496561    -1.231769319842

  Mulliken Charges: (a.u.)
   Center  Symbol    Alpha    Beta     Spin     Total
       1     H     0.45686  0.45686  0.00000  0.08628
       2     C     3.08040  3.08040  0.00000 -0.16080
       3     N     3.63410  3.63410  0.00000 -0.26821
       4     H     0.45295  0.45295  0.00000  0.09410
       5     H     0.47554  0.47554  0.00000  0.04893
       6     C     3.08072  3.08072  0.00000 -0.16144
       7     H     0.43901  0.43901  0.00000  0.12199
       8     H     0.45922  0.45922  0.00000  0.08155
       9     H     0.45297  0.45297  0.00000  0.09406
      10     H     0.46823  0.46823  0.00000  0.06354

   Total alpha = 13.00000, Total beta = 13.00000, Total charge =  0.00000
