  ==> Input File <==

--------------------------------------------------------------------------
set {
	reference rhf
	basis cc-pvtz
}

set_num_threads( 4 )
memory 2 gb

molecule MOL {
0 1

H	 -3.268214	 -0.875720	 0.463107
C	 -2.806015	 0.000007	 0.024886
N	 -1.391133	 0.000016	 0.301321
H	 -3.029448	 0.000055	 -1.045738
H	 -3.268126	 0.875758	 0.463150
C	 -1.073152	 0.669031	 1.544255
C	 -0.616953	 0.548357	 -0.791153
H	 -1.364604	 1.723114	 1.515710
H	 -1.627267	 0.198221	 2.347610
C	 0.412165	 0.575208	 1.839284
H	 -0.838015	 -0.010545	 -1.692734
H	 -0.877302	 1.594215	 -0.978897
C	 0.868365	 0.454534	 -0.496124
H	 0.633228	 1.134109	 2.740865
H	 0.672515	 -0.470650	 2.027028
N	 1.186345	 1.123549	 0.746810
H	 1.422479	 0.925344	 -1.299479
H	 1.159816	 -0.599549	 -0.467579
C	 2.601227	 1.123558	 1.023245
H	 2.801295	 1.685955	 1.926708
H	 3.136609	 1.597291	 0.209915
H	 3.008159	 0.116937	 1.154700

	symmetry c1
}
set optking {
	frozen_dihedral = ("
		6 3 2 4
	")
}

ee = optimize('scf')
oeprop('DIPOLE', 'QUADRUPOLE', 'MULLIKEN_CHARGES')
f=open( 'psi4out.xyz', 'w' )
f.write( "22  " )
f.write( str(ee) + "\n" )
f.write( MOL.save_string_xyz() )
f.close()
--------------------------------------------------------------------------

    Molecular point group: c1
  Charge       = 0
  Multiplicity = 1
  Basis Set: CC-PVTZ
  Basis Set:
  @DF-RHF Final Energy:  -344.34638078229301
    Total Energy =                       -344.3463807822932949
    Molecular point group: c1
  Basis Set: CC-PVTZ
  Basis Set:
  Basis Set: CC-PVTZ
  Basis Set:
  @DF-RHF Final Energy:  -344.34707865884855
    Total Energy =                       -344.3470786588486590
  Basis Set: CC-PVTZ
  Basis Set:
  Basis Set: CC-PVTZ
  Basis Set:
  @DF-RHF Final Energy:  -344.34717069366320
    Total Energy =                       -344.3471706936634291
  Basis Set: CC-PVTZ
  Basis Set:
  Charge       = 0
  Multiplicity = 1
  Basis Set: CC-PVTZ
  Basis Set:

    Orbital Energies (a.u.)
    -----------------------

    Doubly Occupied:

       1A    -15.537292     2A    -15.537044     3A    -11.237510
       4A    -11.237320     5A    -11.236699     6A    -11.236610
       7A    -11.234119     8A    -11.234101     9A     -1.256434
      10A     -1.205142    11A     -1.025379    12A     -0.992407
      13A     -0.912352    14A     -0.867446    15A     -0.836699
      16A     -0.756052    17A     -0.666551    18A     -0.636689
      19A     -0.631513    20A     -0.626255    21A     -0.622112
      22A     -0.581915    23A     -0.552071    24A     -0.547231
      25A     -0.541864    26A     -0.519387    27A     -0.497747
      28A     -0.488562    29A     -0.465078    30A     -0.456642
      31A     -0.352096    32A     -0.347445

  @DF-RHF Final Energy:  -344.34717308043605

   => Energetics <=

    Nuclear Repulsion Energy =            421.7838200947383029
    One-Electron Energy =               -1302.5104549877764839
    Two-Electron Energy =                 536.3794618126019031
    DFT Exchange-Correlation Energy =       0.0000000000000000
    Empirical Dispersion Energy =           0.0000000000000000
    PCM Polarization Energy =               0.0000000000000000
    EFP Energy =                            0.0000000000000000
    Total Energy =                       -344.3471730804362778
    Molecular point group: c1
  Basis Set: CC-PVTZ
  Basis Set:

  -Total Gradient:
     Atom            X                  Y                   Z
    ------   -----------------  -----------------  -----------------
       1       -0.000014575458    -0.000015659684     0.000010775472
       2        0.000167501488    -0.004994414001    -0.000642322572
       3       -0.000504224187    -0.002998424554     0.002539739259
       4       -0.000019218976     0.004883988573     0.000032333478
       5        0.000002820602     0.000017796087     0.000011146027
       6        0.000245461118     0.003195899759    -0.001929196678
       7        0.000006851604    -0.000133811954     0.000117775580
       8       -0.000030361005     0.000020789875    -0.000003892896
       9       -0.000009657017    -0.000001577100    -0.000008725959
      10        0.000031694181    -0.000096315802    -0.000055157453
      11        0.000014789159     0.000016515710     0.000007870710
      12        0.000039268723    -0.000007773310    -0.000002922733
      13        0.000051552968     0.000081445474    -0.000093736622
      14       -0.000027365636    -0.000000053946    -0.000021693007
      15        0.000030198684    -0.000022513454     0.000021768767
      16       -0.000003398237     0.000024226815     0.000003952911
      17        0.000073765055     0.000011374875     0.000002257497
      18       -0.000037050786     0.000029860087     0.000011667047
      19       -0.000001230190    -0.000011725055    -0.000008754341
      20       -0.000006935748     0.000001829499     0.000004062899
      21       -0.000009476482    -0.000001751125     0.000001539617
      22       -0.000000409863     0.000000293230     0.000001512998

  **** Optimization is complete! (in 4 steps) ****
    Final optimized geometry and variables:
    Molecular point group: c1

    Geometry (in Angstrom), charge = 0, multiplicity = 1:

    H           -3.187566913877    -1.440408910153    -0.038680952670
    C           -2.713514802451    -0.575824537928    -0.487447810952
    N           -1.287981516875    -0.568032762516    -0.225672750269
    H           -2.901678259040    -0.580370898030    -1.552854503455
    H           -3.205525594818     0.317246303195    -0.098428128073
    C           -0.967516969170     0.108810879198     1.013210525513
    C           -0.515693257442    -0.004470464539    -1.314880761331
    H           -1.257602239188     1.162373251621     0.973248246898
    H           -1.524976102047    -0.352325298541     1.820784308214
    C            0.516251676796     0.013970190438     1.313839449983
    H           -0.730956153083    -0.557061520856    -2.221097842305
    H           -0.775886260208     1.042755340878    -1.494983426588
    C            0.970297122929    -0.098708567947    -1.021467716399
    H            0.734049597649     0.573176244134     2.216224070749
    H            0.776175413628    -1.031837711777     1.502757295433
    N            1.292382234834     0.563409718679     0.223747689655
    H            1.523486835021     0.375188131256    -1.823938705896
    H            1.260075490020    -1.153481717294    -0.998780389037
    C            2.707205000080     0.557278476750     0.498846584812
    H            2.909937703271     1.114618502495     1.404949583307
    H            3.243634472863     1.033119739931    -0.312658721138
    H            3.111064810814    -0.451330591486     0.625199056596

  Mulliken Charges: (a.u.)
   Center  Symbol    Alpha    Beta     Spin     Total
       1     H     0.44892  0.44892  0.00000  0.10217
       2     C     3.09582  3.09582  0.00000 -0.19164
       3     N     3.61541  3.61541  0.00000 -0.23082
       4     H     0.45573  0.45573  0.00000  0.08854
       5     H     0.46729  0.46729  0.00000  0.06542
       6     C     3.03628  3.03628  0.00000 -0.07255
       7     C     3.03423  3.03423  0.00000 -0.06845
       8     H     0.46724  0.46724  0.00000  0.06552
       9     H     0.45355  0.45355  0.00000  0.09289
      10     C     3.03658  3.03658  0.00000 -0.07317
      11     H     0.45376  0.45376  0.00000  0.09248
      12     H     0.46881  0.46881  0.00000  0.06239
      13     C     3.03672  3.03672  0.00000 -0.07343
      14     H     0.45393  0.45393  0.00000  0.09215
      15     H     0.46813  0.46813  0.00000  0.06375
      16     N     3.61285  3.61285  0.00000 -0.22570
      17     H     0.45394  0.45394  0.00000  0.09211
      18     H     0.46835  0.46835  0.00000  0.06330
      19     C     3.09850  3.09850  0.00000 -0.19699
      20     H     0.45198  0.45198  0.00000  0.09603
      21     H     0.45200  0.45200  0.00000  0.09600
      22     H     0.47000  0.47000  0.00000  0.06000

   Total alpha = 32.00000, Total beta = 32.00000, Total charge = -0.00000
