  ==> Input File <==

--------------------------------------------------------------------------
set {
	reference rhf
	basis 6-31G*
}

set_num_threads( 1 )
memory 2 gb

molecule MOL {
0 1

H	 5.011770	 2.061459	 -0.892820
C	 4.241837	 1.816575	 -1.617911
C	 3.004558	 1.235438	 -0.934832
H	 3.996725	 2.725264	 -2.159710
H	 4.667598	 1.112292	 -2.327497
C	 1.900666	 0.872348	 -1.930524
H	 2.621847	 1.952808	 -0.216144
H	 3.288217	 0.347132	 -0.372566
C	 0.655938	 0.271165	 -1.277456
H	 1.612842	 1.754162	 -2.491955
H	 2.291277	 0.153779	 -2.647547
C	 -0.173102	 1.264122	 -0.476224
H	 -0.002133	 -0.134047	 -2.044604
H	 0.919089	 -0.571009	 -0.641319
C	 -1.181045	 0.701995	 0.511084
O	 -0.054274	 2.443038	 -0.626035
C	 -2.285934	 -0.139295	 -0.145128
H	 -1.614143	 1.544893	 1.036121
H	 -0.649039	 0.092733	 1.239407
C	 -3.651768	 0.085446	 0.506485
H	 -2.346596	 0.110469	 -1.202272
H	 -2.034737	 -1.195320	 -0.088721
C	 -4.759797	 -0.746382	 -0.137905
H	 -3.908762	 1.140117	 0.445781
H	 -3.588286	 -0.154158	 1.565709
H	 -4.868882	 -0.505166	 -1.191300
H	 -4.548009	 -1.809175	 -0.062213
H	 -5.715422	 -0.564821	 0.343442

	symmetry c1
}
set optking {
	frozen_dihedral = ("
		10 6 3 2,
		16 12 15 17
	")
}

ee = energy('scf')
oeprop('DIPOLE', 'QUADRUPOLE', 'MULLIKEN_CHARGES')
f=open( 'psi4out.xyz', 'w' )
f.write( "28  " )
f.write( str(ee) + "\n" )
f.write( MOL.save_string_xyz() )
f.close()
--------------------------------------------------------------------------

    Molecular point group: c1

    Geometry (in Angstrom), charge = 0, multiplicity = 1:

       Center              X                  Y                   Z               Mass
    ------------   -----------------  -----------------  -----------------  -----------------
           H          5.242229923975     1.276733066486    -0.274804306657     1.007825032070
           C          4.472296923975     1.031849066486    -0.999895306657    12.000000000000
           C          3.235017923975     0.450712066486    -0.316816306657    12.000000000000
           H          4.227184923975     1.940538066486    -1.541694306657     1.007825032070
           H          4.898057923975     0.327566066486    -1.709481306657     1.007825032070
           C          2.131125923975     0.087622066486    -1.312508306657    12.000000000000
           H          2.852306923975     1.168082066486     0.401871693343     1.007825032070
           H          3.518676923975    -0.437593933514     0.245449693343     1.007825032070
           C          0.886397923975    -0.513560933514    -0.659440306657    12.000000000000
           H          1.843301923975     0.969436066486    -1.873939306657     1.007825032070
           H          2.521736923975    -0.630946933514    -2.029531306657     1.007825032070
           C          0.057357923975     0.479396066486     0.141791693343    12.000000000000
           H          0.228326923975    -0.918772933514    -1.426588306657     1.007825032070
           H          1.149548923975    -1.355734933514    -0.023303306657     1.007825032070
           C         -0.950585076025    -0.082730933514     1.129099693343    12.000000000000
           O          0.176185923975     1.658312066486    -0.008019306657    15.994914619560
           C         -2.055474076025    -0.924020933514     0.472887693343    12.000000000000
           H         -1.383683076025     0.760167066486     1.654136693343     1.007825032070
           H         -0.418579076025    -0.691992933514     1.857422693343     1.007825032070
           C         -3.421308076025    -0.699279933514     1.124500693343    12.000000000000
           H         -2.116136076025    -0.674256933514    -0.584256306657     1.007825032070
           H         -1.804277076025    -1.980045933514     0.529294693343     1.007825032070
           C         -4.529337076025    -1.531107933514     0.480110693343    12.000000000000
           H         -3.678302076025     0.355391066486     1.063796693343     1.007825032070
           H         -3.357826076025    -0.938883933514     2.183724693343     1.007825032070
           H         -4.638422076025    -1.289891933514    -0.573284306657     1.007825032070
           H         -4.317549076025    -2.593900933514     0.555802693343     1.007825032070
           H         -5.484962076025    -1.349546933514     0.961457693343     1.007825032070

  Charge       = 0
  Multiplicity = 1
  Basis Set: 6-31G*
  Basis Set:

    Orbital Energies (a.u.)
    -----------------------

    Doubly Occupied:

       1A    -20.547919     2A    -11.322051     3A    -11.231868
       4A    -11.229869     5A    -11.227588     6A    -11.225280
       7A    -11.216499     8A    -11.215309     9A    -11.212339
      10A    -11.205726    11A     -1.393104    12A     -1.094841
      13A     -1.077320    14A     -1.022187    15A     -0.990418
      16A     -0.906952    17A     -0.872795    18A     -0.809260
      19A     -0.799733    20A     -0.723627    21A     -0.671231
      22A     -0.647019    23A     -0.628915    24A     -0.618816
      25A     -0.609285    26A     -0.586113    27A     -0.581856
      28A     -0.574282    29A     -0.539958    30A     -0.529671
      31A     -0.522942    32A     -0.508454    33A     -0.502181
      34A     -0.480931    35A     -0.480453    36A     -0.471959
      37A     -0.469750    38A     -0.464730    39A     -0.455463
      40A     -0.392342

  @DF-RHF Final Energy:  -426.16556531158710

   => Energetics <=

    Nuclear Repulsion Energy =            531.8104548071743238
    One-Electron Energy =               -1631.8299991225744634
    Two-Electron Energy =                 673.8539790038144019
    DFT Exchange-Correlation Energy =       0.0000000000000000
    Empirical Dispersion Energy =           0.0000000000000000
    PCM Polarization Energy =               0.0000000000000000
    EFP Energy =                            0.0000000000000000
    Total Energy =                       -426.1655653115858513

  Mulliken Charges: (a.u.)
   Center  Symbol    Alpha    Beta     Spin     Total
       1     H     0.41935  0.41935  0.00000  0.16131
       2     C     3.24011  3.24011  0.00000 -0.48022
       3     C     3.15634  3.15634  0.00000 -0.31267
       4     H     0.41831  0.41831  0.00000  0.16338
       5     H     0.42361  0.42361  0.00000  0.15278
       6     C     3.14920  3.14920  0.00000 -0.29841
       7     H     0.41048  0.41048  0.00000  0.17903
       8     H     0.42768  0.42768  0.00000  0.14464
       9     C     3.21094  3.21094  0.00000 -0.42188
      10     H     0.40667  0.40667  0.00000  0.18666
      11     H     0.42192  0.42192  0.00000  0.15616
      12     C     2.73575  2.73575  0.00000  0.52850
      13     H     0.40279  0.40279  0.00000  0.19442
      14     H     0.41317  0.41317  0.00000  0.17366
      15     C     3.20157  3.20157  0.00000 -0.40314
      16     O     4.26650  4.26650  0.00000 -0.53299
      17     C     3.16206  3.16206  0.00000 -0.32413
      18     H     0.39862  0.39862  0.00000  0.20275
      19     H     0.41099  0.41099  0.00000  0.17802
      20     C     3.15392  3.15392  0.00000 -0.30785
      21     H     0.41670  0.41670  0.00000  0.16660
      22     H     0.41740  0.41740  0.00000  0.16520
      23     C     3.24084  3.24084  0.00000 -0.48168
      24     H     0.41647  0.41647  0.00000  0.16705
      25     H     0.42044  0.42044  0.00000  0.15913
      26     H     0.41998  0.41998  0.00000  0.16003
      27     H     0.42137  0.42137  0.00000  0.15727
      28     H     0.41680  0.41680  0.00000  0.16639

   Total alpha = 40.00000, Total beta = 40.00000, Total charge = -0.00000
