  ==> Input File <==

--------------------------------------------------------------------------
set {
	reference rhf
	basis cc-pvtz
}

set_num_threads( 4 )
memory 2 gb

molecule MOL {
0 1

O	 -1.510770	 1.240811	 -0.054933
C	 -1.081510	 0.147522	 0.122720
C	 0.327029	 -0.064006	 0.641890
C	 -1.903028	 -1.084121	 -0.174656
C	 1.349460	 -0.017068	 -0.500215
H	 0.399029	 -1.014606	 1.159950
H	 0.538021	 0.726928	 1.350471
C	 2.327929	 -1.185054	 -0.453834
H	 0.832408	 -0.018487	 -1.455460
H	 1.891328	 0.919542	 -0.441342
H	 3.045170	 -1.121769	 -1.263519
H	 1.811258	 -2.134825	 -0.541797
H	 2.880371	 -1.193368	 0.479231
H	 -1.341891	 -1.779207	 -0.789259
H	 -2.820449	 -0.808163	 -0.671328
H	 -2.133314	 -1.593056	 0.755831

	symmetry c1
}
set optking {
	frozen_dihedral = ("
		9 5 3 2
	")
}

ee = optimize('scf')
oeprop('DIPOLE', 'QUADRUPOLE', 'MULLIKEN_CHARGES')
f=open( 'psi4out.xyz', 'w' )
f.write( "16  " )
f.write( str(ee) + "\n" )
f.write( MOL.save_string_xyz() )
f.close()
--------------------------------------------------------------------------

    Molecular point group: c1
  Charge       = 0
  Multiplicity = 1
  Basis Set: CC-PVTZ
  Basis Set:
  @DF-RHF Final Energy:  -270.12389882950333
    Total Energy =                       -270.1238988295032755
    Molecular point group: c1
  Basis Set: CC-PVTZ
  Basis Set:
  Basis Set: CC-PVTZ
  Basis Set:
  @DF-RHF Final Energy:  -270.12414314515627
    Total Energy =                       -270.1241431451564949
  Basis Set: CC-PVTZ
  Basis Set:
  Basis Set: CC-PVTZ
  Basis Set:
  @DF-RHF Final Energy:  -270.12444943351579
    Total Energy =                       -270.1244494335156219
  Basis Set: CC-PVTZ
  Basis Set:
  Basis Set: CC-PVTZ
  Basis Set:
  @DF-RHF Final Energy:  -270.12450473820923
    Total Energy =                       -270.1245047382093389
  Basis Set: CC-PVTZ
  Basis Set:
  @DF-RHF Final Energy:  -270.12455643187070
    Total Energy =                       -270.1245564318708148
  @DF-RHF Final Energy:  -270.12459494435865
    Total Energy =                       -270.1245949443587619
  Basis Set: CC-PVTZ
  Basis Set:
  @DF-RHF Final Energy:  -270.12462695989495
    Total Energy =                       -270.1246269598948402
  Basis Set: CC-PVTZ
  Basis Set:
  Basis Set: CC-PVTZ
  Basis Set:
  @DF-RHF Final Energy:  -270.12463190398711
    Total Energy =                       -270.1246319039871651
  Basis Set: CC-PVTZ
  Basis Set:
  Basis Set: CC-PVTZ
  Basis Set:
  @DF-RHF Final Energy:  -270.12463394660409
    Total Energy =                       -270.1246339466039217
  Basis Set: CC-PVTZ
  Basis Set:
  Charge       = 0
  Multiplicity = 1
  Basis Set: CC-PVTZ
  Basis Set:

    Orbital Energies (a.u.)
    -----------------------

    Doubly Occupied:

       1A    -20.536963     2A    -11.319580     3A    -11.233853
       4A    -11.228543     5A    -11.227196     6A    -11.220644
       7A     -1.396907     8A     -1.083834     9A     -1.012925
      10A     -0.952579    11A     -0.833687    12A     -0.736758
      13A     -0.657013    14A     -0.653446    15A     -0.615407
      16A     -0.601964    17A     -0.585727    18A     -0.561402
      19A     -0.540498    20A     -0.518534    21A     -0.504664
      22A     -0.483537    23A     -0.476460    24A     -0.400153

  @DF-RHF Final Energy:  -270.12463433454610

   => Energetics <=

    Nuclear Repulsion Energy =            238.3309976112585673
    One-Electron Energy =                -838.1467144023133642
    Two-Electron Energy =                 329.6910824565086955
    DFT Exchange-Correlation Energy =       0.0000000000000000
    Empirical Dispersion Energy =           0.0000000000000000
    PCM Polarization Energy =               0.0000000000000000
    EFP Energy =                            0.0000000000000000
    Total Energy =                       -270.1246343345461014
    Molecular point group: c1
  Basis Set: CC-PVTZ
  Basis Set:

  -Total Gradient:
     Atom            X                  Y                   Z
    ------   -----------------  -----------------  -----------------
       1       -0.000006578504     0.000016989588     0.000007026848
       2       -0.000221194564    -0.001892788971    -0.000090410649
       3        0.000316719464     0.003205923331    -0.000000193035
       4       -0.000014511132     0.000006654817     0.000021592714
       5       -0.000022213308    -0.003917369251     0.000207884587
       6       -0.000007297844    -0.000015691232     0.000012370800
       7       -0.000009617228    -0.000005316449     0.000014567081
       8        0.000006830372     0.000000798246     0.000003167308
       9       -0.000043948637     0.002593543373    -0.000164597487
      10        0.000001054921    -0.000000199566    -0.000006078423
      11       -0.000003595903     0.000006159469    -0.000002783223
      12       -0.000002032767     0.000003148358     0.000002813518
      13       -0.000005673093     0.000000868442    -0.000000556440
      14        0.000011802661    -0.000001037835    -0.000001562817
      15        0.000002676119     0.000006900749     0.000005217211
      16       -0.000002420557    -0.000008583068    -0.000008457992

  **** Optimization is complete! (in 10 steps) ****
    Final optimized geometry and variables:
    Molecular point group: c1

    Geometry (in Angstrom), charge = 0, multiplicity = 1:

    O           -1.523633449183     1.410132759820     0.246253787616
    C           -1.002720555784     0.342588952625     0.241523429366
    C            0.429166932705     0.153745944540     0.694912242475
    C           -1.741128574937    -0.892388246300    -0.222397077193
    C            1.406476590028     0.093646392791    -0.504657575276
    H            0.493851629036    -0.768594089336     1.263119999749
    H            0.681997749197     0.970541690908     1.354958721336
    C            2.416187199495    -1.043900347481    -0.411626135340
    H            0.854798426498     0.022789616431    -1.436314641758
    H            1.933210648769     1.038167491571    -0.563749304721
    H            3.100646497727    -1.026495473903    -1.251547906141
    H            1.921343002259    -2.009334996133    -0.405415542677
    H            3.003319920203    -0.968773709850     0.497258425891
    H           -1.126600525686    -1.496976411936    -0.878680702452
    H           -2.654341895514    -0.610644504139    -0.723687719485
    H           -1.982335408643    -1.500259397839     0.643930306778

  Mulliken Charges: (a.u.)
   Center  Symbol    Alpha    Beta     Spin     Total
       1     O     4.17557  4.17557  0.00000 -0.35115
       2     C     2.85742  2.85742  0.00000  0.28516
       3     C     3.09923  3.09923  0.00000 -0.19846
       4     C     3.15683  3.15683  0.00000 -0.31366
       5     C     3.09683  3.09683  0.00000 -0.19365
       6     H     0.45175  0.45175  0.00000  0.09650
       7     H     0.43691  0.43691  0.00000  0.12619
       8     C     3.14754  3.14754  0.00000 -0.29509
       9     H     0.44920  0.44920  0.00000  0.10160
      10     H     0.44063  0.44063  0.00000  0.11875
      11     H     0.44675  0.44675  0.00000  0.10649
      12     H     0.45589  0.45589  0.00000  0.08821
      13     H     0.45179  0.45179  0.00000  0.09642
      14     H     0.45080  0.45080  0.00000  0.09841
      15     H     0.43542  0.43542  0.00000  0.12917
      16     H     0.44744  0.44744  0.00000  0.10512

   Total alpha = 24.00000, Total beta = 24.00000, Total charge = -0.00000
