  ==> Input File <==

--------------------------------------------------------------------------
set {
	reference rhf
	basis 6-31G*
}

set_num_threads( 1 )
memory 2 gb

molecule MOL {
0 1

H	 3.163243	 -0.056401	 0.531401
N	 2.434251	 -0.367735	 -0.081097
C	 1.267428	 0.496480	 0.024474
H	 2.204217	 -1.303560	 0.194999
C	 -0.016086	 -0.325158	 -0.029487
H	 1.288818	 1.183521	 -0.816092
H	 1.267576	 1.109062	 0.929528
C	 -1.282277	 0.529072	 0.046735
H	 -0.012495	 -0.908639	 -0.945788
H	 -0.015903	 -1.041248	 0.791956
C	 -2.563920	 -0.301775	 -0.006060
H	 -1.284084	 1.244622	 -0.773004
H	 -1.271387	 1.115393	 0.963286
H	 -2.621848	 -0.873522	 -0.927727
H	 -3.445135	 0.329952	 0.047812
H	 -2.609542	 -1.004582	 0.821105

	symmetry c1
}
set optking {
	frozen_dihedral = ("
		6 3 5 9,
		12 8 5 9
	")
}

ee = energy('scf')
oeprop('DIPOLE', 'QUADRUPOLE', 'MULLIKEN_CHARGES')
f=open( 'psi4out.xyz', 'w' )
f.write( "16  " )
f.write( str(ee) + "\n" )
f.write( MOL.save_string_xyz() )
f.close()
--------------------------------------------------------------------------

    Molecular point group: c1

    Geometry (in Angstrom), charge = 0, multiplicity = 1:

       Center              X                  Y                   Z               Mass
    ------------   -----------------  -----------------  -----------------  -----------------
           H          3.168906106452    -0.048561235802     0.529811030978     1.007825032070
           N          2.439914106452    -0.359895235802    -0.082686969022    14.003074004780
           C          1.273091106452     0.504319764198     0.022884030978    12.000000000000
           H          2.209880106452    -1.295720235802     0.193409030978     1.007825032070
           C         -0.010422893548    -0.317318235802    -0.031076969022    12.000000000000
           H          1.294481106452     1.191360764198    -0.817681969022     1.007825032070
           H          1.273239106452     1.116901764198     0.927938030978     1.007825032070
           C         -1.276613893548     0.536911764198     0.045145030978    12.000000000000
           H         -0.006831893548    -0.900799235802    -0.947377969022     1.007825032070
           H         -0.010239893548    -1.033408235802     0.790366030978     1.007825032070
           C         -2.558256893548    -0.293935235802    -0.007649969022    12.000000000000
           H         -1.278420893548     1.252461764198    -0.774593969022     1.007825032070
           H         -1.265723893548     1.123232764198     0.961696030978     1.007825032070
           H         -2.616184893548    -0.865682235802    -0.929316969022     1.007825032070
           H         -3.439471893548     0.337791764198     0.046222030978     1.007825032070
           H         -2.603878893548    -0.996742235802     0.819515030978     1.007825032070

  Charge       = 0
  Multiplicity = 1
  Basis Set: 6-31G*
  Basis Set:

    Orbital Energies (a.u.)
    -----------------------

    Doubly Occupied:

       1A    -15.529922     2A    -11.238856     3A    -11.218326
       4A    -11.215954     5A    -11.210493     6A     -1.176744
       7A     -1.062134     8A     -0.960003     9A     -0.845924
      10A     -0.798537    11A     -0.656017    12A     -0.645947
      13A     -0.600284    14A     -0.577910    15A     -0.570721
      16A     -0.521254    17A     -0.510669    18A     -0.474290
      19A     -0.469997    20A     -0.461188    21A     -0.377916

  @DF-RHF Final Energy:  -212.31324518418722

   => Energetics <=

    Nuclear Repulsion Energy =            186.5762024271927544
    One-Electron Energy =                -655.5327951396719754
    Two-Electron Energy =                 256.6433475282920540
    DFT Exchange-Correlation Energy =       0.0000000000000000
    Empirical Dispersion Energy =           0.0000000000000000
    PCM Polarization Energy =               0.0000000000000000
    EFP Energy =                            0.0000000000000000
    Total Energy =                       -212.3132451841871671

  Mulliken Charges: (a.u.)
   Center  Symbol    Alpha    Beta     Spin     Total
       1     H     0.33299  0.33299  0.00000  0.33403
       2     N     3.92745  3.92745  0.00000 -0.85491
       3     C     3.04797  3.04797  0.00000 -0.09593
       4     H     0.33335  0.33335  0.00000  0.33329
       5     C     3.16621  3.16621  0.00000 -0.33242
       6     H     0.41986  0.41986  0.00000  0.16027
       7     H     0.43205  0.43205  0.00000  0.13591
       8     C     3.15448  3.15448  0.00000 -0.30896
       9     H     0.41519  0.41519  0.00000  0.16962
      10     H     0.42690  0.42690  0.00000  0.14620
      11     C     3.23922  3.23922  0.00000 -0.47843
      12     H     0.42049  0.42049  0.00000  0.15901
      13     H     0.42258  0.42258  0.00000  0.15484
      14     H     0.42058  0.42058  0.00000  0.15884
      15     H     0.41872  0.41872  0.00000  0.16256
      16     H     0.42196  0.42196  0.00000  0.15607

   Total alpha = 21.00000, Total beta = 21.00000, Total charge = -0.00000
