                              Psi4 1.0.54 Driver

  ==> Input File <==

--------------------------------------------------------------------------
set {
	reference rhf
	basis cc-pvtz
}

set_num_threads( 4 )
memory 2 gb

molecule MOL {
0 1

H	 -2.394085	 -1.682261	 0.770289
C	 -1.640597	 -0.997159	 0.443445
C	 -1.961230	 0.335528	 0.030777
C	 -0.357027	 -1.363475	 0.407493
H	 -2.984366	 0.661187	 0.047943
C	 -0.999985	 1.171744	 -0.373360
H	 -0.038788	 -2.344193	 0.700847
N	 0.640204	 -0.530428	 -0.000115
H	 -1.202795	 2.174454	 -0.688643
C	 0.398436	 0.768975	 -0.411125
C	 2.006991	 -1.033007	 -0.000020
O	 1.289698	 1.490685	 -0.767539
H	 2.182444	 -1.636914	 -0.880881
H	 2.678769	 -0.195442	 -0.002236
H	 2.183828	 -1.633244	 0.883082

	symmetry c1
}
set optking {
	frozen_dihedral = ("
		10 8 11 13
	")
}

ee,wfn = optimize('scf', return_wfn=True)
oeprop( wfn, 'DIPOLE', 'QUADRUPOLE', 'MULLIKEN_CHARGES')
f=open( 'psi4out.xyz', 'w' )
f.write( "15  " )
f.write( str(ee) + "\n" )
f.write( MOL.save_string_xyz() )
f.close()
--------------------------------------------------------------------------

    Molecular point group: c1
  Charge       = 0
  Multiplicity = 1
  Basis Set: CC-PVTZ
  Basis Set:
  @DF-RHF Final Energy:  -360.72263161700101
    Total Energy =                       -360.7226316170012979
    Molecular point group: c1
  Basis Set: CC-PVTZ
  Basis Set:
  Basis Set: CC-PVTZ
  Basis Set:
  @DF-RHF Final Energy:  -360.72271231258230
    Total Energy =                       -360.7227123125821890
  Basis Set: CC-PVTZ
  Basis Set:
  Basis Set: CC-PVTZ
  Basis Set:
  @DF-RHF Final Energy:  -360.72270747242266
    Total Energy =                       -360.7227074724223712
  Basis Set: CC-PVTZ
  Basis Set:
  Charge       = 0
  Multiplicity = 1
  Basis Set: CC-PVTZ
  Basis Set:

    Orbital Energies (a.u.)
    -----------------------

    Doubly Occupied:

       1A    -20.501810     2A    -15.616777     3A    -11.339197
       4A    -11.293458     5A    -11.264073     6A    -11.258156
       7A    -11.230453     8A    -11.228246     9A     -1.390584
      10A     -1.285801    11A     -1.118795    12A     -1.028952
      13A     -0.972405    14A     -0.875903    15A     -0.838644
      16A     -0.719228    17A     -0.702834    18A     -0.663549
      19A     -0.652763    20A     -0.625413    21A     -0.611899
      22A     -0.574493    23A     -0.556838    24A     -0.550634
      25A     -0.529768    26A     -0.483151    27A     -0.420372
      28A     -0.410594    29A     -0.310811

  @DF-RHF Final Energy:  -360.72272995431479

   => Energetics <=

    Nuclear Repulsion Energy =            358.5154033923272436
    One-Electron Energy =               -1200.3650629245898926
    Two-Electron Energy =                 481.1269295779478057
    DFT Exchange-Correlation Energy =       0.0000000000000000
    Empirical Dispersion Energy =           0.0000000000000000
    PCM Polarization Energy =               0.0000000000000000
    EFP Energy =                            0.0000000000000000
    Total Energy =                       -360.7227299543148433
    Molecular point group: c1
  Basis Set: CC-PVTZ
  Basis Set:

  -Total Gradient:
     Atom            X                  Y                   Z
    ------   -----------------  -----------------  -----------------
       1        0.000018040302     0.000010832591     0.000030850303
       2        0.000086514836    -0.000008635749    -0.000028119173
       3        0.000031207096     0.000056800996    -0.000051956202
       4       -0.000035293904    -0.000112688695    -0.000035936211
       5        0.000009767086     0.000012492202    -0.000005199964
       6       -0.000019158857     0.000069138006     0.000034016214
       7        0.000005696201     0.000015688354     0.000017225078
       8       -0.000251501085    -0.000487721413    -0.000537660869
       9       -0.000021653623     0.000022807362    -0.000019603826
      10        0.000074798068    -0.000061270468     0.000585385182
      11        0.000315289903     0.000750899999    -0.000142207117
      12        0.000010704384     0.000267340098    -0.000125739876
      13       -0.000175023614    -0.000494606197     0.000333640519
      14       -0.000002706703    -0.000034372385    -0.000019036794
      15       -0.000046680091    -0.000006704695    -0.000035657265

  **** Optimization is complete! (in 4 steps) ****
    Final optimized geometry and variables:
    Molecular point group: c1

    Geometry (in Angstrom), charge = 0, multiplicity = 1:

    H           -2.393090034215    -1.666591318945     0.854613298618
    C           -1.637842374755    -0.981412156347     0.532030832916
    C           -1.955435127440     0.353962713617     0.125929867976
    C           -0.354188097366    -1.349176841236     0.502428275999
    H           -2.978074753657     0.681191950574     0.143165861073
    C           -0.992074783947     1.191230244874    -0.271243797346
    H           -0.039075433396    -2.330674208849     0.795594230021
    N            0.645091254264    -0.513921051075     0.105765232087
    H           -1.192471041116     2.195614228850    -0.583098544674
    C            0.403969814874     0.782046683785    -0.315639017130
    C            2.014289534695    -1.008774366145     0.093623617196
    O            1.297344084012     1.493638601532    -0.686894753383
    H            2.194019112716    -1.621475968348    -0.781146102593
    H            2.686078154290    -0.170666373821     0.078626748038
    H            2.190159415493    -1.600743970666     0.980823536503

  Mulliken Charges: (a.u.)
   Center  Symbol    Alpha    Beta     Spin     Total
       1     H     0.41397  0.41397  0.00000  0.17206
       2     C     3.10303  3.10303  0.00000 -0.20606
       3     C     3.06171  3.06171  0.00000 -0.12342
       4     C     3.03312  3.03312  0.00000 -0.06625
       5     H     0.41838  0.41838  0.00000  0.16325
       6     C     3.11690  3.11690  0.00000 -0.23380
       7     H     0.42125  0.42125  0.00000  0.15751
       8     N     3.51189  3.51189  0.00000 -0.02378
       9     H     0.40893  0.40893  0.00000  0.18214
      10     C     2.84531  2.84531  0.00000  0.30938
      11     C     3.10459  3.10459  0.00000 -0.20917
      12     O     4.23645  4.23645  0.00000 -0.47290
      13     H     0.44713  0.44713  0.00000  0.10575
      14     H     0.42353  0.42353  0.00000  0.15294
      15     H     0.45382  0.45382  0.00000  0.09236

   Total alpha = 29.00000, Total beta = 29.00000, Total charge = -0.00000

*** Psi4 exiting successfully. Buy a developer a beer!
