  ==> Input File <==

--------------------------------------------------------------------------
set {
	reference rhf
	basis 6-31G*
}

set_num_threads( 1 )
memory 2 gb

molecule MOL {
0 1

O	 2.418992	 0.253684	 -0.938678
C	 1.705091	 0.115954	 0.001797
C	 0.381791	 -0.609817	 0.001258
O	 1.991192	 0.592910	 1.206702
C	 -0.823008	 0.326187	 0.001381
H	 0.371250	 -1.265087	 -0.865474
H	 0.370908	 -1.265746	 0.867490
C	 -2.149452	 -0.435131	 -0.000098
H	 -0.770201	 0.977095	 -0.865636
H	 -0.771220	 0.975655	 0.869608
C	 -3.368779	 0.488503	 -0.000883
H	 -2.193746	 -1.087250	 -0.871175
H	 -2.195311	 -1.087803	 0.870418
C	 -4.693822	 -0.272754	 -0.001129
H	 -3.325798	 1.139422	 -0.871284
H	 -3.326423	 1.139959	 0.869145
H	 -4.781274	 -0.907928	 -0.878124
H	 -5.538651	 0.408946	 -0.001420
H	 -4.781694	 -0.907783	 0.875984
C	 3.211818	 1.296915	 1.346001
H	 4.048687	 0.658653	 1.101460
H	 3.261761	 1.599216	 2.380406
H	 3.226233	 2.163935	 0.701350

	symmetry c1
}
set optking {
	frozen_dihedral = ("
		15 11 8 12,
		9 5 8 12,
		9 5 3 6,
		1 2 4 20
	")
}

ee = energy('scf')
oeprop('DIPOLE', 'QUADRUPOLE', 'MULLIKEN_CHARGES')
f=open( 'psi4out.xyz', 'w' )
f.write( "23  " )
f.write( str(ee) + "\n" )
f.write( MOL.save_string_xyz() )
f.close()
--------------------------------------------------------------------------

    Molecular point group: c1

    Geometry (in Angstrom), charge = 0, multiplicity = 1:

       Center              X                  Y                   Z               Mass
    ------------   -----------------  -----------------  -----------------  -----------------
           O          2.532979229596     0.045991600228    -1.128397760328    15.994914619560
           C          1.819078229596    -0.091738399772    -0.187922760328    12.000000000000
           C          0.495778229596    -0.817509399772    -0.188461760328    12.000000000000
           O          2.105179229596     0.385217600228     1.016982239672    15.994914619560
           C         -0.709020770404     0.118494600228    -0.188338760328    12.000000000000
           H          0.485237229596    -1.472779399772    -1.055193760328     1.007825032070
           H          0.484895229596    -1.473438399772     0.677770239672     1.007825032070
           C         -2.035464770404    -0.642823399772    -0.189817760328    12.000000000000
           H         -0.656213770404     0.769402600228    -1.055355760328     1.007825032070
           H         -0.657232770404     0.767962600228     0.679888239672     1.007825032070
           C         -3.254791770404     0.280810600228    -0.190602760328    12.000000000000
           H         -2.079758770404    -1.294942399772    -1.060894760328     1.007825032070
           H         -2.081323770404    -1.295495399772     0.680698239672     1.007825032070
           C         -4.579834770404    -0.480446399772    -0.190848760328    12.000000000000
           H         -3.211810770404     0.931729600228    -1.061003760328     1.007825032070
           H         -3.212435770404     0.932266600228     0.679425239672     1.007825032070
           H         -4.667286770404    -1.115620399772    -1.067843760328     1.007825032070
           H         -5.424663770404     0.201253600228    -0.191139760328     1.007825032070
           H         -4.667706770404    -1.115475399772     0.686264239672     1.007825032070
           C          3.325805229596     1.089222600228     1.156281239672    12.000000000000
           H          4.162674229596     0.450960600228     0.911740239672     1.007825032070
           H          3.375748229596     1.391523600228     2.190686239672     1.007825032070
           H          3.340220229596     1.956242600228     0.511630239672     1.007825032070

  Charge       = 0
  Multiplicity = 1
  Basis Set: 6-31G*
  Basis Set:

    Orbital Energies (a.u.)
    -----------------------

    Doubly Occupied:

       1A    -20.603888     2A    -20.543733     3A    -11.370777
       4A    -11.280465     5A    -11.233496     6A    -11.229239
       7A    -11.222412     8A    -11.220234     9A    -11.212343
      10A     -1.468617    11A     -1.361307    12A     -1.097983
      13A     -1.045982    14A     -0.985086    15A     -0.934395
      16A     -0.848310    17A     -0.799454    18A     -0.773024
      19A     -0.693379    20A     -0.679731    21A     -0.672787
      22A     -0.653105    23A     -0.606620    24A     -0.594300
      25A     -0.581075    26A     -0.571825    27A     -0.540873
      28A     -0.534053    29A     -0.523795    30A     -0.507813
      31A     -0.490752    32A     -0.477627    33A     -0.470630
      34A     -0.468563    35A     -0.453686    36A     -0.427374

  @DF-RHF Final Energy:  -422.97454179855765

   => Energetics <=

    Nuclear Repulsion Energy =            454.2787549483086877
    One-Electron Energy =               -1476.1492254547285938
    Two-Electron Energy =                 598.8959287078620264
    DFT Exchange-Correlation Energy =       0.0000000000000000
    Empirical Dispersion Energy =           0.0000000000000000
    PCM Polarization Energy =               0.0000000000000000
    EFP Energy =                            0.0000000000000000
    Total Energy =                       -422.9745417985578797

  Mulliken Charges: (a.u.)
   Center  Symbol    Alpha    Beta     Spin     Total
       1     O     4.28453  4.28453  0.00000 -0.56906
       2     C     2.61799  2.61799  0.00000  0.76402
       3     C     3.19442  3.19442  0.00000 -0.38885
       4     O     4.30214  4.30214  0.00000 -0.60429
       5     C     3.16415  3.16415  0.00000 -0.32830
       6     H     0.40062  0.40062  0.00000  0.19877
       7     H     0.40492  0.40492  0.00000  0.19016
       8     C     3.15259  3.15259  0.00000 -0.30518
       9     H     0.41159  0.41159  0.00000  0.17681
      10     H     0.41012  0.41012  0.00000  0.17976
      11     C     3.15252  3.15252  0.00000 -0.30505
      12     H     0.42069  0.42069  0.00000  0.15862
      13     H     0.42146  0.42146  0.00000  0.15707
      14     C     3.23991  3.23991  0.00000 -0.47981
      15     H     0.42120  0.42120  0.00000  0.15759
      16     H     0.42175  0.42175  0.00000  0.15650
      17     H     0.42086  0.42086  0.00000  0.15827
      18     H     0.41805  0.41805  0.00000  0.16389
      19     H     0.42126  0.42126  0.00000  0.15748
      20     C     3.09247  3.09247  0.00000 -0.18494
      21     H     0.40874  0.40874  0.00000  0.18251
      22     H     0.40887  0.40887  0.00000  0.18227
      23     H     0.40912  0.40912  0.00000  0.18176

   Total alpha = 36.00000, Total beta = 36.00000, Total charge =  0.00000
