                              Psi4 1.0.54 Driver

  ==> Input File <==

--------------------------------------------------------------------------
set {
	reference rhf
	basis cc-pvtz
}

set_num_threads( 4 )
memory 2 gb

molecule MOL {
0 1

H	 -1.814137	 1.086277	 0.301022
N	 -1.851927	 0.161443	 -0.071573
C	 -0.561396	 -0.500007	 0.035200
H	 -2.134510	 0.239654	 -1.026227
C	 0.575129	 0.507849	 -0.048832
H	 -0.478089	 -1.200753	 -0.788956
H	 -0.456191	 -1.081816	 0.952176
C	 1.951750	 -0.141983	 0.035101
H	 0.478254	 1.061643	 -0.975981
H	 0.467676	 1.231891	 0.755499
H	 2.101550	 -0.848142	 -0.774949
H	 2.738260	 0.600794	 -0.026526
H	 2.078939	 -0.679792	 0.968824

	symmetry c1
}
set optking {
	frozen_dihedral = ("
		1 2 3 6
	")
}

ee,wfn = optimize('scf', return_wfn=True)
oeprop( wfn, 'DIPOLE', 'QUADRUPOLE', 'MULLIKEN_CHARGES')
f=open( 'psi4out.xyz', 'w' )
f.write( "13  " )
f.write( str(ee) + "\n" )
f.write( MOL.save_string_xyz() )
f.close()
--------------------------------------------------------------------------

    Molecular point group: c1
  Charge       = 0
  Multiplicity = 1
  Basis Set: CC-PVTZ
  Basis Set:
  @DF-RHF Final Energy:  -173.34931595128634
    Total Energy =                       -173.3493159512863429
    Molecular point group: c1
  Basis Set: CC-PVTZ
  Basis Set:
  Basis Set: CC-PVTZ
  Basis Set:
  @DF-RHF Final Energy:  -173.35043191188925
    Total Energy =                       -173.3504319118892738
  Basis Set: CC-PVTZ
  Basis Set:
  Basis Set: CC-PVTZ
  Basis Set:
  @DF-RHF Final Energy:  -173.35060242343238
    Total Energy =                       -173.3506024234324627
  Basis Set: CC-PVTZ
  Basis Set:
  Charge       = 0
  Multiplicity = 1
  Basis Set: CC-PVTZ
  Basis Set:

    Orbital Energies (a.u.)
    -----------------------

    Doubly Occupied:

       1A    -15.526269     2A    -11.238728     3A    -11.215152
       4A    -11.210165     5A     -1.178109     6A     -1.038560
       7A     -0.900463     8A     -0.807613     9A     -0.673661
      10A     -0.612707    11A     -0.606941    12A     -0.559658
      13A     -0.534494    14A     -0.507764    15A     -0.485906
      16A     -0.471397    17A     -0.381079

  @DF-RHF Final Energy:  -173.35060473300345

   => Energetics <=

    Nuclear Repulsion Energy =            131.8411954028806861
    One-Electron Energy =                -494.4862735369068787
    Two-Electron Energy =                 189.2944734010227137
    DFT Exchange-Correlation Energy =       0.0000000000000000
    Empirical Dispersion Energy =           0.0000000000000000
    PCM Polarization Energy =               0.0000000000000000
    EFP Energy =                            0.0000000000000000
    Total Energy =                       -173.3506047330035074
    Molecular point group: c1
  Basis Set: CC-PVTZ
  Basis Set:

  -Total Gradient:
     Atom            X                  Y                   Z
    ------   -----------------  -----------------  -----------------
       1        0.000663866254     0.001068618588    -0.002882166202
       2       -0.000613956796    -0.000859391103     0.003088701560
       3       -0.001177657431    -0.002188485756     0.001386688446
       4       -0.000028447872    -0.000007311859     0.000055994955
       5        0.000055486383    -0.000096085642    -0.000004976586
       6        0.001031622474     0.002074623692    -0.001654788388
       7        0.000048747387    -0.000021534698    -0.000000356621
       8       -0.000001806065     0.000044179266     0.000009675077
       9       -0.000007320395    -0.000002678721     0.000002795813
      10       -0.000009509530    -0.000024170961     0.000000169579
      11       -0.000006296617     0.000012573982     0.000023470405
      12        0.000041800666     0.000002516821    -0.000004012683
      13        0.000003471545    -0.000002853609    -0.000021195356

  **** Optimization is complete! (in 4 steps) ****
    Final optimized geometry and variables:
    Molecular point group: c1

    Geometry (in Angstrom), charge = 0, multiplicity = 1:

    H           -1.888137414111     1.042661726151     0.334767760858
    N           -1.895714513493     0.113145892086    -0.029999182594
    C           -0.569978975718    -0.488576551181     0.041949106885
    H           -2.196345806180     0.189621784640    -0.978135455323
    C            0.587785045024     0.503382535324    -0.034736106809
    H           -0.474400844841    -1.193179895353    -0.777192314997
    H           -0.489446885856    -1.059517401698     0.961515377017
    C            1.953641499562    -0.167561973659     0.061176019565
    H            0.516522023121     1.061317372208    -0.964692915259
    H            0.484722502520     1.228926451690     0.768841837211
    H            2.100841693846    -0.874095230531    -0.748966966677
    H            2.753752420253     0.561574248518     0.011976280563
    H            2.058525309091    -0.710558314113     0.994409206618

  Mulliken Charges: (a.u.)
   Center  Symbol    Alpha    Beta     Spin     Total
       1     H     0.43086  0.43086  0.00000  0.13828
       2     N     3.69040  3.69040  0.00000 -0.38079
       3     C     3.02084  3.02084  0.00000 -0.04167
       4     H     0.43075  0.43075  0.00000  0.13851
       5     C     3.08374  3.08374  0.00000 -0.16749
       6     H     0.45897  0.45897  0.00000  0.08205
       7     H     0.45736  0.45736  0.00000  0.08529
       8     C     3.15278  3.15278  0.00000 -0.30555
       9     H     0.45832  0.45832  0.00000  0.08336
      10     H     0.45855  0.45855  0.00000  0.08291
      11     H     0.45518  0.45518  0.00000  0.08965
      12     H     0.44793  0.44793  0.00000  0.10413
      13     H     0.45433  0.45433  0.00000  0.09134

   Total alpha = 17.00000, Total beta = 17.00000, Total charge =  0.00000

*** Psi4 exiting successfully. Buy a developer a beer!
