                              Psi4 1.0.54 Driver

  ==> Input File <==

--------------------------------------------------------------------------
set {
	reference rhf
	basis cc-pvtz
}

set_num_threads( 4 )
memory 2 gb

molecule MOL {
0 1

O	 -2.817697	 1.304178	 0.001046
C	 -2.664672	 0.129869	 0.003507
C	 -3.797908	 -0.860100	 -0.001145
O	 -1.481217	 -0.452708	 0.001092
H	 -4.408836	 -0.679689	 -0.875387
H	 -3.443486	 -1.878443	 -0.002770
H	 -4.412123	 -0.683688	 0.871605
C	 -0.332055	 0.384012	 -0.000250
C	 0.892252	 -0.506059	 -0.000295
H	 -0.360822	 1.020205	 -0.874146
H	 -0.359817	 1.021310	 0.872861
C	 1.662951	 -0.422947	 -1.314630
H	 0.582981	 -1.529814	 0.183952
H	 1.535568	 -0.219666	 0.825410
C	 2.902878	 -1.312426	 -1.337749
H	 1.008498	 -0.701316	 -2.136930
H	 1.959104	 0.607157	 -1.496714
C	 3.673973	 -1.228765	 -2.650540
H	 2.608016	 -2.342319	 -1.157654
H	 3.557711	 -1.035076	 -0.516556
H	 3.055314	 -1.533376	 -3.487987
H	 4.546908	 -1.870807	 -2.634026
H	 4.012087	 -0.215925	 -2.842078

	symmetry c1
}
set optking {
	frozen_dihedral = ("
		13 9 8 10
	")
}

ee,wfn = optimize('scf', return_wfn=True)
oeprop( wfn, 'DIPOLE', 'QUADRUPOLE', 'MULLIKEN_CHARGES')
f=open( 'psi4out.xyz', 'w' )
f.write( "23  " )
f.write( str(ee) + "\n" )
f.write( MOL.save_string_xyz() )
f.close()
--------------------------------------------------------------------------

    Molecular point group: c1
  Charge       = 0
  Multiplicity = 1
  Basis Set: CC-PVTZ
  Basis Set:
  @DF-RHF Final Energy:  -423.12896288641701
    Total Energy =                       -423.1289628864170709
    Molecular point group: c1
  Basis Set: CC-PVTZ
  Basis Set:
  Basis Set: CC-PVTZ
  Basis Set:
  @DF-RHF Final Energy:  -423.12912821181880
    Total Energy =                       -423.1291282118188519
  Basis Set: CC-PVTZ
  Basis Set:
  Basis Set: CC-PVTZ
  Basis Set:
  @DF-RHF Final Energy:  -423.12928685143373
    Total Energy =                       -423.1292868514337897
  Basis Set: CC-PVTZ
  Basis Set:
  Basis Set: CC-PVTZ
  Basis Set:
  @DF-RHF Final Energy:  -423.12940657982858
    Total Energy =                       -423.1294065798284691
  Basis Set: CC-PVTZ
  Basis Set:
  Basis Set: CC-PVTZ
  Basis Set:
  @DF-RHF Final Energy:  -423.12942803765958
    Total Energy =                       -423.1294280376599772
  Basis Set: CC-PVTZ
  Basis Set:
  Charge       = 0
  Multiplicity = 1
  Basis Set: CC-PVTZ
  Basis Set:

    Orbital Energies (a.u.)
    -----------------------

    Doubly Occupied:

       1A    -20.595571     2A    -20.529259     3A    -11.365957
       4A    -11.280044     5A    -11.230691     6A    -11.222327
       7A    -11.219471     8A    -11.218242     9A    -11.210380
      10A     -1.470431    11A     -1.363325    12A     -1.092794
      13A     -1.041830    14A     -1.003133    15A     -0.931508
      16A     -0.843355    17A     -0.800212    18A     -0.781657
      19A     -0.690825    20A     -0.684470    21A     -0.669537
      22A     -0.646117    23A     -0.609156    24A     -0.584354
      25A     -0.580729    26A     -0.573871    27A     -0.559392
      28A     -0.535507    29A     -0.528124    30A     -0.501683
      31A     -0.501059    32A     -0.474369    33A     -0.471367
      34A     -0.466358    35A     -0.447595    36A     -0.439007

  @DF-RHF Final Energy:  -423.12942862755312

   => Energetics <=

    Nuclear Repulsion Energy =            453.3740791339317866
    One-Electron Energy =               -1474.6796101679728963
    Two-Electron Energy =                 598.1761024064877574
    DFT Exchange-Correlation Energy =       0.0000000000000000
    Empirical Dispersion Energy =           0.0000000000000000
    PCM Polarization Energy =               0.0000000000000000
    EFP Energy =                            0.0000000000000000
    Total Energy =                       -423.1294286275533523
    Molecular point group: c1
  Basis Set: CC-PVTZ
  Basis Set:

  -Total Gradient:
     Atom            X                  Y                   Z
    ------   -----------------  -----------------  -----------------
       1        0.000050852171    -0.000027870895    -0.000006545273
       2       -0.000047112296    -0.000007098832     0.000008993150
       3        0.000002886579     0.000000981104     0.000022188842
       4        0.000037640932     0.000077065715    -0.000081814908
       5        0.000024015077     0.000004609847     0.000011596799
       6       -0.000001774206    -0.000000450648    -0.000000569470
       7        0.000001710812    -0.000000928703    -0.000014829512
       8        0.001512327073     0.002072147153     0.001068576526
       9        0.000009310279    -0.000034562859     0.002575796870
      10       -0.001312038335    -0.001770121291    -0.001224757034
      11        0.000020313481     0.000044721291     0.000014018879
      12       -0.000025410996    -0.000006727574     0.000013868865
      13       -0.000280284484    -0.000343008820    -0.002388200350
      14       -0.000000027114    -0.000015106392     0.000007635889
      15        0.000005709728     0.000009927974     0.000005603555
      16        0.000002728506    -0.000011925251     0.000000492758
      17       -0.000013534747     0.000005130566    -0.000011338757
      18        0.000009808235     0.000001231841     0.000001817629
      19        0.000000503960     0.000006260149    -0.000005031662
      20        0.000001680636    -0.000004740729     0.000001463516
      21       -0.000001281034     0.000000254335     0.000003031005
      22        0.000001147401     0.000000958875    -0.000002254089
      23        0.000000828346    -0.000000746850     0.000000256774

  **** Optimization is complete! (in 6 steps) ****
    Final optimized geometry and variables:
    Molecular point group: c1

    Geometry (in Angstrom), charge = 0, multiplicity = 1:

    O           -2.577098465472     1.654334094979     0.589952808838
    C           -2.428517442795     0.479194255090     0.583728748236
    C           -3.566703993946    -0.505310616586     0.561209237045
    O           -1.248205999527    -0.108398456778     0.596410594228
    H           -4.167141127729    -0.316553462464    -0.318555238404
    H           -3.217679684063    -1.525573413956     0.557441070450
    H           -4.189468008627    -0.330868638109     1.428334442518
    C           -0.093337470881     0.728194446574     0.619147399373
    C            1.145863691293    -0.167094488890     0.601540728667
    H           -0.134712209976     1.369761961871    -0.249039383270
    H           -0.138128438312     1.350622337488     1.499933784530
    C            1.910889644906    -0.114738977116    -0.719815312529
    H            0.828886625445    -1.186523650375     0.783392551366
    H            1.808083524198     0.112023421257     1.413452163429
    C            3.131206770195    -1.029407610400    -0.743772653326
    H            1.239437479161    -0.387552469387    -1.530365328389
    H            2.225212190640     0.907694321435    -0.915147420472
    C            3.895610888454    -0.973316046482    -2.062114525096
    H            2.816353825777    -2.051619717771    -0.552727253128
    H            3.797846950495    -0.759433519815     0.070852575730
    H            3.264815349474    -1.271020342003    -2.893022967628
    H            4.754498984073    -1.634145469764    -2.045991655233
    H            4.254427842131     0.030375004240    -2.264174782439

  Mulliken Charges: (a.u.)
   Center  Symbol    Alpha    Beta     Spin     Total
       1     O     4.20285  4.20285  0.00000 -0.40570
       2     C     2.81194  2.81194  0.00000  0.37611
       3     C     3.13896  3.13896  0.00000 -0.27793
       4     O     4.14795  4.14795  0.00000 -0.29591
       5     H     0.44224  0.44224  0.00000  0.11552
       6     H     0.44236  0.44236  0.00000  0.11529
       7     H     0.44202  0.44202  0.00000  0.11595
       8     C     2.98496  2.98496  0.00000  0.03008
       9     C     3.09160  3.09160  0.00000 -0.18321
      10     H     0.45344  0.45344  0.00000  0.09311
      11     H     0.44854  0.44854  0.00000  0.10292
      12     C     3.09241  3.09241  0.00000 -0.18482
      13     H     0.44657  0.44657  0.00000  0.10687
      14     H     0.44817  0.44817  0.00000  0.10365
      15     C     3.08658  3.08658  0.00000 -0.17315
      16     H     0.45163  0.45163  0.00000  0.09673
      17     H     0.45333  0.45333  0.00000  0.09335
      18     C     3.14953  3.14953  0.00000 -0.29907
      19     H     0.45348  0.45348  0.00000  0.09304
      20     H     0.45423  0.45423  0.00000  0.09154
      21     H     0.45461  0.45461  0.00000  0.09077
      22     H     0.44790  0.44790  0.00000  0.10420
      23     H     0.45468  0.45468  0.00000  0.09064

   Total alpha = 36.00000, Total beta = 36.00000, Total charge =  0.00000

*** Psi4 exiting successfully. Buy a developer a beer!
