  ==> Input File <==

--------------------------------------------------------------------------
set {
	reference rhf
	basis 6-31G*
}

set_num_threads( 4 )
memory 2 gb

molecule MOL {
0 1

O	 1.486591	 0.360120	 0.998082
C	 0.861134	 0.272526	 -0.014869
C	 -0.623889	 -0.118271	 -0.003699
C	 1.541203	 0.545884	 -1.344827
C	 -0.895332	 -1.256461	 -1.002431
C	 -1.473649	 1.103340	 -0.370799
C	 -0.983900	 -0.581483	 1.422328
H	 -0.615301	 -0.972064	 -2.012700
H	 -1.954261	 -1.493213	 -1.010207
H	 -0.360539	 -2.164946	 -0.747760
H	 -1.227476	 1.468527	 -1.361691
H	 -2.526716	 0.838935	 -0.358521
H	 -1.314819	 1.915855	 0.325860
H	 -2.039679	 -0.828001	 1.472951
H	 -0.427637	 -1.464071	 1.720694
H	 -0.789023	 0.202493	 2.147048
H	 1.283558	 1.544869	 -1.684102
H	 2.611999	 0.496443	 -1.203164
H	 1.241140	 -0.148845	 -2.119769

	symmetry c1
}
set optking {
	frozen_dihedral = ("
		1 2 3 5
	")
}

ee = optimize('scf')
oeprop('DIPOLE', 'QUADRUPOLE', 'MULLIKEN_CHARGES')
f=open( 'psi4out.xyz', 'w' )
f.write( "19  " )
f.write( str(ee) + "\n" )
f.write( MOL.save_string_xyz() )
f.close()
--------------------------------------------------------------------------

    Molecular point group: c1
  Charge       = 0
  Multiplicity = 1
  Basis Set: 6-31G*
  Basis Set:
  @DF-RHF Final Energy:  -309.06086748420671
    Total Energy =                       -309.0608674842065966
    Molecular point group: c1
  Basis Set: 6-31G*
  Basis Set:
  Basis Set: 6-31G*
  Basis Set:
  @DF-RHF Final Energy:  -309.06063014654825
    Total Energy =                       -309.0606301465480783
  Basis Set: 6-31G*
  Basis Set:
  Basis Set: 6-31G*
  Basis Set:
  @DF-RHF Final Energy:  -309.06089299530640
    Total Energy =                       -309.0608929953064035
  Basis Set: 6-31G*
  Basis Set:
  Basis Set: 6-31G*
  Basis Set:
  @DF-RHF Final Energy:  -309.06229612006337
    Total Energy =                       -309.0622961200635928
  Basis Set: 6-31G*
  Basis Set:
  @DF-RHF Final Energy:  -309.06224353204090
    Total Energy =                       -309.0622435320406680
  @DF-RHF Final Energy:  -309.06246820608129
    Total Energy =                       -309.0624682060812347
  @DF-RHF Final Energy:  -309.06274752708538
    Total Energy =                       -309.0627475270853779
  @DF-RHF Final Energy:  -309.06294167859210
    Total Energy =                       -309.0629416785922672
  @DF-RHF Final Energy:  -309.06168068743096
    Total Energy =                       -309.0616806874306235
  @DF-RHF Final Energy:  -309.06297622913326
    Total Energy =                       -309.0629762291331986
  @DF-RHF Final Energy:  -309.06304280970403
    Total Energy =                       -309.0630428097040863
  Basis Set: 6-31G*
  Basis Set:
  @DF-RHF Final Energy:  -309.06304786763769
    Total Energy =                       -309.0630478676375787
  Basis Set: 6-31G*
  Basis Set:
  Basis Set: 6-31G*
  Basis Set:
  @DF-RHF Final Energy:  -309.06307525583077
    Total Energy =                       -309.0630752558304835
  Basis Set: 6-31G*
  Basis Set:
  Basis Set: 6-31G*
  Basis Set:
  @DF-RHF Final Energy:  -309.06308039313848
    Total Energy =                       -309.0630803931386481
  Basis Set: 6-31G*
  Basis Set:
  Charge       = 0
  Multiplicity = 1
  Basis Set: 6-31G*
  Basis Set:

    Orbital Energies (a.u.)
    -----------------------

    Doubly Occupied:

       1A    -20.548320     2A    -11.322752     3A    -11.246459
       4A    -11.226656     5A    -11.224723     6A    -11.224498
       7A    -11.207947     8A     -1.394640     9A     -1.109705
      10A     -1.001698    11A     -0.947168    12A     -0.934501
      13A     -0.835271    14A     -0.703548    15A     -0.664418
      16A     -0.631523    17A     -0.619546    18A     -0.598276
      19A     -0.592428    20A     -0.564659    21A     -0.546350
      22A     -0.543982    23A     -0.523536    24A     -0.512967
      25A     -0.498216    26A     -0.471171    27A     -0.466863
      28A     -0.392729

  @DF-RHF Final Energy:  -309.06308059237972

   => Energetics <=

    Nuclear Repulsion Energy =            326.2648771809753043
    One-Electron Energy =               -1065.5468161507276363
    Two-Electron Energy =                 430.2188583773726691
    DFT Exchange-Correlation Energy =       0.0000000000000000
    Empirical Dispersion Energy =           0.0000000000000000
    PCM Polarization Energy =               0.0000000000000000
    EFP Energy =                            0.0000000000000000
    Total Energy =                       -309.0630805923796629
    Molecular point group: c1
  Basis Set: 6-31G*
  Basis Set:

  -Total Gradient:
     Atom            X                  Y                   Z
    ------   -----------------  -----------------  -----------------
       1        0.000085375109    -0.000510135848    -0.000061951337
       2       -0.000134164441     0.000619529116     0.000183969143
       3       -0.000039862335     0.000138265067    -0.000317256395
       4        0.000003538452    -0.000027493351    -0.000012162651
       5        0.000056520340    -0.000259897211     0.000212534244
       6        0.000008908845     0.000006883305    -0.000015985502
       7        0.000007606593     0.000026990740    -0.000006733473
       8       -0.000012839825    -0.000011898508     0.000003020419
       9        0.000006161903    -0.000003681539    -0.000003902167
      10        0.000005506079    -0.000004125955     0.000001224724
      11       -0.000006003145     0.000000309247    -0.000001407237
      12        0.000007437524    -0.000004767754     0.000000319140
      13       -0.000000728788     0.000006534589     0.000012059415
      14        0.000005540919     0.000002502324    -0.000004534059
      15        0.000006967502     0.000001591624     0.000000138524
      16        0.000001646194    -0.000004897178     0.000006800875
      17       -0.000000519121     0.000002346793     0.000002805020
      18       -0.000000069194     0.000006297872     0.000002452363
      19       -0.000001022609     0.000015646667    -0.000001391048

  **** Optimization is complete! (in 15 steps) ****
    Final optimized geometry and variables:
    Molecular point group: c1

    Geometry (in Angstrom), charge = 0, multiplicity = 1:

    O            1.526089128832     0.228293176480     1.035469101729
    C            0.880741573562     0.195535050830     0.031760137368
    C           -0.615718262955    -0.147022068407     0.054008567177
    C            1.552440813120     0.480105996012    -1.300606049637
    C           -0.924369056291    -1.241511282730    -0.983089047374
    C           -1.417889799359     1.126990167349    -0.276975916376
    C           -1.002039286539    -0.640291270389     1.452678906733
    H           -0.718002842496    -0.917478723847    -1.997450095301
    H           -1.974786445666    -1.509109932751    -0.933515944078
    H           -0.346293895169    -2.140956480869    -0.791686663625
    H           -1.215108535571     1.494806218791    -1.277038202011
    H           -2.480855926976     0.916659212522    -0.216203621631
    H           -1.195772172531     1.922286951406     0.427639585015
    H           -2.060870276391    -0.879622591177     1.480985316423
    H           -0.445029761121    -1.530028422117     1.722649730205
    H           -0.799972259351     0.111804620800     2.204279005604
    H            0.922364613906     1.034920478360    -1.984289843709
    H            2.466740617853     1.027698589250    -1.117977225019
    H            1.807196039603    -0.460912148861    -1.779599182334

  Mulliken Charges: (a.u.)
   Center  Symbol    Alpha    Beta     Spin     Total
       1     O     4.26382  4.26382  0.00000 -0.52765
       2     C     2.72528  2.72528  0.00000  0.54943
       3     C     3.07061  3.07061  0.00000 -0.14122
       4     C     3.28855  3.28855  0.00000 -0.57709
       5     C     3.24186  3.24186  0.00000 -0.48372
       6     C     3.24112  3.24112  0.00000 -0.48225
       7     C     3.22578  3.22578  0.00000 -0.45155
       8     H     0.41706  0.41706  0.00000  0.16589
       9     H     0.41325  0.41325  0.00000  0.17351
      10     H     0.41438  0.41438  0.00000  0.17125
      11     H     0.41836  0.41836  0.00000  0.16328
      12     H     0.41289  0.41289  0.00000  0.17421
      13     H     0.41072  0.41072  0.00000  0.17857
      14     H     0.42392  0.42392  0.00000  0.15215
      15     H     0.41382  0.41382  0.00000  0.17236
      16     H     0.40828  0.40828  0.00000  0.18344
      17     H     0.41077  0.41077  0.00000  0.17847
      18     H     0.39611  0.39611  0.00000  0.20778
      19     H     0.40343  0.40343  0.00000  0.19313

   Total alpha = 28.00000, Total beta = 28.00000, Total charge =  0.00000
