  ==> Input File <==

--------------------------------------------------------------------------
set {
	reference rhf
	basis cc-pvtz
}

set_num_threads( 4 )
memory 2 gb

molecule MOL {
0 1

H	 2.751406	 0.205769	 -0.856034
N	 2.326826	 -0.066186	 0.000000
C	 0.934676	 -0.005420	 0.000000
H	 2.702082	 -0.924258	 0.331539
C	 0.226436	 -0.001077	 -1.195129
C	 0.226436	 -0.001077	 1.195129
H	 0.759091	 -0.011439	 -2.128123
C	 -1.153391	 0.009141	 -1.189028
H	 0.759091	 -0.011439	 2.128123
C	 -1.153391	 0.009141	 1.189028
H	 -1.680905	 0.012964	 -2.124348
C	 -1.857876	 0.014675	 0.000000
H	 -1.680905	 0.012964	 2.124348
H	 -2.930222	 0.022904	 0.000000

	symmetry c1
}
set optking {
	frozen_dihedral = ("
		1 2 3 5
	")
}

ee = optimize('scf')
oeprop('DIPOLE', 'QUADRUPOLE', 'MULLIKEN_CHARGES')
f=open( 'psi4out.xyz', 'w' )
f.write( "14  " )
f.write( str(ee) + "\n" )
f.write( MOL.save_string_xyz() )
f.close()
--------------------------------------------------------------------------

    Molecular point group: c1
  Charge       = 0
  Multiplicity = 1
  Basis Set: CC-PVTZ
  Basis Set:
  @DF-RHF Final Energy:  -285.82939943215115
    Total Energy =                       -285.8293994321512628
    Molecular point group: c1
  Basis Set: CC-PVTZ
  Basis Set:
  Basis Set: CC-PVTZ
  Basis Set:
  @DF-RHF Final Energy:  -285.82987617114287
    Total Energy =                       -285.8298761711428142
  Basis Set: CC-PVTZ
  Basis Set:
  Basis Set: CC-PVTZ
  Basis Set:
  @DF-RHF Final Energy:  -285.82993460327936
    Total Energy =                       -285.8299346032794119
  Basis Set: CC-PVTZ
  Basis Set:
  Basis Set: CC-PVTZ
  Basis Set:
  @DF-RHF Final Energy:  -285.82994377034186
    Total Energy =                       -285.8299437703416856
  Basis Set: CC-PVTZ
  Basis Set:
  @DF-RHF Final Energy:  -285.82994885834921
    Total Energy =                       -285.8299488583493257
  Basis Set: CC-PVTZ
  Basis Set:
  @DF-RHF Final Energy:  -285.82638266517012
    Total Energy =                       -285.8263826651701720
  Basis Set: CC-PVTZ
  Basis Set:
  Basis Set: CC-PVTZ
  Basis Set:
  @DF-RHF Final Energy:  -285.82984049322738
    Total Energy =                       -285.8298404932271524
  Basis Set: CC-PVTZ
  Basis Set:
  Basis Set: CC-PVTZ
  Basis Set:
  @DF-RHF Final Energy:  -285.82994976723234
    Total Energy =                       -285.8299497672319376
  Basis Set: CC-PVTZ
  Basis Set:
  Charge       = 0
  Multiplicity = 1
  Basis Set: CC-PVTZ
  Basis Set:

    Orbital Energies (a.u.)
    -----------------------

    Doubly Occupied:

       1A    -15.546753     2A    -11.264776     3A    -11.227500
       4A    -11.226703     5A    -11.219895     6A    -11.217836
       7A    -11.217061     8A     -1.216457     9A     -1.130832
      10A     -1.014409    11A     -0.988832    12A     -0.831158
      13A     -0.811936    14A     -0.706772    15A     -0.680576
      16A     -0.651277    17A     -0.616529    18A     -0.595505
      19A     -0.583921    20A     -0.514570    21A     -0.505671
      22A     -0.491490    23A     -0.430553    24A     -0.335912
      25A     -0.309097

  @DF-RHF Final Energy:  -285.82994992040221

   => Energetics <=

    Nuclear Repulsion Energy =            273.3470841359932137
    One-Electron Energy =                -927.6820251338710932
    Two-Electron Energy =                 368.5049910774755517
    DFT Exchange-Correlation Energy =       0.0000000000000000
    Empirical Dispersion Energy =           0.0000000000000000
    PCM Polarization Energy =               0.0000000000000000
    EFP Energy =                            0.0000000000000000
    Total Energy =                       -285.8299499204023277
    Molecular point group: c1
  Basis Set: CC-PVTZ
  Basis Set:

  -Total Gradient:
     Atom            X                  Y                   Z
    ------   -----------------  -----------------  -----------------
       1        0.000046201226     0.003938947524     0.001396405648
       2       -0.000116887533    -0.006754202250    -0.001786721703
       3        0.000135232820     0.006023750212     0.000257906120
       4       -0.000011224646     0.000016734315     0.000010344215
       5        0.000025116727    -0.003231962902     0.000067732719
       6       -0.000083499801     0.000010795325     0.000054232492
       7       -0.000005194874     0.000003266574     0.000001356091
       8       -0.000075588183    -0.000002919669     0.000052846637
       9        0.000008359419     0.000001033111    -0.000004082591
      10        0.000087213241    -0.000026595045     0.000045897473
      11        0.000000090013     0.000000390229     0.000000167596
      12       -0.000001888201     0.000015402550    -0.000093599702
      13       -0.000006691215     0.000004607425    -0.000005232836
      14       -0.000001238995     0.000000752601     0.000002747841

  **** Optimization is complete! (in 9 steps) ****
    Final optimized geometry and variables:
    Molecular point group: c1

    Geometry (in Angstrom), charge = 0, multiplicity = 1:

    H            2.764714281826     0.256539292257    -0.822678070777
    N            2.339867344999    -0.036581914852     0.026455485530
    C            0.930222051193    -0.007034885110    -0.004039305441
    H            2.722335995197    -0.897865290550     0.344787241412
    C            0.220299193168    -0.004684374702    -1.194331920021
    C            0.228566004052     0.002998459666     1.193453534666
    H            0.750568837498    -0.031854931180    -2.128299307425
    C           -1.161997848802     0.036957886244    -1.187466320886
    H            0.774919849848     0.012128370782     2.117073462480
    C           -1.150946398417     0.016969564377     1.195440383902
    H           -1.694568044401     0.050106525008    -2.119648825759
    C           -1.856323333422     0.041444088756     0.005367095948
    H           -1.677847634769     0.023237318633     2.130888796955
    H           -2.928860545603     0.064255146152     0.009998128249

  Mulliken Charges: (a.u.)
   Center  Symbol    Alpha    Beta     Spin     Total
       1     H     0.42085  0.42085  0.00000  0.15830
       2     N     3.70135  3.70135  0.00000 -0.40270
       3     C     2.88185  2.88185  0.00000  0.23629
       4     H     0.41626  0.41626  0.00000  0.16748
       5     C     3.11639  3.11639  0.00000 -0.23278
       6     C     3.11357  3.11357  0.00000 -0.22715
       7     H     0.43096  0.43096  0.00000  0.13808
       8     C     3.06716  3.06716  0.00000 -0.13431
       9     H     0.42289  0.42289  0.00000  0.15423
      10     C     3.06296  3.06296  0.00000 -0.12593
      11     H     0.42423  0.42423  0.00000  0.15154
      12     C     3.09302  3.09302  0.00000 -0.18604
      13     H     0.42401  0.42401  0.00000  0.15198
      14     H     0.42450  0.42450  0.00000  0.15101

   Total alpha = 25.00000, Total beta = 25.00000, Total charge = -0.00000
