  ==> Input File <==

--------------------------------------------------------------------------
set {
	reference rhf
	basis cc-pvtz
}

set_num_threads( 4 )
memory 2 gb

molecule MOL {
0 1

H	 1.128311	 0.207724	 1.465118
C	 1.134565	 0.093781	 0.372499
C	 0.062554	 0.862911	 -0.350953
O	 1.948932	 -0.587720	 -0.146651
C	 -0.774868	 -0.023325	 -1.278273
H	 0.527844	 1.676476	 -0.892350
H	 -0.582685	 1.292683	 0.411961
C	 0.010193	 -0.570730	 -2.466835
H	 -1.617199	 0.556358	 -1.637467
H	 -1.195640	 -0.845934	 -0.706686
H	 0.407917	 0.235041	 -3.073552
H	 -0.623389	 -1.182206	 -3.097953
H	 0.846758	 -1.182630	 -2.147818

	symmetry c1
}
set optking {
	frozen_dihedral = ("
		6 3 2 4
	")
}

ee = optimize('scf')
oeprop('DIPOLE', 'QUADRUPOLE', 'MULLIKEN_CHARGES')
f=open( 'psi4out.xyz', 'w' )
f.write( "13  " )
f.write( str(ee) + "\n" )
f.write( MOL.save_string_xyz() )
f.close()
--------------------------------------------------------------------------

    Molecular point group: c1
  Charge       = 0
  Multiplicity = 1
  Basis Set: CC-PVTZ
  Basis Set:
  @DF-RHF Final Energy:  -231.06617682447626
    Total Energy =                       -231.0661768244763721
    Molecular point group: c1
  Basis Set: CC-PVTZ
  Basis Set:
  Basis Set: CC-PVTZ
  Basis Set:
  @DF-RHF Final Energy:  -231.06728801746095
    Total Energy =                       -231.0672880174609531
  Basis Set: CC-PVTZ
  Basis Set:
  Basis Set: CC-PVTZ
  Basis Set:
  @DF-RHF Final Energy:  -231.06607340898896
    Total Energy =                       -231.0660734089889274
  Basis Set: CC-PVTZ
  Basis Set:
  Basis Set: CC-PVTZ
  Basis Set:
  @DF-RHF Final Energy:  -231.06747195494518
    Total Energy =                       -231.0674719549450629
  Basis Set: CC-PVTZ
  Basis Set:
  Basis Set: CC-PVTZ
  Basis Set:
  @DF-RHF Final Energy:  -231.06749606871008
    Total Energy =                       -231.0674960687100850
  Basis Set: CC-PVTZ
  Basis Set:
  Basis Set: CC-PVTZ
  Basis Set:
  @DF-RHF Final Energy:  -231.06749898347800
    Total Energy =                       -231.0674989834781172
  Basis Set: CC-PVTZ
  Basis Set:
  Charge       = 0
  Multiplicity = 1
  Basis Set: CC-PVTZ
  Basis Set:

    Orbital Energies (a.u.)
    -----------------------

    Doubly Occupied:

       1A    -20.553393     2A    -11.323893     3A    -11.235898
       4A    -11.230487     5A    -11.206182     6A     -1.409011
       7A     -1.078233     8A     -0.971725     9A     -0.845611
      10A     -0.777072    11A     -0.684647    12A     -0.651236
      13A     -0.599519    14A     -0.593431    15A     -0.572144
      16A     -0.525336    17A     -0.499770    18A     -0.488107
      19A     -0.480517    20A     -0.409345

  @DF-RHF Final Energy:  -231.06749938746506

   => Energetics <=

    Nuclear Repulsion Energy =            176.0067955010950129
    One-Electron Energy =                -661.8774749437592391
    Two-Electron Energy =                 254.8031800551992774
    DFT Exchange-Correlation Energy =       0.0000000000000000
    Empirical Dispersion Energy =           0.0000000000000000
    PCM Polarization Energy =               0.0000000000000000
    EFP Energy =                            0.0000000000000000
    Total Energy =                       -231.0674993874649772
    Molecular point group: c1
  Basis Set: CC-PVTZ
  Basis Set:

  -Total Gradient:
     Atom            X                  Y                   Z
    ------   -----------------  -----------------  -----------------
       1        0.000005430054    -0.000011481102    -0.000010905867
       2       -0.000753650093    -0.000965765409     0.000009608452
       3        0.000126031473     0.000834961357     0.000630071194
       4        0.000539141710     0.000593664538    -0.000100036140
       5        0.000002360579     0.000026051760     0.000009412281
       6        0.000085526332    -0.000498258629    -0.000562289549
       7       -0.000025434540     0.000015804018    -0.000000859582
       8        0.000000229573     0.000006936355     0.000000936187
       9        0.000002055695     0.000003886760     0.000009643867
      10        0.000005838029     0.000002033875     0.000005784699
      11        0.000001128166    -0.000004020644     0.000002379358
      12        0.000002925644     0.000000630849     0.000003363323
      13        0.000008417379    -0.000004443731     0.000002891776

  **** Optimization is complete! (in 7 steps) ****
    Final optimized geometry and variables:
    Molecular point group: c1

    Geometry (in Angstrom), charge = 0, multiplicity = 1:

    H            0.634756505617     0.375942128274     2.288694164292
    C            0.640361413848     0.176375963400     1.210242881591
    C           -0.407284270199     0.909406237628     0.402930241629
    O            1.447678562425    -0.560002456116     0.757389714806
    C           -1.239201109924     0.013909245108    -0.526743661286
    H            0.112492997437     1.662446709109    -0.183780467960
    H           -1.059835259459     1.434961035240     1.090469981756
    C           -0.503226006529    -0.474088711460    -1.770888304431
    H           -2.111827720739     0.581929958144    -0.830832654229
    H           -1.612007181257    -0.836654229672     0.035768316785
    H           -0.158294885157     0.364447668163    -2.367248115107
    H           -1.165389070711    -1.068599144597    -2.389982743871
    H            0.355966824036    -1.075773348162    -1.513678701160

  Mulliken Charges: (a.u.)
   Center  Symbol    Alpha    Beta     Spin     Total
       1     H     0.45066  0.45066  0.00000  0.09868
       2     C     2.91862  2.91862  0.00000  0.16277
       3     C     3.09498  3.09498  0.00000 -0.18997
       4     O     4.16793  4.16793  0.00000 -0.33587
       5     C     3.08575  3.08575  0.00000 -0.17149
       6     H     0.44482  0.44482  0.00000  0.11036
       7     H     0.44213  0.44213  0.00000  0.11574
       8     C     3.14581  3.14581  0.00000 -0.29163
       9     H     0.44761  0.44761  0.00000  0.10478
      10     H     0.45226  0.45226  0.00000  0.09548
      11     H     0.45879  0.45879  0.00000  0.08241
      12     H     0.45107  0.45107  0.00000  0.09785
      13     H     0.43956  0.43956  0.00000  0.12088

   Total alpha = 20.00000, Total beta = 20.00000, Total charge = -0.00000
