  ==> Input File <==

--------------------------------------------------------------------------
set {
	reference rhf
	basis 6-31G*
}

set_num_threads( 4 )
memory 2 gb

molecule MOL {
0 1

H	 -2.798360	 -0.862255	 -0.071053
N	 -1.863561	 -0.715187	 0.256814
C	 -1.344686	 0.554728	 -0.219830
H	 -1.300452	 -1.461917	 -0.101532
C	 0.081427	 0.741154	 0.254071
H	 -1.362155	 0.656231	 -1.305829
H	 -1.952773	 1.354456	 0.191809
O	 0.874168	 -0.245412	 -0.342030
H	 0.444037	 1.730782	 -0.023037
H	 0.121165	 0.653424	 1.337565
C	 0.179257	 -1.109983	 -1.182974
H	 0.889352	 -1.822450	 -1.580284
H	 -0.596963	 -1.650724	 -0.644399
H	 -0.283319	 -0.574416	 -2.009412

	symmetry c1
}
set optking {
	frozen_dihedral = ("
		11 8 5 3
	")
}

ee = optimize('scf')
oeprop('DIPOLE', 'QUADRUPOLE', 'MULLIKEN_CHARGES')
f=open( 'psi4out.xyz', 'w' )
f.write( "14  " )
f.write( str(ee) + "\n" )
f.write( MOL.save_string_xyz() )
f.close()
--------------------------------------------------------------------------

    Molecular point group: c1
  Charge       = 0
  Multiplicity = 1
  Basis Set: 6-31G*
  Basis Set:
  @DF-RHF Final Energy:  -248.01887922649163
    Total Energy =                       -248.0188792264917765
    Molecular point group: c1
  Basis Set: 6-31G*
  Basis Set:
  Basis Set: 6-31G*
  Basis Set:
  @DF-RHF Final Energy:  -248.08658471949153
    Total Energy =                       -248.0865847194916114
  Basis Set: 6-31G*
  Basis Set:
  Basis Set: 6-31G*
  Basis Set:
  @DF-RHF Final Energy:  -248.10132003730686
    Total Energy =                       -248.1013200373068344
  Basis Set: 6-31G*
  Basis Set:
  Basis Set: 6-31G*
  Basis Set:
  @DF-RHF Final Energy:  -248.10594701214518
    Total Energy =                       -248.1059470121454069
  Basis Set: 6-31G*
  Basis Set:
  @DF-RHF Final Energy:  -248.10794660274118
    Total Energy =                       -248.1079466027412082
  @DF-RHF Final Energy:  -248.10854251149806
    Total Energy =                       -248.1085425114981717
  @DF-RHF Final Energy:  -248.10868826371396
    Total Energy =                       -248.1086882637139297
  @DF-RHF Final Energy:  -248.10880737555860
    Total Energy =                       -248.1088073755586265
  @DF-RHF Final Energy:  -248.10890022832822
    Total Energy =                       -248.1089002283281388
  @DF-RHF Final Energy:  -248.10905785822010
    Total Energy =                       -248.1090578582201260
  Basis Set: 6-31G*
  Basis Set:
  @DF-RHF Final Energy:  -248.10917773787651
    Total Energy =                       -248.1091777378765073
  Basis Set: 6-31G*
  Basis Set:
  Basis Set: 6-31G*
  Basis Set:
  @DF-RHF Final Energy:  -248.10919269340386
    Total Energy =                       -248.1091926934038270
  Basis Set: 6-31G*
  Basis Set:
  Basis Set: 6-31G*
  Basis Set:
  @DF-RHF Final Energy:  -248.10919486042056
    Total Energy =                       -248.1091948604206436
  Basis Set: 6-31G*
  Basis Set:
  Charge       = 0
  Multiplicity = 1
  Basis Set: 6-31G*
  Basis Set:

    Orbital Energies (a.u.)
    -----------------------

    Doubly Occupied:

       1A    -20.547897     2A    -15.541171     3A    -11.267980
       4A    -11.264815     5A    -11.251273     6A     -1.367610
       7A     -1.183727     8A     -1.002580     9A     -0.923760
      10A     -0.805730    11A     -0.686432    12A     -0.675083
      13A     -0.643093    14A     -0.612645    15A     -0.609448
      16A     -0.549854    17A     -0.536269    18A     -0.520231
      19A     -0.451101    20A     -0.405627    21A     -0.389899

  @DF-RHF Final Energy:  -248.10919528567445

   => Energetics <=

    Nuclear Repulsion Energy =            196.2439853028709535
    One-Electron Energy =                -726.2339135092589686
    Two-Electron Energy =                 281.8807329207133989
    DFT Exchange-Correlation Energy =       0.0000000000000000
    Empirical Dispersion Energy =           0.0000000000000000
    PCM Polarization Energy =               0.0000000000000000
    EFP Energy =                            0.0000000000000000
    Total Energy =                       -248.1091952856745593
    Molecular point group: c1
  Basis Set: 6-31G*
  Basis Set:

  -Total Gradient:
     Atom            X                  Y                   Z
    ------   -----------------  -----------------  -----------------
       1        0.000019086058    -0.000007049531     0.000000112588
       2        0.000023167058    -0.000059392911    -0.000050118123
       3        0.000136520709     0.000542762162    -0.000547738654
       4       -0.000042702429     0.000046314419     0.000043243610
       5       -0.000302083935    -0.001097811407     0.001219017224
       6        0.000000688084     0.000012891618     0.000002870039
       7        0.000017018712     0.000004377809    -0.000004133152
       8        0.000267634804     0.001198289045    -0.001266582601
       9        0.000009914078     0.000001745833    -0.000004682505
      10       -0.000007368866    -0.000000025386    -0.000004602001
      11       -0.000183004377    -0.000619625390     0.000612274721
      12        0.000003533374    -0.000004660168    -0.000006294365
      13        0.000048650256    -0.000006625657    -0.000008443063
      14        0.000008946470    -0.000011190436     0.000015076282

  **** Optimization is complete! (in 14 steps) ****
    Final optimized geometry and variables:
    Molecular point group: c1

    Geometry (in Angstrom), charge = 0, multiplicity = 1:

    H           -2.711117045561    -0.260319371394     0.558696024181
    N           -1.725144108341    -0.348773428487     0.710106559500
    C           -1.011998270360     0.750957798075     0.077612176587
    H           -1.452356669009    -1.235052875843     0.336460500925
    C            0.457633377255     0.813870081620     0.479638211925
    H           -1.112054812918     0.778563577348    -1.007415892120
    H           -1.456525673126     1.669363132968     0.447104444251
    O            1.368799989273    -0.079825204078    -0.121437615863
    H            0.819540421324     1.813410246745     0.257741196433
    H            0.516362465769     0.667517753476     1.551537528595
    C            0.971435004532    -1.016322319423    -1.068421810647
    H            1.875813316678    -1.490111765054    -1.425829391958
    H            0.333933276647    -1.791714154988    -0.650887727596
    H            0.466329715556    -0.569754185336    -1.920142308041

  Mulliken Charges: (a.u.)
   Center  Symbol    Alpha    Beta     Spin     Total
       1     H     0.33057  0.33057  0.00000  0.33885
       2     N     3.92314  3.92314  0.00000 -0.84627
       3     C     3.09504  3.09504  0.00000 -0.19008
       4     H     0.32797  0.32797  0.00000  0.34406
       5     C     2.97567  2.97567  0.00000  0.04867
       6     H     0.42644  0.42644  0.00000  0.14712
       7     H     0.41335  0.41335  0.00000  0.17330
       8     O     4.31593  4.31593  0.00000 -0.63186
       9     H     0.42509  0.42509  0.00000  0.14982
      10     H     0.41336  0.41336  0.00000  0.17328
      11     C     3.07760  3.07760  0.00000 -0.15520
      12     H     0.40987  0.40987  0.00000  0.18025
      13     H     0.43593  0.43593  0.00000  0.12814
      14     H     0.43003  0.43003  0.00000  0.13993

   Total alpha = 21.00000, Total beta = 21.00000, Total charge = -0.00000
