                              Psi4 1.0.54 Driver

  ==> Input File <==

--------------------------------------------------------------------------
set {
	reference rhf
	basis cc-pvtz
}

set_num_threads( 4 )
memory 2 gb

molecule MOL {
0 1

H	 1.179002	 0.284078	 1.809197
O	 1.360291	 -0.092411	 0.966675
C	 0.706474	 0.636793	 -0.025501
C	 -0.793473	 0.591216	 0.050087
H	 1.028512	 0.222085	 -0.973451
H	 1.027297	 1.676844	 -0.017452
C	 -1.534243	 -0.493009	 -0.013340
H	 -1.266611	 1.552628	 0.164437
H	 -1.101195	 -1.466332	 -0.144046
H	 -2.604242	 -0.437780	 0.050785

	symmetry c1
}
set optking {
	frozen_dihedral = ("
		5 3 4 7
	")
}

ee,wfn = optimize('scf', return_wfn=True)
oeprop( wfn, 'DIPOLE', 'QUADRUPOLE', 'MULLIKEN_CHARGES')
f=open( 'psi4out.xyz', 'w' )
f.write( "10  " )
f.write( str(ee) + "\n" )
f.write( MOL.save_string_xyz() )
f.close()
--------------------------------------------------------------------------

    Molecular point group: c1
  Charge       = 0
  Multiplicity = 1
  Basis Set: CC-PVTZ
  Basis Set:
  @DF-RHF Final Energy:  -191.99320338694125
    Total Energy =                       -191.9932033869411043
    Molecular point group: c1
  Basis Set: CC-PVTZ
  Basis Set:
  Basis Set: CC-PVTZ
  Basis Set:
  @DF-RHF Final Energy:  -191.99385310043991
    Total Energy =                       -191.9938531004398783
  Basis Set: CC-PVTZ
  Basis Set:
  Basis Set: CC-PVTZ
  Basis Set:
  @DF-RHF Final Energy:  -191.99398557665199
    Total Energy =                       -191.9939855766519941
  Basis Set: CC-PVTZ
  Basis Set:
  Basis Set: CC-PVTZ
  Basis Set:
  @DF-RHF Final Energy:  -191.99399934511939
    Total Energy =                       -191.9939993451195051
  Basis Set: CC-PVTZ
  Basis Set:
  @DF-RHF Final Energy:  -191.99400184307478
    Total Energy =                       -191.9940018430747273
  Basis Set: CC-PVTZ
  Basis Set:
  @DF-RHF Final Energy:  -191.99400393245583
    Total Energy =                       -191.9940039324558256
  Basis Set: CC-PVTZ
  Basis Set:
  Basis Set: CC-PVTZ
  Basis Set:
  @DF-RHF Final Energy:  -191.99400900431817
    Total Energy =                       -191.9940090043181442
  Basis Set: CC-PVTZ
  Basis Set:
  Basis Set: CC-PVTZ
  Basis Set:
  @DF-RHF Final Energy:  -191.99401252995074
    Total Energy =                       -191.9940125299507372
  Basis Set: CC-PVTZ
  Basis Set:
  Charge       = 0
  Multiplicity = 1
  Basis Set: CC-PVTZ
  Basis Set:

    Orbital Energies (a.u.)
    -----------------------

    Doubly Occupied:

       1A    -20.549057     2A    -11.274721     3A    -11.229490
       4A    -11.223492     5A     -1.367134     6A     -1.063366
       7A     -0.925689     8A     -0.778973     9A     -0.680981
      10A     -0.664585    11A     -0.608388    12A     -0.580047
      13A     -0.555245    14A     -0.478369    15A     -0.450081
      16A     -0.374229

  @DF-RHF Final Energy:  -191.99401487330971

   => Energetics <=

    Nuclear Repulsion Energy =            118.6510742219735022
    One-Electron Energy =                -495.6824847395613460
    Two-Electron Energy =                 185.0373956442782912
    DFT Exchange-Correlation Energy =       0.0000000000000000
    Empirical Dispersion Energy =           0.0000000000000000
    PCM Polarization Energy =               0.0000000000000000
    EFP Energy =                            0.0000000000000000
    Total Energy =                       -191.9940148733095668
    Molecular point group: c1
  Basis Set: CC-PVTZ
  Basis Set:

  -Total Gradient:
     Atom            X                  Y                   Z
    ------   -----------------  -----------------  -----------------
       1       -0.000082932770     0.000061573002     0.000209078250
       2        0.000101006254    -0.000061868830    -0.000197948370
       3       -0.000186632925     0.001902028290    -0.001673080000
       4        0.000210236965    -0.000519813484     0.002565539378
       5        0.000095845168    -0.001507622350     0.000729804430
       6       -0.000021474242     0.000005239011    -0.000014521420
       7       -0.000118560371     0.000114522017    -0.001622014239
       8        0.000000876606     0.000001741171    -0.000016693685
       9        0.000000083851     0.000002342290     0.000009259809
      10        0.000001551469     0.000001858884     0.000010575847

  **** Optimization is complete! (in 9 steps) ****
    Final optimized geometry and variables:
    Molecular point group: c1

    Geometry (in Angstrom), charge = 0, multiplicity = 1:

    H            1.017873971737    -0.030864664388     1.499963833539
    O            1.350104970233    -0.262708233967     0.651259817353
    C            0.696585702672     0.490149692990    -0.335925053672
    C           -0.812616725671     0.453913061959    -0.222384737606
    H            1.006671293525     0.056127200624    -1.276628141770
    H            1.039136765733     1.519787492438    -0.318834652852
    C           -1.523504051281    -0.652302840940    -0.248358135515
    H           -1.316433434890     1.400772112834    -0.130713268938
    H           -1.059080477089    -1.617355348896    -0.341865687262
    H           -2.593650493288    -0.633031789777    -0.163031182764

  Mulliken Charges: (a.u.)
   Center  Symbol    Alpha    Beta     Spin     Total
       1     H     0.39515  0.39515  0.00000  0.20969
       2     O     4.19888  4.19888  0.00000 -0.39776
       3     C     2.95358  2.95358  0.00000  0.09285
       4     C     3.10375  3.10375  0.00000 -0.20749
       5     H     0.45350  0.45350  0.00000  0.09300
       6     H     0.46582  0.46582  0.00000  0.06835
       7     C     3.16255  3.16255  0.00000 -0.32509
       8     H     0.41640  0.41640  0.00000  0.16720
       9     H     0.42437  0.42437  0.00000  0.15127
      10     H     0.42601  0.42601  0.00000  0.14798

   Total alpha = 16.00000, Total beta = 16.00000, Total charge = -0.00000

*** Psi4 exiting successfully. Buy a developer a beer!
