                              Psi4 1.0.54 Driver

  ==> Input File <==

--------------------------------------------------------------------------
set {
	reference rhf
	basis cc-pvtz
}

set_num_threads( 4 )
memory 2 gb

molecule MOL {
0 1

H	 1.348116	 -1.300694	 0.345546
C	 0.788096	 -0.429819	 0.000000
N	 -0.537714	 -0.645117	 0.000000
O	 1.333201	 0.575690	 -0.329441
C	 -1.522613	 0.412524	 0.000000
H	 -0.845894	 -1.585866	 0.000000
H	 -2.150256	 0.356137	 -0.880771
H	 -1.005621	 1.357208	 0.000000
H	 -2.150256	 0.356137	 0.880771

	symmetry c1
}
set optking {
	frozen_dihedral = ("
		1 2 3 6
	")
}

ee,wfn = optimize('scf', return_wfn=True)
oeprop( wfn, 'DIPOLE', 'QUADRUPOLE', 'MULLIKEN_CHARGES')
f=open( 'psi4out.xyz', 'w' )
f.write( "9  " )
f.write( str(ee) + "\n" )
f.write( MOL.save_string_xyz() )
f.close()
--------------------------------------------------------------------------

    Molecular point group: c1
  Charge       = 0
  Multiplicity = 1
  Basis Set: CC-PVTZ
  Basis Set:
  @DF-RHF Final Energy:  -208.03903929054809
    Total Energy =                       -208.0390392905481178
    Molecular point group: c1
  Basis Set: CC-PVTZ
  Basis Set:
  Basis Set: CC-PVTZ
  Basis Set:
  @DF-RHF Final Energy:  -208.03939963054765
    Total Energy =                       -208.0393996305476776
  Basis Set: CC-PVTZ
  Basis Set:
  Basis Set: CC-PVTZ
  Basis Set:
  @DF-RHF Final Energy:  -208.04141953037538
    Total Energy =                       -208.0414195303754070
  Basis Set: CC-PVTZ
  Basis Set:
  Basis Set: CC-PVTZ
  Basis Set:
  @DF-RHF Final Energy:  -208.04210763325881
    Total Energy =                       -208.0421076332587802
  Basis Set: CC-PVTZ
  Basis Set:
  @DF-RHF Final Energy:  -208.04261065792920
    Total Energy =                       -208.0426106579292025
  @DF-RHF Final Energy:  -208.04271734181168
    Total Energy =                       -208.0427173418117377
  @DF-RHF Final Energy:  -208.04273457860626
    Total Energy =                       -208.0427345786063427
  @DF-RHF Final Energy:  -208.04277424244043
    Total Energy =                       -208.0427742424404016
  @DF-RHF Final Energy:  -208.04288549851177
    Total Energy =                       -208.0428854985118221
  @DF-RHF Final Energy:  -208.04298706225549
    Total Energy =                       -208.0429870622554631
  @DF-RHF Final Energy:  -208.04307613361499
    Total Energy =                       -208.0430761336149601
  @DF-RHF Final Energy:  -208.04314588532554
    Total Energy =                       -208.0431458853255151
  Basis Set: CC-PVTZ
  Basis Set:
  @DF-RHF Final Energy:  -208.04318756531870
    Total Energy =                       -208.0431875653187035
  Basis Set: CC-PVTZ
  Basis Set:
  Basis Set: CC-PVTZ
  Basis Set:
  @DF-RHF Final Energy:  -208.04320055801273
    Total Energy =                       -208.0432005580127282
  Basis Set: CC-PVTZ
  Basis Set:
  Basis Set: CC-PVTZ
  Basis Set:
  @DF-RHF Final Energy:  -208.04320445852883
    Total Energy =                       -208.0432044585288907
  Basis Set: CC-PVTZ
  Basis Set:
  Charge       = 0
  Multiplicity = 1
  Basis Set: CC-PVTZ
  Basis Set:

    Orbital Energies (a.u.)
    -----------------------

    Doubly Occupied:

       1A    -20.520247     2A    -15.584099     3A    -11.337483
       4A    -11.259050     5A     -1.396889     6A     -1.239162
       7A     -0.967881     8A     -0.807808     9A     -0.747746
      10A     -0.647213    11A     -0.631692    12A     -0.593914
      13A     -0.556794    14A     -0.538781    15A     -0.430899
      16A     -0.399410

  @DF-RHF Final Energy:  -208.04320426647951

   => Energetics <=

    Nuclear Repulsion Energy =            122.9201759843772237
    One-Electron Energy =                -526.6086243971296881
    Two-Electron Energy =                 195.6452441462728018
    DFT Exchange-Correlation Energy =       0.0000000000000000
    Empirical Dispersion Energy =           0.0000000000000000
    PCM Polarization Energy =               0.0000000000000000
    EFP Energy =                            0.0000000000000000
    Total Energy =                       -208.0432042664796484
    Molecular point group: c1
  Basis Set: CC-PVTZ
  Basis Set:

  -Total Gradient:
     Atom            X                  Y                   Z
    ------   -----------------  -----------------  -----------------
       1        0.000552948067     0.000861059551     0.002294223349
       2       -0.000929113705    -0.001010307846    -0.003699078337
       3        0.001010187184     0.000176699968     0.003533680032
       4       -0.000012648053    -0.000047537439     0.000024878256
       5        0.000124083148     0.000076760470     0.000242935685
       6       -0.000697259864    -0.000082356402    -0.002381249111
       7       -0.000016136005     0.000005779054    -0.000063105787
       8        0.000015464216     0.000030449350     0.000012899323
       9       -0.000047524987    -0.000010546706     0.000034816589

  **** Optimization is complete! (in 16 steps) ****
    Final optimized geometry and variables:
    Molecular point group: c1

    Geometry (in Angstrom), charge = 0, multiplicity = 1:

    H            1.386456229596    -1.326941498530     0.198101075267
    C            0.784217062446    -0.439280560511    -0.004565569423
    N           -0.502689087952    -0.588265817076     0.366525757004
    O            1.257332479889     0.554640186236    -0.454253140626
    C           -1.483167602131     0.445374623393     0.111403311460
    H           -0.828542938070    -1.517727303425     0.477236091866
    H           -1.739367264235     0.517697216135    -0.939553493832
    H           -1.089711312833     1.397815333893     0.429891867518
    H           -2.376790995521     0.227624354506     0.678915502737

  Mulliken Charges: (a.u.)
   Center  Symbol    Alpha    Beta     Spin     Total
       1     H     0.46283  0.46283  0.00000  0.07434
       2     C     2.88053  2.88053  0.00000  0.23894
       3     N     3.60473  3.60473  0.00000 -0.20945
       4     O     4.21054  4.21054  0.00000 -0.42108
       5     C     3.07860  3.07860  0.00000 -0.15719
       6     H     0.41450  0.41450  0.00000  0.17099
       7     H     0.45550  0.45550  0.00000  0.08901
       8     H     0.43971  0.43971  0.00000  0.12058
       9     H     0.45307  0.45307  0.00000  0.09386

   Total alpha = 16.00000, Total beta = 16.00000, Total charge = -0.00000

*** Psi4 exiting successfully. Buy a developer a beer!
