  ==> Input File <==

--------------------------------------------------------------------------
set {
	reference rhf
	basis 6-31G*
}

set_num_threads( 4 )
memory 2 gb

molecule MOL {
0 1

H	 1.894056	 -1.292696	 -0.869984
C	 1.007505	 -1.914759	 -1.042804
C	 -0.293561	 -1.161797	 -1.148701
O	 1.114893	 -3.094762	 -1.133297
C	 -0.558097	 -0.297372	 0.091132
H	 -1.089742	 -1.879730	 -1.307280
H	 -0.236315	 -0.522178	 -2.028724
C	 -1.850991	 0.512573	 -0.019058
H	 -0.606001	 -0.936237	 0.969955
H	 0.278786	 0.380819	 0.247786
C	 -3.096943	 -0.368295	 -0.099594
H	 -1.800724	 1.150330	 -0.898172
H	 -1.931651	 1.177355	 0.838044
H	 -3.060452	 -1.020287	 -0.967456
H	 -3.996858	 0.233488	 -0.175704
H	 -3.191959	 -0.995686	 0.782074

	symmetry c1
}
set optking {
	frozen_dihedral = ("
		9 5 8 12
	")
}

ee = optimize('scf')
oeprop('DIPOLE', 'QUADRUPOLE', 'MULLIKEN_CHARGES')
f=open( 'psi4out.xyz', 'w' )
f.write( "16  " )
f.write( str(ee) + "\n" )
f.write( MOL.save_string_xyz() )
f.close()
--------------------------------------------------------------------------

    Molecular point group: c1
  Charge       = 0
  Multiplicity = 1
  Basis Set: 6-31G*
  Basis Set:
  @DF-RHF Final Energy:  -270.01790684756094
    Total Energy =                       -270.0179068475609938
    Molecular point group: c1
  Basis Set: 6-31G*
  Basis Set:
  Basis Set: 6-31G*
  Basis Set:
  @DF-RHF Final Energy:  -270.01812382201490
    Total Energy =                       -270.0181238220148430
  Basis Set: 6-31G*
  Basis Set:
  Basis Set: 6-31G*
  Basis Set:
  @DF-RHF Final Energy:  -270.01827771803505
    Total Energy =                       -270.0182777180350513
  Basis Set: 6-31G*
  Basis Set:
  Basis Set: 6-31G*
  Basis Set:
  @DF-RHF Final Energy:  -270.01846676492539
    Total Energy =                       -270.0184667649253356
  Basis Set: 6-31G*
  Basis Set:
  Basis Set: 6-31G*
  Basis Set:
  @DF-RHF Final Energy:  -270.01848512460401
    Total Energy =                       -270.0184851246039557
  Basis Set: 6-31G*
  Basis Set:
  Basis Set: 6-31G*
  Basis Set:
  @DF-RHF Final Energy:  -270.01849350349062
    Total Energy =                       -270.0184935034903901
  Basis Set: 6-31G*
  Basis Set:
  Charge       = 0
  Multiplicity = 1
  Basis Set: 6-31G*
  Basis Set:

    Orbital Energies (a.u.)
    -----------------------

    Doubly Occupied:

       1A    -20.562563     2A    -11.326565     3A    -11.236880
       4A    -11.234848     5A    -11.229609     6A    -11.217716
       7A     -1.402376     8A     -1.096201     9A     -1.015480
      10A     -0.912453    11A     -0.810139    12A     -0.790307
      13A     -0.678302    14A     -0.644758    15A     -0.627400
      16A     -0.607476    17A     -0.579884    18A     -0.550966
      19A     -0.539366    20A     -0.504669    21A     -0.486802
      22A     -0.480440    23A     -0.473550    24A     -0.409699

  @DF-RHF Final Energy:  -270.01849356935935

   => Energetics <=

    Nuclear Repulsion Energy =            231.8077614932647066
    One-Electron Energy =                -824.8156128825498854
    Two-Electron Energy =                 322.9893578199258286
    DFT Exchange-Correlation Energy =       0.0000000000000000
    Empirical Dispersion Energy =           0.0000000000000000
    PCM Polarization Energy =               0.0000000000000000
    EFP Energy =                            0.0000000000000000
    Total Energy =                       -270.0184935693593502
    Molecular point group: c1
  Basis Set: 6-31G*
  Basis Set:

  -Total Gradient:
     Atom            X                  Y                   Z
    ------   -----------------  -----------------  -----------------
       1        0.000004636038     0.000004190338    -0.000046407103
       2       -0.000029373807    -0.000055735887     0.000147222370
       3       -0.000015814397    -0.000022101043     0.000002756144
       4        0.000017924181     0.000009717829    -0.000055468597
       5        0.000047954239     0.000115458438     0.000053460512
       6        0.000029359955    -0.000004268207    -0.000033060451
       7        0.000010844856     0.000012217626    -0.000002684881
       8        0.000029186081     0.000083372475     0.000094626805
       9       -0.000022440930    -0.000090085912    -0.000098854122
      10       -0.000024879894     0.000034378328     0.000016444279
      11        0.000000955513    -0.000001051478    -0.000014519080
      12       -0.000054126874    -0.000099602142    -0.000064866193
      13        0.000013196922    -0.000008854144    -0.000004410420
      14       -0.000031824347     0.000001232501     0.000001978275
      15        0.000007242060     0.000011699335     0.000003021651
      16        0.000017160405     0.000009431944     0.000000760814

  **** Optimization is complete! (in 7 steps) ****
    Final optimized geometry and variables:
    Molecular point group: c1

    Geometry (in Angstrom), charge = 0, multiplicity = 1:

    H            2.517043068659    -0.156568529129    -0.322436916553
    C            1.660544493986    -0.822299999780    -0.483134225059
    C            0.324341214420    -0.133907467331    -0.594435697027
    O            1.823420877642    -1.997115288903    -0.555959245054
    C            0.030177702355     0.730305016848     0.640467119101
    H           -0.430399050921    -0.894128741819    -0.748884383103
    H            0.351861124621     0.501404602137    -1.479378533412
    C           -1.250902709425     1.563574680027     0.527900834653
    H           -0.030607315874     0.090325269365     1.517792002745
    H            0.868291590078     1.403545875971     0.807785584397
    C           -2.537484600827     0.739013482043     0.467491352445
    H           -1.186936270482     2.202408747527    -0.350344388893
    H           -1.300085338344     2.228792869062     1.385746132085
    H           -2.585001845312     0.123244876096    -0.424474540739
    H           -3.407677683044     1.387542626338     0.461301563145
    H           -2.620836959541     0.082360309839     1.328914096464

  Mulliken Charges: (a.u.)
   Center  Symbol    Alpha    Beta     Spin     Total
       1     H     0.43211  0.43211  0.00000  0.13579
       2     C     2.82979  2.82979  0.00000  0.34041
       3     C     3.20962  3.20962  0.00000 -0.41923
       4     O     4.23690  4.23690  0.00000 -0.47380
       5     C     3.16598  3.16598  0.00000 -0.33195
       6     H     0.39743  0.39743  0.00000  0.20513
       7     H     0.41044  0.41044  0.00000  0.17912
       8     C     3.15261  3.15261  0.00000 -0.30522
       9     H     0.41292  0.41292  0.00000  0.17417
      10     H     0.41768  0.41768  0.00000  0.16464
      11     C     3.24257  3.24257  0.00000 -0.48515
      12     H     0.42121  0.42121  0.00000  0.15758
      13     H     0.41682  0.41682  0.00000  0.16636
      14     H     0.41838  0.41838  0.00000  0.16323
      15     H     0.41641  0.41641  0.00000  0.16718
      16     H     0.41913  0.41913  0.00000  0.16174

   Total alpha = 24.00000, Total beta = 24.00000, Total charge = -0.00000
