  ==> Input File <==

--------------------------------------------------------------------------
set {
	reference rhf
	basis 6-31G*
}

set_num_threads( 4 )
memory 2 gb

molecule MOL {
0 1

H	 1.609102	 -1.754437	 0.431404
O	 0.935756	 -1.175817	 0.103539
C	 1.135793	 0.118896	 0.612333
C	 0.031547	 1.023609	 0.088541
H	 2.100456	 0.508806	 0.292514
H	 1.137101	 0.105473	 1.699953
C	 -1.134819	 0.293262	 -0.585751
H	 0.474374	 1.714721	 -0.623187
H	 -0.338529	 1.620940	 0.920081
C	 -1.917817	 -0.639439	 0.339494
H	 -0.758119	 -0.268455	 -1.433105
H	 -1.813832	 1.041889	 -0.986690
H	 -2.777680	 -1.057197	 -0.174994
H	 -1.310268	 -1.471279	 0.680599
H	 -2.283753	 -0.111424	 1.216626

	symmetry c1
}
set optking {
	frozen_dihedral = ("
		2 3 4 8
	")
}

ee = optimize('scf')
oeprop('DIPOLE', 'QUADRUPOLE', 'MULLIKEN_CHARGES')
f=open( 'psi4out.xyz', 'w' )
f.write( "15  " )
f.write( str(ee) + "\n" )
f.write( MOL.save_string_xyz() )
f.close()
--------------------------------------------------------------------------

    Molecular point group: c1
  Charge       = 0
  Multiplicity = 1
  Basis Set: 6-31G*
  Basis Set:
  @DF-RHF Final Energy:  -232.13437180933397
    Total Energy =                       -232.1343718093337998
    Molecular point group: c1
  Basis Set: 6-31G*
  Basis Set:
  Basis Set: 6-31G*
  Basis Set:
  @DF-RHF Final Energy:  -232.13630533163553
    Total Energy =                       -232.1363053316354694
  Basis Set: 6-31G*
  Basis Set:
  Basis Set: 6-31G*
  Basis Set:
  @DF-RHF Final Energy:  -232.13675114554374
    Total Energy =                       -232.1367511455439967
  Basis Set: 6-31G*
  Basis Set:
  Basis Set: 6-31G*
  Basis Set:
  @DF-RHF Final Energy:  -232.13681652035220
    Total Energy =                       -232.1368165203522267
  Basis Set: 6-31G*
  Basis Set:
  Basis Set: 6-31G*
  Basis Set:
  @DF-RHF Final Energy:  -232.13683374485910
    Total Energy =                       -232.1368337448592456
  Basis Set: 6-31G*
  Basis Set:
  Basis Set: 6-31G*
  Basis Set:
  @DF-RHF Final Energy:  -232.13683653564485
    Total Energy =                       -232.1368365356447043
  Basis Set: 6-31G*
  Basis Set:
  Charge       = 0
  Multiplicity = 1
  Basis Set: 6-31G*
  Basis Set:

    Orbital Energies (a.u.)
    -----------------------

    Doubly Occupied:

       1A    -20.554360     2A    -11.269499     3A    -11.213204
       4A    -11.206140     5A    -11.195899     6A     -1.360755
       7A     -1.057968     8A     -0.966511     9A     -0.864105
      10A     -0.773682    11A     -0.702506    12A     -0.648327
      13A     -0.606187    14A     -0.571264    15A     -0.556231
      16A     -0.526533    17A     -0.505867    18A     -0.474900
      19A     -0.462327    20A     -0.449368    21A     -0.424812

  @DF-RHF Final Energy:  -232.13683672881021

   => Energetics <=

    Nuclear Repulsion Energy =            193.2057678101411113
    One-Electron Energy =                -697.9043190017894176
    Two-Electron Energy =                 272.5617144628379265
    DFT Exchange-Correlation Energy =       0.0000000000000000
    Empirical Dispersion Energy =           0.0000000000000000
    PCM Polarization Energy =               0.0000000000000000
    EFP Energy =                            0.0000000000000000
    Total Energy =                       -232.1368367288104082
    Molecular point group: c1
  Basis Set: 6-31G*
  Basis Set:

  -Total Gradient:
     Atom            X                  Y                   Z
    ------   -----------------  -----------------  -----------------
       1        0.000000171639     0.000004636379    -0.000002672703
       2       -0.002333772457    -0.001233009682     0.003111247116
       3        0.003233797528     0.002348382484    -0.003168104092
       4       -0.001584650459    -0.004303810273    -0.004027817698
       5       -0.000000620362    -0.000001180501     0.000001948700
       6        0.000000066073     0.000005379044     0.000000119326
       7        0.000008321727    -0.000014653151    -0.000005060138
       8        0.000666060511     0.003185751224     0.004090725594
       9        0.000004707985     0.000004347718     0.000002065421
      10        0.000010121104    -0.000002294909     0.000004185326
      11       -0.000003953307    -0.000003941179    -0.000009022235
      12        0.000004405422    -0.000002753233     0.000007475723
      13        0.000002006146     0.000003874255    -0.000000573965
      14       -0.000003745424     0.000009008265    -0.000007075687
      15       -0.000002916130     0.000000263559     0.000002559312

  **** Optimization is complete! (in 7 steps) ****
    Final optimized geometry and variables:
    Molecular point group: c1

    Geometry (in Angstrom), charge = 0, multiplicity = 1:

    H            1.950389028476    -1.587064573151     0.228329854337
    O            1.223192039611    -1.064238815654    -0.077781799567
    C            1.305579947470     0.220423505086     0.489159987561
    C            0.155981483816     1.114547630530    -0.018316970710
    H            2.261221826206     0.678683672656     0.247038037476
    H            1.255811400177     0.138059828427     1.572544252172
    C           -1.011051172999     0.395265247839    -0.701660254006
    H            0.562495096819     1.876421476533    -0.677329221347
    H           -0.233415473483     1.669778594354     0.832736803274
    C           -1.853783314385    -0.454432512966     0.249793636471
    H           -0.637550541714    -0.222138421667    -1.509498718489
    H           -1.645938767651     1.153906580875    -1.153490738844
    H           -2.685017553524    -0.913833935570    -0.277084304509
    H           -1.263568753079    -1.246511753736     0.694016815425
    H           -2.268839704051     0.152162714877     1.051242088817

  Mulliken Charges: (a.u.)
   Center  Symbol    Alpha    Beta     Spin     Total
       1     H     0.28029  0.28029  0.00000  0.43943
       2     O     4.37104  4.37104  0.00000 -0.74208
       3     C     2.99321  2.99321  0.00000  0.01357
       4     C     3.17473  3.17473  0.00000 -0.34946
       5     H     0.42852  0.42852  0.00000  0.14296
       6     H     0.43018  0.43018  0.00000  0.13964
       7     C     3.14565  3.14565  0.00000 -0.29129
       8     H     0.41805  0.41805  0.00000  0.16390
       9     H     0.42182  0.42182  0.00000  0.15635
      10     C     3.24219  3.24219  0.00000 -0.48437
      11     H     0.40876  0.40876  0.00000  0.18248
      12     H     0.42510  0.42510  0.00000  0.14979
      13     H     0.42238  0.42238  0.00000  0.15523
      14     H     0.40989  0.40989  0.00000  0.18022
      15     H     0.42818  0.42818  0.00000  0.14364

   Total alpha = 21.00000, Total beta = 21.00000, Total charge = -0.00000
