  ==> Input File <==

--------------------------------------------------------------------------
set {
	reference rhf
	basis cc-pvtz
}

set_num_threads( 4 )
memory 2 gb

molecule MOL {
0 1

H	 -0.366580	 2.045936	 -0.305741
C	 0.351829	 1.335402	 0.083179
N	 -0.000018	 0.000080	 -0.334836
H	 1.327156	 1.599860	 -0.305475
H	 0.380566	 1.445403	 1.171445
C	 0.931761	 -0.983869	 0.161162
C	 -1.363732	 -0.329644	 0.002516
H	 0.678479	 -1.961940	 -0.227832
H	 1.934476	 -0.742760	 -0.168407
H	 0.940939	 -1.046521	 1.253435
H	 -2.039240	 0.389587	 -0.443104
H	 -1.614514	 -1.308530	 -0.386093
H	 -1.543504	 -0.338151	 1.081738

	symmetry c1
}
set optking {
	frozen_dihedral = ("
		6 3 2 1
	")
}

ee = optimize('scf')
oeprop('DIPOLE', 'QUADRUPOLE', 'MULLIKEN_CHARGES')
f=open( 'psi4out.xyz', 'w' )
f.write( "13  " )
f.write( str(ee) + "\n" )
f.write( MOL.save_string_xyz() )
f.close()
--------------------------------------------------------------------------

    Molecular point group: c1
  Charge       = 0
  Multiplicity = 1
  Basis Set: CC-PVTZ
  Basis Set:
  @DF-RHF Final Energy:  -173.33394848782248
    Total Energy =                       -173.3339484878223971
    Molecular point group: c1
  Basis Set: CC-PVTZ
  Basis Set:
  Basis Set: CC-PVTZ
  Basis Set:
  @DF-RHF Final Energy:  -173.33395797052299
    Total Energy =                       -173.3339579705230165
  Basis Set: CC-PVTZ
  Basis Set:
  Charge       = 0
  Multiplicity = 1
  Basis Set: CC-PVTZ
  Basis Set:

    Orbital Energies (a.u.)
    -----------------------

    Doubly Occupied:

       1A    -15.539676     2A    -11.234324     3A    -11.234306
       4A    -11.234274     5A     -1.227321     6A     -0.952378
       7A     -0.952255     8A     -0.806986     9A     -0.643492
      10A     -0.631671    11A     -0.631384    12A     -0.544318
      13A     -0.543558    14A     -0.517276    15A     -0.502279
      16A     -0.502265    17A     -0.349728

  @DF-RHF Final Energy:  -173.33395873507811

   => Energetics <=

    Nuclear Repulsion Energy =            139.4800034337563375
    One-Electron Energy =                -509.5329435590222147
    Two-Electron Energy =                 196.7189813901877358
    DFT Exchange-Correlation Energy =       0.0000000000000000
    Empirical Dispersion Energy =           0.0000000000000000
    PCM Polarization Energy =               0.0000000000000000
    EFP Energy =                            0.0000000000000000
    Total Energy =                       -173.3339587350781414
    Molecular point group: c1
  Basis Set: CC-PVTZ
  Basis Set:

  -Total Gradient:
     Atom            X                  Y                   Z
    ------   -----------------  -----------------  -----------------
       1       -0.000518997966    -0.000083656576     0.000791293275
       2        0.000440468085     0.000076266894    -0.000754378122
       3        0.000405825860     0.000061070212    -0.000583976518
       4        0.000026523515    -0.000013326889    -0.000004466751
       5       -0.000002172037     0.000010474837    -0.000016182683
       6       -0.000413565246    -0.000066206440     0.000540034817
       7        0.000023496249     0.000064419936    -0.000020697264
       8        0.000018962556    -0.000018813913     0.000013407443
       9        0.000021761715    -0.000014799200     0.000009209510
      10        0.000004834004    -0.000003103637     0.000011704438
      11       -0.000024425911    -0.000002241904     0.000004841021
      12        0.000020704057    -0.000001142819    -0.000000418298
      13       -0.000003414880    -0.000008940503     0.000009629133

  **** Optimization is complete! (in 3 steps) ****
    Final optimized geometry and variables:
    Molecular point group: c1

    Geometry (in Angstrom), charge = 0, multiplicity = 1:

    H           -0.341342275220     2.041537028852    -0.305120288167
    C            0.374987092555     1.328938014161     0.083412707617
    N            0.020603356887    -0.005435073946    -0.336680169587
    H            1.354173102418     1.591134063082    -0.297277860278
    H            0.395316714742     1.438349581122     1.172278592276
    C            0.951817183621    -0.989177696373     0.160655494986
    C           -1.341806966276    -0.335642719155     0.006334582080
    H            0.702257117115    -1.967361119971    -0.230716596506
    H            1.955799354836    -0.746099700722    -0.164277859072
    H            0.957271189758    -1.053233122731     1.253119600511
    H           -2.020405472111     0.379515184272    -0.441107769446
    H           -1.591307559322    -1.317136665956    -0.376726894331
    H           -1.519397968691    -0.340215968332     1.086278220522

  Mulliken Charges: (a.u.)
   Center  Symbol    Alpha    Beta     Spin     Total
       1     H     0.45294  0.45294  0.00000  0.09413
       2     C     3.08903  3.08903  0.00000 -0.17805
       3     N     3.59552  3.59552  0.00000 -0.19105
       4     H     0.45207  0.45207  0.00000  0.09586
       5     H     0.47405  0.47405  0.00000  0.05190
       6     C     3.08925  3.08925  0.00000 -0.17850
       7     C     3.08904  3.08904  0.00000 -0.17807
       8     H     0.45255  0.45255  0.00000  0.09489
       9     H     0.45269  0.45269  0.00000  0.09461
      10     H     0.47373  0.47373  0.00000  0.05254
      11     H     0.45247  0.45247  0.00000  0.09507
      12     H     0.45259  0.45259  0.00000  0.09481
      13     H     0.47407  0.47407  0.00000  0.05186

   Total alpha = 17.00000, Total beta = 17.00000, Total charge = -0.00000
