  ==> Input File <==

--------------------------------------------------------------------------
set {
	reference rhf
	basis 6-31G*
}

set_num_threads( 1 )
memory 2 gb

molecule MOL {
0 1

H	 2.591676	 2.013956	 0.335017
O	 3.341076	 1.666752	 -0.126416
C	 3.569581	 0.339145	 0.272707
C	 2.539767	 -0.640285	 -0.279495
H	 4.553106	 0.084646	 -0.100901
H	 3.608576	 0.269204	 1.359154
C	 1.349537	 -0.882767	 0.651860
H	 2.184482	 -0.264539	 -1.235504
H	 3.042715	 -1.585448	 -0.477174
C	 0.361624	 -1.910904	 0.093487
H	 0.834637	 0.058006	 0.825613
H	 1.712130	 -1.225609	 1.621049
C	 -0.805836	 -2.254517	 1.025854
H	 -0.030184	 -1.551714	 -0.856416
H	 0.904698	 -2.826771	 -0.130028
C	 -1.785096	 -1.105797	 1.282700
H	 -1.355090	 -3.087952	 0.592814
H	 -0.413279	 -2.613211	 1.976156
C	 -2.987119	 -1.525684	 2.131389
H	 -2.138502	 -0.715389	 0.329392
H	 -1.275389	 -0.283282	 1.778654
C	 -3.962936	 -0.379325	 2.394649
H	 -3.511886	 -2.338942	 1.634680
H	 -2.635523	 -1.925061	 3.080475
H	 -4.357842	 0.020680	 1.464988
H	 -4.804307	 -0.708791	 2.996463
H	 -3.477278	 0.435794	 2.923876

	symmetry c1
}
set optking {
	frozen_dihedral = ("
		14 10 7 4,
		14 10 13 16,
		10 7 4 8,
		10 13 16 20,
		20 16 19 22,
		4 3 2 1
	")
}

ee = energy('scf')
oeprop('DIPOLE', 'QUADRUPOLE', 'MULLIKEN_CHARGES')
f=open( 'psi4out.xyz', 'w' )
f.write( "27  " )
f.write( str(ee) + "\n" )
f.write( MOL.save_string_xyz() )
f.close()
--------------------------------------------------------------------------

    Molecular point group: c1

    Geometry (in Angstrom), charge = 0, multiplicity = 1:

       Center              X                  Y                   Z               Mass
    ------------   -----------------  -----------------  -----------------  -----------------
           H          2.375044620003     2.705799537884    -0.488091720747     1.007825032070
           O          3.124444620003     2.358595537884    -0.949524720747    15.994914619560
           C          3.352949620003     1.030988537884    -0.550401720747    12.000000000000
           C          2.323135620003     0.051558537884    -1.102603720747    12.000000000000
           H          4.336474620003     0.776489537884    -0.924009720747     1.007825032070
           H          3.391944620003     0.961047537884     0.536045279253     1.007825032070
           C          1.132905620003    -0.190923462116    -0.171248720747    12.000000000000
           H          1.967850620003     0.427304537884    -2.058612720747     1.007825032070
           H          2.826083620003    -0.893604462116    -1.300282720747     1.007825032070
           C          0.144992620003    -1.219060462116    -0.729621720747    12.000000000000
           H          0.618005620003     0.749849537884     0.002504279253     1.007825032070
           H          1.495498620003    -0.533765462116     0.797940279253     1.007825032070
           C         -1.022467379997    -1.562673462116     0.202745279253    12.000000000000
           H         -0.246815379997    -0.859870462116    -1.679524720747     1.007825032070
           H          0.688066620003    -2.134927462116    -0.953136720747     1.007825032070
           C         -2.001727379997    -0.413953462116     0.459591279253    12.000000000000
           H         -1.571721379997    -2.396108462116    -0.230294720747     1.007825032070
           H         -0.629910379997    -1.921367462116     1.153047279253     1.007825032070
           C         -3.203750379997    -0.833840462116     1.308280279253    12.000000000000
           H         -2.355133379997    -0.023545462116    -0.493716720747     1.007825032070
           H         -1.492020379997     0.408561537884     0.955545279253     1.007825032070
           C         -4.179567379997     0.312518537884     1.571540279253    12.000000000000
           H         -3.728517379997    -1.647098462116     0.811571279253     1.007825032070
           H         -2.852154379997    -1.233217462116     2.257366279253     1.007825032070
           H         -4.574473379997     0.712523537884     0.641879279253     1.007825032070
           H         -5.020938379997    -0.016947462116     2.173354279253     1.007825032070
           H         -3.693909379997     1.127637537884     2.100767279253     1.007825032070

  Charge       = 0
  Multiplicity = 1
  Basis Set: 6-31G*
  Basis Set:

    Orbital Energies (a.u.)
    -----------------------

    Doubly Occupied:

       1A    -20.551410     2A    -11.266105     3A    -11.219736
       4A    -11.216938     5A    -11.216426     6A    -11.215738
       7A    -11.214679     8A    -11.213634     9A    -11.209863
      10A     -1.358288    11A     -1.095525    12A     -1.062114
      13A     -1.011702    14A     -0.947507    15A     -0.886518
      16A     -0.820551    17A     -0.803344    18A     -0.778916
      19A     -0.691252    20A     -0.653834    21A     -0.640577
      22A     -0.611654    23A     -0.600102    24A     -0.583069
      25A     -0.578597    26A     -0.551571    27A     -0.538998
      28A     -0.533001    29A     -0.505885    30A     -0.499676
      31A     -0.484181    32A     -0.474470    33A     -0.465490
      34A     -0.460906    35A     -0.453563    36A     -0.441245
      37A     -0.421664

  @DF-RHF Final Energy:  -388.27856573118680

   => Energetics <=

    Nuclear Repulsion Energy =            457.2877112406812898
    One-Electron Energy =               -1432.5750493726595778
    Two-Electron Energy =                 587.0087724007914858
    DFT Exchange-Correlation Energy =       0.0000000000000000
    Empirical Dispersion Energy =           0.0000000000000000
    PCM Polarization Energy =               0.0000000000000000
    EFP Energy =                            0.0000000000000000
    Total Energy =                       -388.2785657311867453

  Mulliken Charges: (a.u.)
   Center  Symbol    Alpha    Beta     Spin     Total
       1     H     0.28246  0.28246  0.00000  0.43508
       2     O     4.36998  4.36998  0.00000 -0.73996
       3     C     2.99673  2.99673  0.00000  0.00653
       4     C     3.16851  3.16851  0.00000 -0.33703
       5     H     0.41451  0.41451  0.00000  0.17098
       6     H     0.43085  0.43085  0.00000  0.13830
       7     C     3.15863  3.15863  0.00000 -0.31725
       8     H     0.41085  0.41085  0.00000  0.17831
       9     H     0.42235  0.42235  0.00000  0.15529
      10     C     3.15285  3.15285  0.00000 -0.30570
      11     H     0.42685  0.42685  0.00000  0.14630
      12     H     0.42348  0.42348  0.00000  0.15303
      13     C     3.15342  3.15342  0.00000 -0.30683
      14     H     0.42240  0.42240  0.00000  0.15521
      15     H     0.42116  0.42116  0.00000  0.15768
      16     C     3.15253  3.15253  0.00000 -0.30507
      17     H     0.42125  0.42125  0.00000  0.15749
      18     H     0.42404  0.42404  0.00000  0.15192
      19     C     3.15120  3.15120  0.00000 -0.30240
      20     H     0.42415  0.42415  0.00000  0.15170
      21     H     0.42363  0.42363  0.00000  0.15274
      22     C     3.23920  3.23920  0.00000 -0.47839
      23     H     0.42277  0.42277  0.00000  0.15446
      24     H     0.42309  0.42309  0.00000  0.15383
      25     H     0.42165  0.42165  0.00000  0.15671
      26     H     0.41910  0.41910  0.00000  0.16181
      27     H     0.42237  0.42237  0.00000  0.15526

   Total alpha = 37.00000, Total beta = 37.00000, Total charge = -0.00000
