                              Psi4 1.0.54 Driver

  ==> Input File <==

--------------------------------------------------------------------------
set {
	reference rhf
	basis cc-pvtz
}

set_num_threads( 4 )
memory 2 gb

molecule MOL {
0 1

H	 2.471598	 0.402207	 -1.147865
O	 1.618483	 -0.001662	 -1.200980
C	 1.050374	 0.054877	 0.000135
C	 -0.318151	 -0.570512	 0.000144
O	 1.591021	 0.546692	 0.929536
C	 -1.454884	 0.441630	 -0.000560
H	 -0.371613	 -1.223646	 -0.864985
H	 -0.371920	 -1.222758	 0.865929
C	 -2.822577	 -0.232186	 0.000063
H	 -1.359760	 1.084704	 -0.867077
H	 -1.359641	 1.085996	 0.864983
H	 -2.954352	 -0.858985	 -0.875745
H	 -3.615886	 0.505352	 0.000019
H	 -2.953878	 -0.858359	 0.876394

	symmetry c1
}
set optking {
	frozen_dihedral = ("
		2 3 4 7
	")
}

ee,wfn = optimize('scf', return_wfn=True)
oeprop( wfn, 'DIPOLE', 'QUADRUPOLE', 'MULLIKEN_CHARGES')
f=open( 'psi4out.xyz', 'w' )
f.write( "14  " )
f.write( str(ee) + "\n" )
f.write( MOL.save_string_xyz() )
f.close()
--------------------------------------------------------------------------

    Molecular point group: c1
  Charge       = 0
  Multiplicity = 1
  Basis Set: CC-PVTZ
  Basis Set:
  @DF-RHF Final Energy:  -305.99862622226510
    Total Energy =                       -305.9986262222653295
    Molecular point group: c1
  Basis Set: CC-PVTZ
  Basis Set:
  Basis Set: CC-PVTZ
  Basis Set:
  @DF-RHF Final Energy:  -305.99914282744169
    Total Energy =                       -305.9991428274415739
  Basis Set: CC-PVTZ
  Basis Set:
  Basis Set: CC-PVTZ
  Basis Set:
  @DF-RHF Final Energy:  -305.88997583390301
    Total Energy =                       -305.8899758339030654
  Basis Set: CC-PVTZ
  Basis Set:
  Basis Set: CC-PVTZ
  Basis Set:
  @DF-RHF Final Energy:  -305.98490390370267
    Total Energy =                       -305.9849039037027296
  Basis Set: CC-PVTZ
  Basis Set:
  @DF-RHF Final Energy:  -305.99836490542020
    Total Energy =                       -305.9983649054200896
  @DF-RHF Final Energy:  -304.86943175838712
    Total Energy =                       -304.8694317583871225
  @DF-RHF Final Energy:  -305.19833275708595
    Total Energy =                       -305.1983327570860069
  @DF-RHF Final Energy:  -305.58611759895439
    Total Energy =                       -305.5861175989543312
  @DF-RHF Final Energy:  -305.61086304554181
    Total Energy =                       -305.6108630455419188
  @DF-RHF Final Energy:  -305.75344994967099
    Total Energy =                       -305.7534499496709941
  @DF-RHF Final Energy:  -305.83222825909036
    Total Energy =                       -305.8322282590902432
  @DF-RHF Final Energy:  -305.96709913981272
    Total Energy =                       -305.9670991398127740
  @DF-RHF Final Energy:  -305.99533330202905
    Total Energy =                       -305.9953333020289961
  @DF-RHF Final Energy:  -305.64695853712391
    Total Energy =                       -305.6469585371239646
  @DF-RHF Final Energy:  -305.92945718905662
    Total Energy =                       -305.9294571890565635
  @DF-RHF Final Energy:  -305.97065503514170
    Total Energy =                       -305.9706550351417604
  @DF-RHF Final Energy:  -305.99059264759194
    Total Energy =                       -305.9905926475917113
  @DF-RHF Final Energy:  -305.99062323280293
    Total Energy =                       -305.9906232328031024
  @DF-RHF Final Energy:  -305.99924070554471
    Total Energy =                       -305.9992407055447075
  Basis Set: CC-PVTZ
  Basis Set:
  @DF-RHF Final Energy:  -305.99944213451181
    Total Energy =                       -305.9994421345118099
  Basis Set: CC-PVTZ
  Basis Set:
  Basis Set: CC-PVTZ
  Basis Set:
  @DF-RHF Final Energy:  -305.99944446627330
    Total Energy =                       -305.9994444662731894
  Basis Set: CC-PVTZ
  Basis Set:
  Basis Set: CC-PVTZ
  Basis Set:
  @DF-RHF Final Energy:  -305.99946009857285
    Total Energy =                       -305.9994600985725697
  Basis Set: CC-PVTZ
  Basis Set:
  Charge       = 0
  Multiplicity = 1
  Basis Set: CC-PVTZ
  Basis Set:

    Orbital Energies (a.u.)
    -----------------------

    Doubly Occupied:

       1A    -20.606150     2A    -20.538120     3A    -11.372981
       4A    -11.237996     5A    -11.233340     6A    -11.218881
       7A     -1.477923     8A     -1.368194     9A     -1.087049
      10A     -0.980639    11A     -0.855162    12A     -0.807601
      13A     -0.706357    14A     -0.689491    15A     -0.647461
      16A     -0.635908    17A     -0.596670    18A     -0.570745
      19A     -0.553381    20A     -0.517051    21A     -0.499125
      22A     -0.489342    23A     -0.474586    24A     -0.442641

  @DF-RHF Final Energy:  -305.99946342783664

   => Energetics <=

    Nuclear Repulsion Energy =            240.7399258489948295
    One-Electron Energy =                -894.2651852374573309
    Two-Electron Energy =                 347.5257959606259419
    DFT Exchange-Correlation Energy =       0.0000000000000000
    Empirical Dispersion Energy =           0.0000000000000000
    PCM Polarization Energy =               0.0000000000000000
    EFP Energy =                            0.0000000000000000
    Total Energy =                       -305.9994634278365311
    Molecular point group: c1
  Basis Set: CC-PVTZ
  Basis Set:

  -Total Gradient:
     Atom            X                  Y                   Z
    ------   -----------------  -----------------  -----------------
       1        0.000050918703     0.000028225451    -0.000048851773
       2       -0.000165633815     0.000256335213     0.000194172287
       3        0.000142392105    -0.000456850352    -0.000213692966
       4       -0.000115576981     0.000559810820     0.000195711659
       5        0.000001185211     0.000005466315    -0.000020505776
       6        0.000007885583    -0.000036045169    -0.000034777264
       7        0.000089017081    -0.000367743250    -0.000124299471
       8        0.000000413125    -0.000008333338     0.000010991081
       9       -0.000045191665    -0.000007335809     0.000030720825
      10       -0.000001063910     0.000016582966     0.000002803805
      11        0.000008122618     0.000000532066     0.000024233304
      12       -0.000000384491     0.000006757529    -0.000015106719
      13        0.000006708091     0.000005093841    -0.000004127088
      14        0.000021208340    -0.000002496286     0.000002728096

  **** Optimization is complete! (in 23 steps) ****
    Final optimized geometry and variables:
    Molecular point group: c1

    Geometry (in Angstrom), charge = 0, multiplicity = 1:

    H            2.648758688786     0.662783497931     0.056878206029
    O            1.900244172109     0.334001266115     0.532501231846
    C            0.799338723638     0.694624261144    -0.118088725333
    C           -0.460243915940     0.185622619098     0.529362545199
    O            0.836679825266     1.331461906454    -1.114614534543
    C           -1.005403420010    -1.035521301797    -0.220977220822
    H           -0.261488271892    -0.066957746847     1.561734215412
    H           -1.185136892571     0.988435270545     0.497900167365
    C           -2.299850561701    -1.554981844977     0.393150913096
    H           -0.258056679622    -1.822436282449    -0.214778139472
    H           -1.169928774104    -0.765199387278    -1.257033927272
    H           -2.152942049723    -1.854787232088     1.425045413567
    H           -2.667428607588    -2.415333942000    -0.152923797676
    H           -3.073198254890    -0.794884952532     0.374728832074

  Mulliken Charges: (a.u.)
   Center  Symbol    Alpha    Beta     Spin     Total
       1     H     0.38013  0.38013  0.00000  0.23974
       2     O     4.16136  4.16136  0.00000 -0.32271
       3     C     2.80518  2.80518  0.00000  0.38964
       4     C     3.08768  3.08768  0.00000 -0.17536
       5     O     4.19953  4.19953  0.00000 -0.39906
       6     C     3.09261  3.09261  0.00000 -0.18522
       7     H     0.44119  0.44119  0.00000  0.11763
       8     H     0.44004  0.44004  0.00000  0.11992
       9     C     3.14998  3.14998  0.00000 -0.29995
      10     H     0.44860  0.44860  0.00000  0.10281
      11     H     0.44121  0.44121  0.00000  0.11759
      12     H     0.45401  0.45401  0.00000  0.09198
      13     H     0.44562  0.44562  0.00000  0.10876
      14     H     0.45288  0.45288  0.00000  0.09424

   Total alpha = 24.00000, Total beta = 24.00000, Total charge =  0.00000

*** Psi4 exiting successfully. Buy a developer a beer!
