  ==> Input File <==

--------------------------------------------------------------------------
set {
	reference rhf
	basis 6-31G*
}

set_num_threads( 4 )
memory 2 gb

molecule MOL {
0 1

H	 -5.864115	 -2.109429	 2.402685
O	 -5.769094	 -2.363382	 3.309079
C	 -4.778685	 -3.353515	 3.422127
C	 -3.365365	 -2.814765	 3.229766
H	 -4.882026	 -3.760600	 4.419763
H	 -4.969268	 -4.164963	 2.720693
C	 -3.097416	 -2.256099	 1.830136
H	 -3.187363	 -2.040845	 3.971878
H	 -2.663942	 -3.621073	 3.437706
C	 -1.655193	 -1.773200	 1.652316
H	 -3.781568	 -1.434620	 1.636555
H	 -3.311107	 -3.024172	 1.086671
C	 -1.309753	 -1.282496	 0.241564
H	 -1.452495	 -0.979465	 2.369076
H	 -0.982919	 -2.589850	 1.906938
C	 -2.037799	 -0.007733	 -0.193645
H	 -0.237730	 -1.102353	 0.195388
H	 -1.513294	 -2.076728	 -0.475098
C	 -3.489788	 0.042957	 0.286558
H	 -2.017067	 0.064384	 -1.280144
H	 -1.513726	 0.868678	 0.179924
C	 -4.216917	 1.317354	 -0.141063
H	 -4.025645	 -0.823308	 -0.095450
H	 -3.513059	 -0.038752	 1.371301
H	 -4.239342	 1.411634	 -1.223113
H	 -5.243387	 1.322503	 0.212445
H	 -3.726170	 2.201406	 0.256408

	symmetry c1
}
set optking {
	frozen_dihedral = ("
		10 13 16 20
	")
}

ee = optimize('scf')
oeprop('DIPOLE', 'QUADRUPOLE', 'MULLIKEN_CHARGES')
f=open( 'psi4out.xyz', 'w' )
f.write( "27  " )
f.write( str(ee) + "\n" )
f.write( MOL.save_string_xyz() )
f.close()
--------------------------------------------------------------------------

    Molecular point group: c1
  Charge       = 0
  Multiplicity = 1
  Basis Set: 6-31G*
  Basis Set:
  @DF-RHF Final Energy:  -388.24910479974562
    Total Energy =                       -388.2491047997463056
    Molecular point group: c1
  Basis Set: 6-31G*
  Basis Set:
  Basis Set: 6-31G*
  Basis Set:
  @DF-RHF Final Energy:  -388.26732424599845
    Total Energy =                       -388.2673242459984522
  Basis Set: 6-31G*
  Basis Set:
  Basis Set: 6-31G*
  Basis Set:
  @DF-RHF Final Energy:  -388.27208706443878
    Total Energy =                       -388.2720870644382103
  Basis Set: 6-31G*
  Basis Set:
  Basis Set: 6-31G*
  Basis Set:
  @DF-RHF Final Energy:  -388.27349676168421
    Total Energy =                       -388.2734967616842141
  Basis Set: 6-31G*
  Basis Set:
  @DF-RHF Final Energy:  -388.27419340583361
    Total Energy =                       -388.2741934058338984
  @DF-RHF Final Energy:  -388.27404915184763
    Total Energy =                       -388.2740491518468389
  @DF-RHF Final Energy:  -388.27441088178870
    Total Energy =                       -388.2744108817882989
  @DF-RHF Final Energy:  -388.27443340493409
    Total Energy =                       -388.2744334049343706
  Basis Set: 6-31G*
  Basis Set:
  @DF-RHF Final Energy:  -388.27443937766486
    Total Energy =                       -388.2744393776641800
  Basis Set: 6-31G*
  Basis Set:
  Basis Set: 6-31G*
  Basis Set:
  @DF-RHF Final Energy:  -388.27444295646990
    Total Energy =                       -388.2744429564701250
  Basis Set: 6-31G*
  Basis Set:
  Basis Set: 6-31G*
  Basis Set:
  @DF-RHF Final Energy:  -388.27444406143456
    Total Energy =                       -388.2744440614339965
  Basis Set: 6-31G*
  Basis Set:
  Charge       = 0
  Multiplicity = 1
  Basis Set: 6-31G*
  Basis Set:

    Orbital Energies (a.u.)
    -----------------------

    Doubly Occupied:

       1A    -20.552209     2A    -11.266953     3A    -11.218990
       4A    -11.217308     5A    -11.216355     6A    -11.215945
       7A    -11.215113     8A    -11.214905     9A    -11.209107
      10A     -1.358953    11A     -1.093467    12A     -1.059581
      13A     -1.009596    14A     -0.950474    15A     -0.886316
      16A     -0.832436    17A     -0.795431    18A     -0.771328
      19A     -0.693800    20A     -0.652452    21A     -0.632501
      22A     -0.617802    23A     -0.600828    24A     -0.586128
      25A     -0.573610    26A     -0.565368    27A     -0.538991
      28A     -0.514849    29A     -0.505964    30A     -0.501237
      31A     -0.488211    32A     -0.480255    33A     -0.468884
      34A     -0.453396    35A     -0.444200    36A     -0.443253
      37A     -0.422656

  @DF-RHF Final Energy:  -388.27444412638829

   => Energetics <=

    Nuclear Repulsion Energy =            470.7908463182540117
    One-Electron Energy =               -1459.5928739747976124
    Two-Electron Energy =                 600.5275835301561074
    DFT Exchange-Correlation Energy =       0.0000000000000000
    Empirical Dispersion Energy =           0.0000000000000000
    PCM Polarization Energy =               0.0000000000000000
    EFP Energy =                            0.0000000000000000
    Total Energy =                       -388.2744441263874933
    Molecular point group: c1
  Basis Set: 6-31G*
  Basis Set:

  -Total Gradient:
     Atom            X                  Y                   Z
    ------   -----------------  -----------------  -----------------
       1        0.000002989720     0.000009379420    -0.000010333986
       2        0.000025186484     0.000005861051    -0.000020551171
       3       -0.000002296589    -0.000001357548     0.000043461003
       4       -0.000017200179    -0.000012164428    -0.000019780746
       5        0.000001952196    -0.000001527010     0.000004281139
       6        0.000005729623    -0.000000982743     0.000000694339
       7       -0.000012511781     0.000036167762     0.000020539061
       8       -0.000000169342    -0.000007404553     0.000012991081
       9       -0.000003635219    -0.000009296280    -0.000001070717
      10       -0.003877292488    -0.001986099793    -0.001302431943
      11       -0.000013012879    -0.000017954170    -0.000014527196
      12        0.000012810706     0.000001468683    -0.000024531188
      13        0.004587661384     0.002451384339     0.001966426692
      14        0.000010701553    -0.000000255072    -0.000021202319
      15       -0.000027953433     0.000005138168     0.000015799556
      16        0.004911364866     0.001609772523    -0.000886501250
      17        0.000018399697    -0.000038915166    -0.000038474966
      18       -0.000032562763    -0.000000826097     0.000046484407
      19       -0.000012216832     0.000020740739    -0.000002305135
      20       -0.005565639852    -0.002050031448     0.000253221707
      21        0.000014673457    -0.000009315163    -0.000006722921
      22       -0.000027525334    -0.000017252240     0.000000112133
      23       -0.000017267628     0.000007050136     0.000006441907
      24        0.000014185072    -0.000002123994    -0.000018261293
      25       -0.000000379884     0.000006781423    -0.000001329854
      26        0.000001963422     0.000003611074    -0.000007495821
      27        0.000002046021    -0.000001849607     0.000005067478

  **** Optimization is complete! (in 12 steps) ****
    Final optimized geometry and variables:
    Molecular point group: c1

    Geometry (in Angstrom), charge = 0, multiplicity = 1:

    H           -2.531677155715    -1.491797746533     0.833892285530
    O           -2.442270799355    -1.567202155034     1.772750500099
    C           -1.255641341619    -2.253232886127     2.081502624686
    C           -0.000736810417    -1.423171115661     1.834730896420
    H           -1.326678669312    -2.505747926966     3.131652975254
    H           -1.201236232394    -3.189329329267     1.526940298000
    C            0.216627544565    -1.047338766744     0.367008372904
    H           -0.060260915000    -0.520966361125     2.438003580654
    H            0.856855098849    -1.989249643583     2.194764250220
    C            1.524701580593    -0.281980134506     0.142515091817
    H           -0.624249726133    -0.457392653382     0.019004909369
    H            0.233850350861    -1.953067480416    -0.238915485788
    C            1.812989777697     0.109570165754    -1.319149862437
    H            1.545848764403     0.600970625422     0.777998608867
    H            2.337904881981    -0.913630472689     0.492772701646
    C            1.282729959662     1.472003790874    -1.811138489034
    H            2.886960197115     0.101859561191    -1.481301660740
    H            1.416009449026    -0.674331629115    -1.961794870548
    C           -0.118218949161     1.885565898646    -1.345814268417
    H            1.246856488017     1.439657894698    -2.897814519695
    H            1.984973293922     2.254516373617    -1.533102843954
    C           -0.530625597253     3.245399646118    -1.910627379293
    H           -0.842706840068     1.137759613218    -1.659517617719
    H           -0.163677263472     1.926004498226    -0.261634922769
    H           -0.533794185891     3.235705051062    -2.997001465552
    H           -1.526607088530     3.522667624124    -1.579428198302
    H            0.153487584436     4.026234661382    -1.590385191032

  Mulliken Charges: (a.u.)
   Center  Symbol    Alpha    Beta     Spin     Total
       1     H     0.27976  0.27976  0.00000  0.44047
       2     O     4.37101  4.37101  0.00000 -0.74202
       3     C     2.99739  2.99739  0.00000  0.00522
       4     C     3.16159  3.16159  0.00000 -0.32318
       5     H     0.41447  0.41447  0.00000  0.17106
       6     H     0.43199  0.43199  0.00000  0.13602
       7     C     3.16391  3.16391  0.00000 -0.32783
       8     H     0.41534  0.41534  0.00000  0.16932
       9     H     0.42435  0.42435  0.00000  0.15131
      10     C     3.15665  3.15665  0.00000 -0.31330
      11     H     0.42049  0.42049  0.00000  0.15901
      12     H     0.42527  0.42527  0.00000  0.14946
      13     C     3.15593  3.15593  0.00000 -0.31187
      14     H     0.42023  0.42023  0.00000  0.15954
      15     H     0.42093  0.42093  0.00000  0.15813
      16     C     3.15084  3.15084  0.00000 -0.30169
      17     H     0.41861  0.41861  0.00000  0.16278
      18     H     0.42393  0.42393  0.00000  0.15214
      19     C     3.15556  3.15556  0.00000 -0.31111
      20     H     0.42262  0.42262  0.00000  0.15477
      21     H     0.42300  0.42300  0.00000  0.15400
      22     C     3.23885  3.23885  0.00000 -0.47770
      23     H     0.42521  0.42521  0.00000  0.14958
      24     H     0.41979  0.41979  0.00000  0.16042
      25     H     0.42213  0.42213  0.00000  0.15574
      26     H     0.41862  0.41862  0.00000  0.16276
      27     H     0.42153  0.42153  0.00000  0.15694

   Total alpha = 37.00000, Total beta = 37.00000, Total charge = -0.00000
