                              Psi4 1.0.54 Driver

  ==> Input File <==

--------------------------------------------------------------------------
set {
	reference rhf
	basis cc-pvtz
}

set_num_threads( 4 )
memory 2 gb

molecule MOL {
0 1

O	 0.623971	 1.347241	 -0.000777
C	 0.485107	 0.171416	 -0.000134
C	 1.606966	 -0.836201	 0.000174
O	 -0.695554	 -0.422406	 0.000602
C	 2.988788	 -0.202529	 -0.000115
H	 1.465110	 -1.474645	 -0.864821
H	 1.465209	 -1.474077	 0.865596
H	 3.131767	 0.419673	 -0.873407
H	 3.750876	 -0.972315	 0.000098
H	 3.131883	 0.420264	 0.872742
C	 -1.287408	 -0.719468	 1.257483
C	 -2.617500	 -1.386296	 0.995406
H	 -1.406637	 0.197584	 1.817077
H	 -0.623785	 -1.363733	 1.816813
H	 -3.272984	 -0.732389	 0.434052
H	 -3.097471	 -1.627067	 1.936622
H	 -2.485692	 -2.302623	 0.433851

	symmetry c1
}
set optking {
	frozen_dihedral = ("
		11 4 2 3
	")
}

ee,wfn = optimize('scf', return_wfn=True)
oeprop( wfn, 'DIPOLE', 'QUADRUPOLE', 'MULLIKEN_CHARGES')
f=open( 'psi4out.xyz', 'w' )
f.write( "17  " )
f.write( str(ee) + "\n" )
f.write( MOL.save_string_xyz() )
f.close()
--------------------------------------------------------------------------

    Molecular point group: c1
  Charge       = 0
  Multiplicity = 1
  Basis Set: CC-PVTZ
  Basis Set:
  @DF-RHF Final Energy:  -345.02039633517046
    Total Energy =                       -345.0203963351702896
    Molecular point group: c1
  Basis Set: CC-PVTZ
  Basis Set:
  Basis Set: CC-PVTZ
  Basis Set:
  @DF-RHF Final Energy:  -345.02146620666508
    Total Energy =                       -345.0214662066649112
  Basis Set: CC-PVTZ
  Basis Set:
  Basis Set: CC-PVTZ
  Basis Set:
  @DF-RHF Final Energy:  -345.02130156177321
    Total Energy =                       -345.0213015617731571
  Basis Set: CC-PVTZ
  Basis Set:
  Basis Set: CC-PVTZ
  Basis Set:
  @DF-RHF Final Energy:  -345.02169415658909
    Total Energy =                       -345.0216941565894331
  Basis Set: CC-PVTZ
  Basis Set:
  Basis Set: CC-PVTZ
  Basis Set:
  @DF-RHF Final Energy:  -345.02171713964577
    Total Energy =                       -345.0217171396454319
  Basis Set: CC-PVTZ
  Basis Set:
  Basis Set: CC-PVTZ
  Basis Set:
  @DF-RHF Final Energy:  -345.02171861888132
    Total Energy =                       -345.0217186188816072
  Basis Set: CC-PVTZ
  Basis Set:
  Charge       = 0
  Multiplicity = 1
  Basis Set: CC-PVTZ
  Basis Set:

    Orbital Energies (a.u.)
    -----------------------

    Doubly Occupied:

       1A    -20.574795     2A    -20.544581     3A    -11.366642
       4A    -11.293121     5A    -11.240640     6A    -11.222545
       7A    -11.217176     8A     -1.460180     9A     -1.368705
      10A     -1.066166    11A     -1.037653    12A     -0.905447
      13A     -0.864584    14A     -0.770992    15A     -0.703334
      16A     -0.686564    17A     -0.658465    18A     -0.638482
      19A     -0.604804    20A     -0.564773    21A     -0.556866
      22A     -0.530716    23A     -0.527653    24A     -0.521832
      25A     -0.507411    26A     -0.490957    27A     -0.453302
      28A     -0.437357

  @DF-RHF Final Energy:  -345.02171872666298

   => Energetics <=

    Nuclear Repulsion Energy =            314.9398651499706716
    One-Electron Energy =               -1094.2916783559812757
    Two-Electron Energy =                 434.3300944793476219
    DFT Exchange-Correlation Energy =       0.0000000000000000
    Empirical Dispersion Energy =           0.0000000000000000
    PCM Polarization Energy =               0.0000000000000000
    EFP Energy =                            0.0000000000000000
    Total Energy =                       -345.0217187266629253
    Molecular point group: c1
  Basis Set: CC-PVTZ
  Basis Set:

  -Total Gradient:
     Atom            X                  Y                   Z
    ------   -----------------  -----------------  -----------------
       1       -0.000003613146    -0.000032225496     0.000012588883
       2        0.000583653599    -0.001098412816    -0.003128249367
       3       -0.000033744345     0.000071846802     0.002164087301
       4       -0.001573131343     0.003200926086     0.000854040995
       5        0.000002274780    -0.000007902683     0.000004438389
       6        0.000000615628    -0.000005180124     0.000002449603
       7       -0.000001469870    -0.000001281506     0.000007928789
       8        0.000002872149     0.000003865512    -0.000008538522
       9       -0.000005830682     0.000001436278    -0.000001346671
      10        0.000000656467     0.000003248561     0.000006155535
      11        0.001024430535    -0.002126183996     0.000093371622
      12        0.000001007416    -0.000005902568    -0.000002437949
      13       -0.000004722761     0.000004885041     0.000008443640
      14        0.000000090897    -0.000005553561    -0.000013037315
      15        0.000005081543     0.000001630476     0.000001864582
      16        0.000004050518    -0.000000471180     0.000001159735
      17       -0.000002221388    -0.000004724827    -0.000002919252

  **** Optimization is complete! (in 7 steps) ****
    Final optimized geometry and variables:
    Molecular point group: c1

    Geometry (in Angstrom), charge = 0, multiplicity = 1:

    O            0.482400949605     1.596407492702    -0.386117453227
    C            0.361416952435     0.427459025045    -0.334057946167
    C            1.505476320884    -0.553444769671    -0.284912945901
    O           -0.854744515174    -0.156582867385    -0.340713179701
    C            2.877171815938     0.101562142205    -0.272686963808
    H            1.389354691158    -1.213284676385    -1.138512949216
    H            1.363184199532    -1.180236083042     0.589334510145
    H            3.024357714951     0.708384237613    -1.155814973635
    H            3.652278986009    -0.654522415220    -0.243353994490
    H            2.994175709657     0.744492189561     0.589688464563
    C           -1.467034245450    -0.403988473053     0.912639674809
    C           -2.824893786936    -1.016459017334     0.662315897098
    H           -1.558875602582     0.531010778240     1.452755086243
    H           -0.847942783338    -1.076922914271     1.497220994102
    H           -3.442372906250    -0.342252129862     0.083649227945
    H           -3.319051691689    -1.216263014409     1.605928658666
    H           -2.729264206500    -1.947635058902     0.118525723499

  Mulliken Charges: (a.u.)
   Center  Symbol    Alpha    Beta     Spin     Total
       1     O     4.17017  4.17017  0.00000 -0.34034
       2     C     2.79662  2.79662  0.00000  0.40675
       3     C     3.10674  3.10674  0.00000 -0.21349
       4     O     4.17166  4.17166  0.00000 -0.34332
       5     C     3.13871  3.13871  0.00000 -0.27743
       6     H     0.43979  0.43979  0.00000  0.12042
       7     H     0.44578  0.44578  0.00000  0.10844
       8     H     0.44580  0.44580  0.00000  0.10840
       9     H     0.45070  0.45070  0.00000  0.09860
      10     H     0.44915  0.44915  0.00000  0.10170
      11     C     2.97667  2.97667  0.00000  0.04667
      12     C     3.13437  3.13437  0.00000 -0.26874
      13     H     0.45516  0.45516  0.00000  0.08967
      14     H     0.46559  0.46559  0.00000  0.06882
      15     H     0.44578  0.44578  0.00000  0.10844
      16     H     0.45679  0.45679  0.00000  0.08643
      17     H     0.45052  0.45052  0.00000  0.09896

   Total alpha = 28.00000, Total beta = 28.00000, Total charge =  0.00000

*** Psi4 exiting successfully. Buy a developer a beer!
