  ==> Input File <==

--------------------------------------------------------------------------
set {
	reference rhf
	basis cc-pvtz
}

set_num_threads( 4 )
memory 2 gb

molecule MOL {
0 1

H	 -3.456139	 -0.529964	 0.727103
O	 -3.107740	 -0.196887	 -0.080383
C	 -1.773395	 -0.074491	 -0.022605
C	 -1.049772	 -0.412799	 1.114213
C	 -1.125498	 0.407167	 -1.147957
H	 -1.559532	 -0.785811	 1.983370
C	 0.317208	 -0.267792	 1.119816
H	 -1.702282	 0.662206	 -2.014153
C	 0.243860	 0.546474	 -1.126084
H	 0.886896	 -0.525275	 1.990602
C	 0.981121	 0.213562	 0.000000
H	 0.747541	 0.920057	 -1.998586
C	 2.447402	 0.371303	 0.000000
O	 3.227427	 -0.521847	 0.000000
H	 2.796538	 1.409525	 0.000000

	symmetry c1
}
set optking {
	frozen_dihedral = ("
		7 11 13 14
	")
}

ee = optimize('scf')
oeprop('DIPOLE', 'QUADRUPOLE', 'MULLIKEN_CHARGES')
f=open( 'psi4out.xyz', 'w' )
f.write( "15  " )
f.write( str(ee) + "\n" )
f.write( MOL.save_string_xyz() )
f.close()
--------------------------------------------------------------------------

    Molecular point group: c1
  Charge       = 0
  Multiplicity = 1
  Basis Set: CC-PVTZ
  Basis Set:
  @DF-RHF Final Energy:  -418.42848866715792
    Total Energy =                       -418.4284886671580352
    Molecular point group: c1
  Basis Set: CC-PVTZ
  Basis Set:
  Basis Set: CC-PVTZ
  Basis Set:
  @DF-RHF Final Energy:  -418.42854574824503
    Total Energy =                       -418.4285457482450283
  Basis Set: CC-PVTZ
  Basis Set:
  Basis Set: CC-PVTZ
  Basis Set:
  @DF-RHF Final Energy:  -418.42929103197355
    Total Energy =                       -418.4292910319737757
  Basis Set: CC-PVTZ
  Basis Set:
  Basis Set: CC-PVTZ
  Basis Set:
  @DF-RHF Final Energy:  -418.42942542498599
    Total Energy =                       -418.4294254249862206
  Basis Set: CC-PVTZ
  Basis Set:
  Basis Set: CC-PVTZ
  Basis Set:
  @DF-RHF Final Energy:  -418.42942838248177
    Total Energy =                       -418.4294283824818876
  Basis Set: CC-PVTZ
  Basis Set:
  Charge       = 0
  Multiplicity = 1
  Basis Set: CC-PVTZ
  Basis Set:

    Orbital Energies (a.u.)
    -----------------------

    Doubly Occupied:

       1A    -20.597792     2A    -20.559266     3A    -11.329476
       4A    -11.313175     5A    -11.253004     6A    -11.252632
       7A    -11.241804     8A    -11.240393     9A    -11.236042
      10A     -1.429708    11A     -1.413414    12A     -1.173275
      13A     -1.041816    14A     -1.039879    15A     -0.890010
      16A     -0.865959    17A     -0.801620    18A     -0.757527
      19A     -0.713971    20A     -0.676393    21A     -0.658613
      22A     -0.631371    23A     -0.608966    24A     -0.608111
      25A     -0.594191    26A     -0.565683    27A     -0.536478
      28A     -0.506191    29A     -0.497393    30A     -0.425106
      31A     -0.359194    32A     -0.328860

  @DF-RHF Final Energy:  -418.42942933980669

   => Energetics <=

    Nuclear Repulsion Energy =            401.1196022226018840
    One-Electron Energy =               -1364.8034339072207786
    Two-Electron Energy =                 545.2544023448118651
    DFT Exchange-Correlation Energy =       0.0000000000000000
    Empirical Dispersion Energy =           0.0000000000000000
    PCM Polarization Energy =               0.0000000000000000
    EFP Energy =                            0.0000000000000000
    Total Energy =                       -418.4294293398070295
    Molecular point group: c1
  Basis Set: CC-PVTZ
  Basis Set:

  -Total Gradient:
     Atom            X                  Y                   Z
    ------   -----------------  -----------------  -----------------
       1       -0.000001111649     0.000005683249     0.000003708760
       2       -0.000014283953    -0.000052382079     0.000015225811
       3        0.000022759916     0.000127083535    -0.000062999902
       4        0.000052744755    -0.000032182631     0.000032898541
       5       -0.000101183407    -0.000063800986     0.000037199011
       6       -0.000015789532     0.000000418949     0.000000436652
       7       -0.000809159234     0.004927258994     0.001660850041
       8        0.000020610649     0.000003030618    -0.000001331467
       9        0.000117104834    -0.000030921155     0.000092166158
      10       -0.000004122753     0.000003910546    -0.000015610773
      11        0.001128109517    -0.007256426817    -0.005417985610
      12        0.000000581110    -0.000007088057    -0.000006744658
      13       -0.000567411414     0.002562912400     0.010101261562
      14        0.000171483722    -0.000155696331    -0.006445374123
      15       -0.000000332566    -0.000031800235     0.000006299999

  **** Optimization is complete! (in 6 steps) ****
    Final optimized geometry and variables:
    Molecular point group: c1

    Geometry (in Angstrom), charge = 0, multiplicity = 1:

    H           -3.474006668845    -0.516046764843     0.728625854794
    O           -3.123826907245    -0.176214226241    -0.075101562287
    C           -1.783989524690    -0.067531491396    -0.014078066366
    C           -1.061530105054    -0.406052378210     1.114685830603
    C           -1.129146744377     0.412456362992    -1.137365809083
    H           -1.567461106429    -0.766602148551     1.991472104474
    C            0.314685035953    -0.280662014215     1.112894954688
    H           -1.703033833250     0.677081895731    -2.003052280663
    C            0.239555576631     0.551886313944    -1.119034296468
    H            0.870572073884    -0.554796900310     1.989095700108
    C            0.979684375780     0.178147713907    -0.006880153425
    H            0.736639596718     0.943327974767    -1.987493692547
    C            2.459275578598     0.387632314347     0.013584883955
    O            3.257982614157    -0.482264804490     0.061396156441
    H            2.787458055888     1.429343615668    -0.070193193895

  Mulliken Charges: (a.u.)
   Center  Symbol    Alpha    Beta     Spin     Total
       1     H     0.38635  0.38635  0.00000  0.22729
       2     O     4.16997  4.16997  0.00000 -0.33995
       3     C     2.85582  2.85582  0.00000  0.28837
       4     C     3.12387  3.12387  0.00000 -0.24774
       5     C     3.09907  3.09907  0.00000 -0.19814
       6     H     0.43213  0.43213  0.00000  0.13575
       7     C     3.08917  3.08917  0.00000 -0.17833
       8     H     0.41684  0.41684  0.00000  0.16633
       9     C     3.07804  3.07804  0.00000 -0.15608
      10     H     0.41692  0.41692  0.00000  0.16615
      11     C     2.95830  2.95830  0.00000  0.08341
      12     H     0.42257  0.42257  0.00000  0.15487
      13     C     2.93071  2.93071  0.00000  0.13857
      14     O     4.15993  4.15993  0.00000 -0.31986
      15     H     0.46032  0.46032  0.00000  0.07937

   Total alpha = 32.00000, Total beta = 32.00000, Total charge = -0.00000
