                              Psi4 1.0.54 Driver

  ==> Input File <==

--------------------------------------------------------------------------
set {
	reference rhf
	basis cc-pvtz
}

set_num_threads( 4 )
memory 2 gb

molecule MOL {
0 1

H	 -0.000105	 1.988529	 0.748933
O	 -0.000098	 1.879786	 -0.188206
C	 -0.000014	 0.545691	 -0.532416
C	 0.990255	 0.294004	 -1.670748
C	 -1.426635	 0.074079	 -0.818961
H	 0.351571	 -0.016968	 0.319912
F	 2.191842	 0.647122	 -1.285576
F	 1.034908	 -0.966282	 -2.022025
F	 0.687097	 1.005698	 -2.735154
F	 -2.164091	 0.250736	 0.249593
F	 -1.476946	 -1.194845	 -1.136786
F	 -1.971272	 0.763811	 -1.798255

	symmetry c1
}
set optking {
	frozen_dihedral = ("
		6 3 2 1
	")
}

ee,wfn = optimize('scf', return_wfn=True)
oeprop( wfn, 'DIPOLE', 'QUADRUPOLE', 'MULLIKEN_CHARGES')
f=open( 'psi4out.xyz', 'w' )
f.write( "12  " )
f.write( str(ee) + "\n" )
f.write( MOL.save_string_xyz() )
f.close()
--------------------------------------------------------------------------

    Molecular point group: c1
  Charge       = 0
  Multiplicity = 1
  Basis Set: CC-PVTZ
  Basis Set:
  @DF-RHF Final Energy:  -786.58579138675441
    Total Energy =                       -786.5857913867541811
    Molecular point group: c1
  Basis Set: CC-PVTZ
  Basis Set:
  Basis Set: CC-PVTZ
  Basis Set:
  @DF-RHF Final Energy:  -786.58728458982364
    Total Energy =                       -786.5872845898238666
  Basis Set: CC-PVTZ
  Basis Set:
  Basis Set: CC-PVTZ
  Basis Set:
  @DF-RHF Final Energy:  -786.58755599241988
    Total Energy =                       -786.5875559924195386
  Basis Set: CC-PVTZ
  Basis Set:
  Basis Set: CC-PVTZ
  Basis Set:
  @DF-RHF Final Energy:  -786.58760243238237
    Total Energy =                       -786.5876024323824822
  Basis Set: CC-PVTZ
  Basis Set:
  Basis Set: CC-PVTZ
  Basis Set:
  @DF-RHF Final Energy:  -786.58760787272308
    Total Energy =                       -786.5876078727231970
  Basis Set: CC-PVTZ
  Basis Set:
  Charge       = 0
  Multiplicity = 1
  Basis Set: CC-PVTZ
  Basis Set:

    Orbital Energies (a.u.)
    -----------------------

    Doubly Occupied:

       1A    -26.352355     2A    -26.352281     3A    -26.351427
       4A    -26.350086     5A    -26.349071     6A    -26.348153
       7A    -20.609592     8A    -11.515250     9A    -11.514892
      10A    -11.351812    11A     -1.766368    12A     -1.760862
      13A     -1.660941    14A     -1.658988    15A     -1.656355
      16A     -1.655833    17A     -1.439382    18A     -1.103360
      19A     -0.997062    20A     -0.939206    21A     -0.867355
      22A     -0.861885    23A     -0.857318    24A     -0.846119
      25A     -0.835463    26A     -0.786113    27A     -0.770388
      28A     -0.732471    29A     -0.726409    30A     -0.723689
      31A     -0.719932    32A     -0.685637    33A     -0.681096
      34A     -0.673841    35A     -0.672660    36A     -0.663001
      37A     -0.657818    38A     -0.626556    39A     -0.622533
      40A     -0.559423    41A     -0.508884

  @DF-RHF Final Energy:  -786.58760870826745

   => Energetics <=

    Nuclear Repulsion Energy =            670.2029617534544741
    One-Electron Energy =               -2427.9573986513332784
    Two-Electron Energy =                 971.1668281896112376
    DFT Exchange-Correlation Energy =       0.0000000000000000
    Empirical Dispersion Energy =           0.0000000000000000
    PCM Polarization Energy =               0.0000000000000000
    EFP Energy =                            0.0000000000000000
    Total Energy =                       -786.5876087082675667
    Molecular point group: c1
  Basis Set: CC-PVTZ
  Basis Set:

  -Total Gradient:
     Atom            X                  Y                   Z
    ------   -----------------  -----------------  -----------------
       1        0.000848050398     0.000025898807    -0.000021627347
       2       -0.001233318203    -0.000024532827     0.000142672414
       3        0.001086755040     0.000193459620    -0.000375218257
       4       -0.000006005247     0.000077039650    -0.000060148742
       5       -0.000136295211     0.000003680897    -0.000090663901
       6       -0.000713378602    -0.000062663152     0.000243196020
       7        0.000046726267     0.000053295838    -0.000007241796
       8       -0.000049892324    -0.000101991164    -0.000066270897
       9        0.000058843533    -0.000099564200     0.000135219946
      10       -0.000008979010     0.000005684838     0.000046761779
      11        0.000056533358    -0.000002656340    -0.000041495708
      12        0.000050960012    -0.000067651959     0.000094816490

  **** Optimization is complete! (in 6 steps) ****
    Final optimized geometry and variables:
    Molecular point group: c1

    Geometry (in Angstrom), charge = 0, multiplicity = 1:

    H            0.292062284921     1.701309493884     1.910175288147
    O            0.262815966090     1.557812460788     0.982209662413
    C            0.243138819219     0.210813150445     0.682450314862
    C            1.196482671516    -0.014539490553    -0.489487851459
    C           -1.197889278902    -0.230724470387     0.421808543233
    H            0.604159895759    -0.407677934178     1.494806126400
    F            2.415483238766     0.295784712784    -0.114181834327
    F            1.202118277191    -1.273212979383    -0.862377619391
    F            0.893140614938     0.717822547638    -1.527594979682
    F           -1.916364566844     0.042903327972     1.490490249851
    F           -1.275467046131    -1.523765761182     0.213857771147
    F           -1.740405973819     0.382068630827    -0.596060227497

  Mulliken Charges: (a.u.)
   Center  Symbol    Alpha    Beta     Spin     Total
       1     H     0.38115  0.38115  0.00000  0.23770
       2     O     4.18657  4.18657  0.00000 -0.37313
       3     C     3.00159  3.00159  0.00000 -0.00318
       4     C     2.67753  2.67753  0.00000  0.64494
       5     C     2.68015  2.68015  0.00000  0.63970
       6     H     0.44464  0.44464  0.00000  0.11072
       7     F     4.60584  4.60584  0.00000 -0.21168
       8     F     4.60537  4.60537  0.00000 -0.21074
       9     F     4.60085  4.60085  0.00000 -0.20170
      10     F     4.61031  4.61031  0.00000 -0.22063
      11     F     4.60537  4.60537  0.00000 -0.21074
      12     F     4.60063  4.60063  0.00000 -0.20127

   Total alpha = 41.00000, Total beta = 41.00000, Total charge =  0.00000

*** Psi4 exiting successfully. Buy a developer a beer!
