  ==> Input File <==

--------------------------------------------------------------------------
set {
	reference rhf
	basis 6-31G*
}

set_num_threads( 4 )
memory 2 gb

molecule MOL {
0 1

H	 2.447127	 -0.673024	 -0.180829
C	 1.730410	 0.131367	 -0.217240
O	 0.464886	 -0.454746	 -0.000158
H	 1.777033	 0.608745	 -1.188817
H	 1.963077	 0.853526	 0.556332
C	 -0.590998	 0.343045	 0.000118
O	 -1.699443	 -0.054298	 0.000227
H	 -0.340329	 1.404368	 0.000207

	symmetry c1
}
set optking {
	frozen_dihedral = ("
		2 3 6 7
	")
}

ee = optimize('scf')
oeprop('DIPOLE', 'QUADRUPOLE', 'MULLIKEN_CHARGES')
f=open( 'psi4out.xyz', 'w' )
f.write( "8  " )
f.write( str(ee) + "\n" )
f.write( MOL.save_string_xyz() )
f.close()
--------------------------------------------------------------------------

    Molecular point group: c1
  Charge       = 0
  Multiplicity = 1
  Basis Set: 6-31G*
  Basis Set:
  @DF-RHF Final Energy:  -227.77879755743913
    Total Energy =                       -227.7787975574391623
    Molecular point group: c1
  Basis Set: 6-31G*
  Basis Set:
  Basis Set: 6-31G*
  Basis Set:
  @DF-RHF Final Energy:  -227.77880461302271
    Total Energy =                       -227.7788046130227144
  Basis Set: 6-31G*
  Basis Set:
  Basis Set: 6-31G*
  Basis Set:
  @DF-RHF Final Energy:  -227.77883863362206
    Total Energy =                       -227.7788386336220015
  Basis Set: 6-31G*
  Basis Set:
  Basis Set: 6-31G*
  Basis Set:
  @DF-RHF Final Energy:  -227.77884345442345
    Total Energy =                       -227.7788434544235088
  Basis Set: 6-31G*
  Basis Set:
  Charge       = 0
  Multiplicity = 1
  Basis Set: 6-31G*
  Basis Set:

    Orbital Energies (a.u.)
    -----------------------

    Doubly Occupied:

       1A    -20.616581     2A    -20.558074     3A    -11.382251
       4A    -11.304705     5A     -1.476764     6A     -1.382848
       7A     -0.993757     8A     -0.849169     9A     -0.738382
      10A     -0.686304    11A     -0.681273    12A     -0.606334
      13A     -0.571154    14A     -0.540305    15A     -0.461292
      16A     -0.453667

  @DF-RHF Final Energy:  -227.77884376802970

   => Energetics <=

    Nuclear Repulsion Energy =            121.1954709746622996
    One-Electron Energy =                -551.3429077686452047
    Two-Electron Energy =                 202.3685930259531460
    DFT Exchange-Correlation Energy =       0.0000000000000000
    Empirical Dispersion Energy =           0.0000000000000000
    PCM Polarization Energy =               0.0000000000000000
    EFP Energy =                            0.0000000000000000
    Total Energy =                       -227.7788437680297875
    Molecular point group: c1
  Basis Set: 6-31G*
  Basis Set:

  -Total Gradient:
     Atom            X                  Y                   Z
    ------   -----------------  -----------------  -----------------
       1       -0.000012215878    -0.000009689296     0.000007302367
       2       -0.000093436614    -0.000005855506    -0.001173703491
       3        0.000246355099     0.000096867802     0.001033922749
       4       -0.000022934776    -0.000007020465    -0.000013926088
       5        0.000010935735    -0.000014138562    -0.000009764472
       6       -0.000159030244    -0.000179736889     0.001708078753
       7        0.000021571287     0.000146570175    -0.001542809526
       8        0.000008755393    -0.000026997258    -0.000009100291

  **** Optimization is complete! (in 5 steps) ****
    Final optimized geometry and variables:
    Molecular point group: c1

    Geometry (in Angstrom), charge = 0, multiplicity = 1:

    H            2.457110758885    -0.658433389076    -0.040516611646
    C            1.734579534024     0.132958965941    -0.158108993627
    O            0.464353964981    -0.457346555630     0.013176011101
    H            1.828609902446     0.561586736275    -1.148359096452
    H            1.916859050613     0.896783388492     0.589136349214
    C           -0.585157308562     0.345794069337     0.091552896495
    O           -1.697056841900    -0.040479752224     0.062828704857
    H           -0.324664028602     1.400497660745     0.185961407758

  Mulliken Charges: (a.u.)
   Center  Symbol    Alpha    Beta     Spin     Total
       1     H     0.39629  0.39629  0.00000  0.20742
       2     C     3.10062  3.10062  0.00000 -0.20124
       3     O     4.27701  4.27701  0.00000 -0.55402
       4     H     0.41133  0.41133  0.00000  0.17735
       5     H     0.41511  0.41511  0.00000  0.16977
       6     C     2.72045  2.72045  0.00000  0.55911
       7     O     4.24725  4.24725  0.00000 -0.49449
       8     H     0.43194  0.43194  0.00000  0.13611

   Total alpha = 16.00000, Total beta = 16.00000, Total charge = -0.00000
