  ==> Input File <==

--------------------------------------------------------------------------
set {
	reference rhf
	basis 6-31G*
}

set_num_threads( 1 )
memory 2 gb

molecule MOL {
0 1

O	 2.862325	 1.357334	 0.000267
C	 2.843464	 0.164689	 -0.000222
C	 1.546494	 -0.624492	 -0.000609
C	 4.124123	 -0.644674	 -0.000428
C	 0.291004	 0.242674	 0.000989
H	 1.557904	 -1.283758	 -0.867573
H	 1.558622	 -1.285963	 0.864672
C	 -0.994322	 -0.586602	 0.000262
H	 0.309117	 0.896430	 -0.865270
H	 0.309661	 0.894078	 0.869017
C	 -2.259874	 0.272531	 0.000494
H	 -1.004862	 -1.240012	 -0.870939
H	 -1.005220	 -1.241071	 0.870675
C	 -2.975448	 0.295922	 1.352315
H	 -2.944296	 -0.095514	 -0.761824
H	 -2.003320	 1.290435	 -0.287687
C	 -4.238751	 1.155973	 1.344544
H	 -3.233467	 -0.720926	 1.640881
H	 -2.292761	 0.665078	 2.114890
H	 -4.956505	 0.791581	 0.615025
H	 -4.723721	 1.152190	 2.315879
H	 -4.009006	 2.187650	 1.093536
H	 4.165367	 -1.288615	 -0.874074
H	 4.976217	 0.020734	 -0.001915
H	 4.166763	 -1.286207	 0.874930

	symmetry c1
}
set optking {
	frozen_dihedral = ("
		9 5 8 12,
		15 11 14 18,
		1 2 3 6,
		9 5 3 6
	")
}

ee = energy('scf')
oeprop('DIPOLE', 'QUADRUPOLE', 'MULLIKEN_CHARGES')
f=open( 'psi4out.xyz', 'w' )
f.write( "25  " )
f.write( str(ee) + "\n" )
f.write( MOL.save_string_xyz() )
f.close()
--------------------------------------------------------------------------

    Molecular point group: c1

    Geometry (in Angstrom), charge = 0, multiplicity = 1:

       Center              X                  Y                   Z               Mass
    ------------   -----------------  -----------------  -----------------  -----------------
           O          2.732587540069     1.166305858492    -0.305346976482    15.994914619560
           C          2.713726540069    -0.026339141508    -0.305835976482    12.000000000000
           C          1.416756540069    -0.815520141508    -0.306222976482    12.000000000000
           C          3.994385540069    -0.835702141508    -0.306041976482    12.000000000000
           C          0.161266540069     0.051645858492    -0.304624976482    12.000000000000
           H          1.428166540069    -1.474786141508    -1.173186976482     1.007825032070
           H          1.428884540069    -1.476991141508     0.559058023518     1.007825032070
           C         -1.124059459931    -0.777630141508    -0.305351976482    12.000000000000
           H          0.179379540069     0.705401858492    -1.170883976482     1.007825032070
           H          0.179923540069     0.703049858492     0.563403023518     1.007825032070
           C         -2.389611459931     0.081502858492    -0.305119976482    12.000000000000
           H         -1.134599459931    -1.431040141508    -1.176552976482     1.007825032070
           H         -1.134957459931    -1.432099141508     0.565061023518     1.007825032070
           C         -3.105185459931     0.104893858492     1.046701023518    12.000000000000
           H         -3.074033459931    -0.286542141508    -1.067437976482     1.007825032070
           H         -2.133057459931     1.099406858492    -0.593300976482     1.007825032070
           C         -4.368488459931     0.964944858492     1.038930023518    12.000000000000
           H         -3.363204459931    -0.911954141508     1.335267023518     1.007825032070
           H         -2.422498459931     0.474049858492     1.809276023518     1.007825032070
           H         -5.086242459931     0.600552858492     0.309411023518     1.007825032070
           H         -4.853458459931     0.961161858492     2.010265023518     1.007825032070
           H         -4.138743459931     1.996621858492     0.787922023518     1.007825032070
           H          4.035629540069    -1.479643141508    -1.179687976482     1.007825032070
           H          4.846479540069    -0.170294141508    -0.307528976482     1.007825032070
           H          4.037025540069    -1.477235141508     0.569316023518     1.007825032070

  Charge       = 0
  Multiplicity = 1
  Basis Set: 6-31G*
  Basis Set:

    Orbital Energies (a.u.)
    -----------------------

    Doubly Occupied:

       1A    -20.550424     2A    -11.326246     3A    -11.231503
       4A    -11.228283     5A    -11.217114     6A    -11.215303
       7A    -11.215137     8A    -11.212010     9A    -11.207406
      10A     -1.395747    11A     -1.093971    12A     -1.055505
      13A     -1.013875    14A     -0.969044    15A     -0.889641
      16A     -0.819965    17A     -0.786787    18A     -0.730415
      19A     -0.652873    20A     -0.652068    21A     -0.635795
      22A     -0.619083    23A     -0.603416    24A     -0.581158
      25A     -0.565686    26A     -0.564607    27A     -0.542089
      28A     -0.526947    29A     -0.506590    30A     -0.490708
      31A     -0.485828    32A     -0.480822    33A     -0.465489
      34A     -0.453666    35A     -0.447432    36A     -0.399450

  @DF-RHF Final Energy:  -387.13154565668668

   => Energetics <=

    Nuclear Repulsion Energy =            441.8440539890705736
    One-Electron Energy =               -1400.2867435033110723
    Two-Electron Energy =                 571.3111438575517695
    DFT Exchange-Correlation Energy =       0.0000000000000000
    Empirical Dispersion Energy =           0.0000000000000000
    PCM Polarization Energy =               0.0000000000000000
    EFP Energy =                            0.0000000000000000
    Total Energy =                       -387.1315456566887860

  Mulliken Charges: (a.u.)
   Center  Symbol    Alpha    Beta     Spin     Total
       1     O     4.26130  4.26130  0.00000 -0.52260
       2     C     2.73572  2.73572  0.00000  0.52856
       3     C     3.21114  3.21114  0.00000 -0.42227
       4     C     3.28668  3.28668  0.00000 -0.57336
       5     C     3.15023  3.15023  0.00000 -0.30046
       6     H     0.40996  0.40996  0.00000  0.18008
       7     H     0.40996  0.40996  0.00000  0.18008
       8     C     3.15671  3.15671  0.00000 -0.31342
       9     H     0.41151  0.41151  0.00000  0.17697
      10     H     0.41208  0.41208  0.00000  0.17584
      11     C     3.15409  3.15409  0.00000 -0.30818
      12     H     0.42246  0.42246  0.00000  0.15507
      13     H     0.42256  0.42256  0.00000  0.15488
      14     C     3.15344  3.15344  0.00000 -0.30688
      15     H     0.42150  0.42150  0.00000  0.15701
      16     H     0.41880  0.41880  0.00000  0.16239
      17     C     3.23990  3.23990  0.00000 -0.47980
      18     H     0.42321  0.42321  0.00000  0.15358
      19     H     0.42251  0.42251  0.00000  0.15499
      20     H     0.42197  0.42197  0.00000  0.15606
      21     H     0.41959  0.41959  0.00000  0.16081
      22     H     0.42074  0.42074  0.00000  0.15853
      23     H     0.40874  0.40874  0.00000  0.18252
      24     H     0.39650  0.39650  0.00000  0.20699
      25     H     0.40870  0.40870  0.00000  0.18259

   Total alpha = 36.00000, Total beta = 36.00000, Total charge =  0.00000
