                              Psi4 1.0.54 Driver

  ==> Input File <==

--------------------------------------------------------------------------
set {
	reference rhf
	basis cc-pvtz
}

set_num_threads( 4 )
memory 2 gb

molecule MOL {
0 1

O	 -2.440701	 -0.934798	 -0.415053
C	 -1.922978	 0.063265	 -0.045005
C	 -2.632749	 1.372204	 0.158357
O	 -0.637375	 0.157174	 0.243149
H	 -2.187724	 2.129143	 -0.474664
H	 -3.677681	 1.257276	 -0.079438
H	 -2.516788	 1.693160	 1.185542
C	 0.162530	 -1.009518	 0.097799
C	 1.587210	 -0.664190	 0.477086
H	 0.096803	 -1.356267	 -0.924704
H	 -0.233803	 -1.785900	 0.736810
C	 2.256770	 0.342732	 -0.454344
H	 2.154716	 -1.590834	 0.479041
H	 1.598751	 -0.289614	 1.496104
C	 3.431129	 1.060669	 0.202209
H	 2.601811	 -0.172354	 -1.346942
H	 1.524350	 1.071180	 -0.782627
H	 3.889958	 1.765529	 -0.481191
H	 4.196422	 0.358185	 0.515634
H	 3.110943	 1.612249	 1.079851

	symmetry c1
}
set optking {
	frozen_dihedral = ("
		16 12 9 8
	")
}

ee,wfn = optimize('scf', return_wfn=True)
oeprop( wfn, 'DIPOLE', 'QUADRUPOLE', 'MULLIKEN_CHARGES')
f=open( 'psi4out.xyz', 'w' )
f.write( "20  " )
f.write( str(ee) + "\n" )
f.write( MOL.save_string_xyz() )
f.close()
--------------------------------------------------------------------------

    Molecular point group: c1
  Charge       = 0
  Multiplicity = 1
  Basis Set: CC-PVTZ
  Basis Set:
  @DF-RHF Final Energy:  -384.08590651613446
    Total Energy =                       -384.0859065161347417
    Molecular point group: c1
  Basis Set: CC-PVTZ
  Basis Set:
  Basis Set: CC-PVTZ
  Basis Set:
  @DF-RHF Final Energy:  -384.08605370378484
    Total Energy =                       -384.0860537037852964
  Basis Set: CC-PVTZ
  Basis Set:
  Basis Set: CC-PVTZ
  Basis Set:
  @DF-RHF Final Energy:  -384.08591955347640
    Total Energy =                       -384.0859195534757191
  Basis Set: CC-PVTZ
  Basis Set:
  Basis Set: CC-PVTZ
  Basis Set:
  @DF-RHF Final Energy:  -384.08610032775641
    Total Energy =                       -384.0861003277568670
  Basis Set: CC-PVTZ
  Basis Set:
  Charge       = 0
  Multiplicity = 1
  Basis Set: CC-PVTZ
  Basis Set:

    Orbital Energies (a.u.)
    -----------------------

    Doubly Occupied:

       1A    -20.594715     2A    -20.532850     3A    -11.366921
       4A    -11.280255     5A    -11.231890     6A    -11.223368
       7A    -11.218778     8A    -11.211174     9A     -1.471390
      10A     -1.365529    11A     -1.086470    12A     -1.029254
      13A     -0.982159    14A     -0.881029    15A     -0.811306
      16A     -0.778183    17A     -0.693072    18A     -0.686185
      19A     -0.670263    20A     -0.631277    21A     -0.604237
      22A     -0.593779    23A     -0.574159    24A     -0.552494
      25A     -0.540970    26A     -0.535067    27A     -0.514554
      28A     -0.483076    29A     -0.475243    30A     -0.473138
      31A     -0.451650    32A     -0.442301

  @DF-RHF Final Energy:  -384.08610074503315

   => Energetics <=

    Nuclear Repulsion Energy =            386.4727928641240169
    One-Electron Energy =               -1289.1443145850344081
    Two-Electron Energy =                 518.5854209758767865
    DFT Exchange-Correlation Energy =       0.0000000000000000
    Empirical Dispersion Energy =           0.0000000000000000
    PCM Polarization Energy =               0.0000000000000000
    EFP Energy =                            0.0000000000000000
    Total Energy =                       -384.0861007450336047
    Molecular point group: c1
  Basis Set: CC-PVTZ
  Basis Set:

  -Total Gradient:
     Atom            X                  Y                   Z
    ------   -----------------  -----------------  -----------------
       1       -0.000008437218    -0.000036549225    -0.000006840871
       2        0.000053664769     0.000041500423     0.000000504330
       3        0.000004931596     0.000003393671    -0.000003592831
       4       -0.000018728402    -0.000004844911    -0.000044814376
       5       -0.000001519201     0.000004979361     0.000008434790
       6        0.000017786416    -0.000012227425     0.000002052376
       7       -0.000004899403     0.000007510983     0.000005201756
       8       -0.000930131839     0.001936031371     0.001543910047
       9        0.001964429088    -0.002888135033    -0.001750856237
      10       -0.000009639041     0.000010692945    -0.000009404395
      11        0.000008890829    -0.000004423136    -0.000012857523
      12       -0.004149427521     0.001516300646    -0.001310450163
      13       -0.000002486816     0.000009552375    -0.000005099760
      14        0.000009605460     0.000004295373    -0.000004348791
      15        0.000001400960    -0.000001679501    -0.000008546731
      16        0.003076995842    -0.000585779953     0.001587431156
      17       -0.000025277520    -0.000009788089     0.000005925262
      18        0.000005523291    -0.000008337378     0.000015588092
      19       -0.000006668138     0.000020009738     0.000003969814
      20        0.000013986845    -0.000002502235    -0.000016205946

  **** Optimization is complete! (in 5 steps) ****
    Final optimized geometry and variables:
    Molecular point group: c1

    Geometry (in Angstrom), charge = 0, multiplicity = 1:

    O           -2.399470112307    -0.990160824837    -0.476037860922
    C           -1.892054654906     0.002242063564    -0.077844711361
    C           -2.612509018024     1.301044763540     0.149613369854
    O           -0.609443177441     0.098018516100     0.223013687314
    H           -2.168490519690     2.075005604486    -0.463165230338
    H           -3.654829988403     1.184033338452    -0.098333337049
    H           -2.506052325603     1.599585574409     1.184493687342
    C            0.199297332020    -1.059626636539     0.058795542556
    C            1.619530042621    -0.702790757442     0.446709463738
    H            0.134732387254    -1.391312428133    -0.969036862737
    H           -0.190091093032    -1.849086744248     0.685832844074
    C            2.291715427222     0.303206754742    -0.490530791897
    H            2.199851720409    -1.619182530851     0.484714135720
    H            1.599449109996    -0.306011828278     1.457100453322
    C            3.481494809929     1.003533118457     0.160265101615
    H            2.646157639307    -0.217284920284    -1.375432268011
    H            1.570895921511     1.043462392671    -0.814874890719
    H            3.969323437756     1.675298517778    -0.536417598818
    H            4.221552866246     0.285900592391     0.499617857784
    H            3.169115011723     1.586199481900     1.020096823778

  Mulliken Charges: (a.u.)
   Center  Symbol    Alpha    Beta     Spin     Total
       1     O     4.19705  4.19705  0.00000 -0.39410
       2     C     2.80909  2.80909  0.00000  0.38183
       3     C     3.13820  3.13820  0.00000 -0.27639
       4     O     4.15334  4.15334  0.00000 -0.30668
       5     H     0.44625  0.44625  0.00000  0.10750
       6     H     0.43780  0.43780  0.00000  0.12440
       7     H     0.44568  0.44568  0.00000  0.10864
       8     C     2.99210  2.99210  0.00000  0.01581
       9     C     3.08531  3.08531  0.00000 -0.17063
      10     H     0.45121  0.45121  0.00000  0.09757
      11     H     0.44445  0.44445  0.00000  0.11110
      12     C     3.08662  3.08662  0.00000 -0.17323
      13     H     0.44909  0.44909  0.00000  0.10183
      14     H     0.45408  0.45408  0.00000  0.09184
      15     C     3.14945  3.14945  0.00000 -0.29889
      16     H     0.45365  0.45365  0.00000  0.09271
      17     H     0.44906  0.44906  0.00000  0.10187
      18     H     0.44812  0.44812  0.00000  0.10377
      19     H     0.45531  0.45531  0.00000  0.08939
      20     H     0.45417  0.45417  0.00000  0.09167

   Total alpha = 32.00000, Total beta = 32.00000, Total charge = -0.00000

*** Psi4 exiting successfully. Buy a developer a beer!
