                              Psi4 1.0.54 Driver

  ==> Input File <==

--------------------------------------------------------------------------
set {
	reference rhf
	basis cc-pvtz
}

set_num_threads( 4 )
memory 2 gb

molecule MOL {
0 1

O	 -2.817697	 1.304178	 0.001046
C	 -2.664672	 0.129869	 0.003507
C	 -3.797908	 -0.860100	 -0.001145
O	 -1.481217	 -0.452708	 0.001092
H	 -4.408836	 -0.679689	 -0.875387
H	 -3.443486	 -1.878443	 -0.002770
H	 -4.412123	 -0.683688	 0.871605
C	 -0.332055	 0.384012	 -0.000250
C	 0.892252	 -0.506059	 -0.000295
H	 -0.360822	 1.020205	 -0.874146
H	 -0.359817	 1.021310	 0.872861
C	 2.188199	 0.299473	 -0.001416
H	 0.857046	 -1.152781	 -0.871031
H	 0.857910	 -1.151798	 0.871202
C	 3.102115	 -0.040219	 -1.175508
H	 1.955194	 1.361117	 -0.025876
H	 2.723242	 0.126711	 0.929098
C	 4.397785	 0.763676	 -1.176343
H	 2.569157	 0.133692	 -2.105974
H	 3.335772	 -1.100851	 -1.152028
H	 4.197830	 1.828357	 -1.233936
H	 5.022882	 0.498839	 -2.021104
H	 4.970232	 0.584492	 -0.272434

	symmetry c1
}
set optking {
	frozen_dihedral = ("
		16 12 9 13
	")
}

ee,wfn = optimize('scf', return_wfn=True)
oeprop( wfn, 'DIPOLE', 'QUADRUPOLE', 'MULLIKEN_CHARGES')
f=open( 'psi4out.xyz', 'w' )
f.write( "23  " )
f.write( str(ee) + "\n" )
f.write( MOL.save_string_xyz() )
f.close()
--------------------------------------------------------------------------

    Molecular point group: c1
  Charge       = 0
  Multiplicity = 1
  Basis Set: CC-PVTZ
  Basis Set:
  @DF-RHF Final Energy:  -423.12971669002206
    Total Energy =                       -423.1297166900219509
    Molecular point group: c1
  Basis Set: CC-PVTZ
  Basis Set:
  Basis Set: CC-PVTZ
  Basis Set:
  @DF-RHF Final Energy:  -423.12974510364603
    Total Energy =                       -423.1297451036456323
  Basis Set: CC-PVTZ
  Basis Set:
  Basis Set: CC-PVTZ
  Basis Set:
  @DF-RHF Final Energy:  -423.12863433292739
    Total Energy =                       -423.1286343329269357
  Basis Set: CC-PVTZ
  Basis Set:
  Basis Set: CC-PVTZ
  Basis Set:
  @DF-RHF Final Energy:  -423.12996695065891
    Total Energy =                       -423.1299669506588543
  Basis Set: CC-PVTZ
  Basis Set:
  Basis Set: CC-PVTZ
  Basis Set:
  @DF-RHF Final Energy:  -423.12997771421766
    Total Energy =                       -423.1299777142176026
  Basis Set: CC-PVTZ
  Basis Set:
  Charge       = 0
  Multiplicity = 1
  Basis Set: CC-PVTZ
  Basis Set:

    Orbital Energies (a.u.)
    -----------------------

    Doubly Occupied:

       1A    -20.595947     2A    -20.529632     3A    -11.366547
       4A    -11.280003     5A    -11.230724     6A    -11.221999
       7A    -11.221269     8A    -11.219777     9A    -11.210649
      10A     -1.471354    11A     -1.364149    12A     -1.093452
      13A     -1.043055    14A     -1.003688    15A     -0.931050
      16A     -0.844447    17A     -0.802077    18A     -0.778505
      19A     -0.692036    20A     -0.688256    21A     -0.674418
      22A     -0.638733    23A     -0.613228    24A     -0.587057
      25A     -0.582389    26A     -0.571216    27A     -0.560029
      28A     -0.535219    29A     -0.526521    30A     -0.502615
      31A     -0.496505    32A     -0.478635    33A     -0.468198
      34A     -0.464897    35A     -0.453383    36A     -0.438987

  @DF-RHF Final Energy:  -423.12997785309324

   => Energetics <=

    Nuclear Repulsion Energy =            451.9273852866798507
    One-Electron Energy =               -1471.7534317691220167
    Two-Electron Energy =                 596.6960686293487015
    DFT Exchange-Correlation Energy =       0.0000000000000000
    Empirical Dispersion Energy =           0.0000000000000000
    PCM Polarization Energy =               0.0000000000000000
    EFP Energy =                            0.0000000000000000
    Total Energy =                       -423.1299778530934645
    Molecular point group: c1
  Basis Set: CC-PVTZ
  Basis Set:

  -Total Gradient:
     Atom            X                  Y                   Z
    ------   -----------------  -----------------  -----------------
       1        0.000001516555     0.000020072809    -0.000024599281
       2        0.000078586942    -0.000099033373     0.000026818557
       3       -0.000024004996     0.000012837574     0.000008224559
       4       -0.000103808491     0.000047246788    -0.000067458771
       5        0.000013298749    -0.000003023834     0.000015235066
       6       -0.000004741556     0.000002140019    -0.000001324366
       7        0.000010880127    -0.000000035241    -0.000019988903
       8        0.000054680592     0.000043505789     0.000160213409
       9       -0.000425765083     0.000751629969    -0.000359803249
      10       -0.000027938791    -0.000007713846    -0.000022700210
      11        0.000011408166    -0.000003271530    -0.000031115280
      12        0.000068265429    -0.000185195997    -0.000918096761
      13        0.000390878473    -0.000601729836     0.000422531688
      14       -0.000009065791     0.000010727955     0.000003392817
      15       -0.000006705900     0.000003420977    -0.000011122372
      16       -0.000021399533     0.000022251718     0.000811554136
      17       -0.000008266654    -0.000004558026     0.000004505811
      18        0.000000780928    -0.000008839602     0.000008438636
      19        0.000004137414     0.000005033910     0.000000978659
      20       -0.000002235156    -0.000001858686    -0.000006731164
      21       -0.000002717259    -0.000003584946    -0.000000954200
      22        0.000000810225    -0.000002469482     0.000001868800
      23        0.000001405609     0.000002446890     0.000000132420

  **** Optimization is complete! (in 6 steps) ****
    Final optimized geometry and variables:
    Molecular point group: c1

    Geometry (in Angstrom), charge = 0, multiplicity = 1:

    O           -2.745352005939     1.185352767306     0.255231507437
    C           -2.596008935968     0.010539879379     0.263449586064
    C           -3.732463214149    -0.975862505490     0.271167774991
    O           -1.414149126827    -0.575164622517     0.266668686471
    H           -4.346007186621    -0.800497543809    -0.602291160494
    H           -3.381307300674    -1.995354199752     0.276532881383
    H           -4.342831227964    -0.790330883074     1.144771556087
    C           -0.263154250602     0.257574626416     0.261469759992
    C            0.960857626571    -0.633356343633     0.259952843956
    H           -0.289971415739     0.892351257876    -0.613963969913
    H           -0.285702443949     0.897434950332     1.133037728222
    C            2.268917085874     0.181243057147     0.252103149185
    H            0.917035516975    -1.285275680956    -0.605224155743
    H            0.919178037934    -1.280257779272     1.128157370464
    C            3.194031582468    -0.157782186286    -0.914119841064
    H            2.042304238236     1.243947013285     0.224446420946
    H            2.802492375414     0.023104090532     1.183328615376
    C            4.486926746552     0.649554325774    -0.906749955877
    H            2.666541188954     0.011504140013    -1.849010221191
    H            3.429166036918    -1.218129123290    -0.885800296063
    H            4.284429517944     1.713637668804    -0.968250423455
    H            5.119452485803     0.384487998959    -1.745950157537
    H            5.052658791377     0.474072445028     0.002229774076

  Mulliken Charges: (a.u.)
   Center  Symbol    Alpha    Beta     Spin     Total
       1     O     4.20240  4.20240  0.00000 -0.40480
       2     C     2.81474  2.81474  0.00000  0.37051
       3     C     3.13981  3.13981  0.00000 -0.27962
       4     O     4.14586  4.14586  0.00000 -0.29173
       5     H     0.44213  0.44213  0.00000  0.11574
       6     H     0.44179  0.44179  0.00000  0.11641
       7     H     0.44211  0.44211  0.00000  0.11578
       8     C     2.97770  2.97770  0.00000  0.04461
       9     C     3.08780  3.08780  0.00000 -0.17559
      10     H     0.45401  0.45401  0.00000  0.09198
      11     H     0.45273  0.45273  0.00000  0.09454
      12     C     3.10381  3.10381  0.00000 -0.20761
      13     H     0.45069  0.45069  0.00000  0.09863
      14     H     0.44668  0.44668  0.00000  0.10664
      15     C     3.08335  3.08335  0.00000 -0.16670
      16     H     0.45390  0.45390  0.00000  0.09220
      17     H     0.44785  0.44785  0.00000  0.10430
      18     C     3.14989  3.14989  0.00000 -0.29977
      19     H     0.45354  0.45354  0.00000  0.09291
      20     H     0.45247  0.45247  0.00000  0.09506
      21     H     0.45423  0.45423  0.00000  0.09154
      22     H     0.44776  0.44776  0.00000  0.10449
      23     H     0.45475  0.45475  0.00000  0.09049

   Total alpha = 36.00000, Total beta = 36.00000, Total charge =  0.00000

*** Psi4 exiting successfully. Buy a developer a beer!
