  ==> Input File <==

--------------------------------------------------------------------------
set {
	reference rhf
	basis 6-31G*
}

set_num_threads( 1 )
memory 2 gb

molecule MOL {
0 1

O	 1.846825	 1.296220	 0.000415
C	 1.705091	 0.115954	 0.001797
C	 0.381791	 -0.609817	 0.001258
O	 2.721346	 -0.737485	 -0.000216
C	 -0.823008	 0.326187	 0.001381
H	 0.371250	 -1.265087	 -0.865474
H	 0.370908	 -1.265746	 0.867490
C	 -1.032129	 1.003235	 -1.353955
H	 -0.691555	 1.078112	 0.773079
H	 -1.711394	 -0.234432	 0.274851
C	 -2.236183	 1.946531	 -1.371472
H	 -0.136551	 1.560816	 -1.624211
H	 -1.160957	 0.243984	 -2.123905
C	 -2.445344	 2.621785	 -2.726291
H	 -2.107816	 2.707142	 -0.604573
H	 -3.131732	 1.390820	 -1.102557
H	 -1.579108	 3.214093	 -3.007398
H	 -3.305749	 3.283434	 -2.706910
H	 -2.610717	 1.887217	 -3.509472
C	 4.024888	 -0.184556	 -0.001949
H	 4.179030	 0.422472	 -0.882452
H	 4.701782	 -1.024608	 -0.003642
H	 4.181981	 0.421185	 0.878906

	symmetry c1
}
set optking {
	frozen_dihedral = ("
		15 11 8 12,
		9 5 8 12,
		1 2 3 6,
		1 2 4 20
	")
}

ee = energy('scf')
oeprop('DIPOLE', 'QUADRUPOLE', 'MULLIKEN_CHARGES')
f=open( 'psi4out.xyz', 'w' )
f.write( "23  " )
f.write( str(ee) + "\n" )
f.write( MOL.save_string_xyz() )
f.close()
--------------------------------------------------------------------------

    Molecular point group: c1

    Geometry (in Angstrom), charge = 0, multiplicity = 1:

       Center              X                  Y                   Z               Mass
    ------------   -----------------  -----------------  -----------------  -----------------
           O          1.344766000790     0.649903845069     0.608646656724    15.994914619560
           C          1.203032000790    -0.530362154931     0.610028656724    12.000000000000
           C         -0.120267999210    -1.256133154931     0.609489656724    12.000000000000
           O          2.219287000790    -1.383801154931     0.608015656724    15.994914619560
           C         -1.325066999210    -0.320129154931     0.609612656724    12.000000000000
           H         -0.130808999210    -1.911403154931    -0.257242343276     1.007825032070
           H         -0.131150999210    -1.912062154931     1.475721656724     1.007825032070
           C         -1.534187999210     0.356918845069    -0.745723343276    12.000000000000
           H         -1.193613999210     0.431795845069     1.381310656724     1.007825032070
           H         -2.213452999210    -0.880748154931     0.883082656724     1.007825032070
           C         -2.738241999210     1.300214845069    -0.763240343276    12.000000000000
           H         -0.638609999210     0.914499845069    -1.015979343276     1.007825032070
           H         -1.663015999210    -0.402332154931    -1.515673343276     1.007825032070
           C         -2.947402999210     1.975468845069    -2.118059343276    12.000000000000
           H         -2.609874999210     2.060825845069     0.003658656724     1.007825032070
           H         -3.633790999210     0.744503845069    -0.494325343276     1.007825032070
           H         -2.081166999210     2.567776845069    -2.399166343276     1.007825032070
           H         -3.807807999210     2.637117845069    -2.098678343276     1.007825032070
           H         -3.112775999210     1.240900845069    -2.901240343276     1.007825032070
           C          3.522829000790    -0.830872154931     0.606282656724    12.000000000000
           H          3.676971000790    -0.223844154931    -0.274220343276     1.007825032070
           H          4.199723000790    -1.670924154931     0.604589656724     1.007825032070
           H          3.679922000790    -0.225131154931     1.487137656724     1.007825032070

  Charge       = 0
  Multiplicity = 1
  Basis Set: 6-31G*
  Basis Set:

    Orbital Energies (a.u.)
    -----------------------

    Doubly Occupied:

       1A    -20.604803     2A    -20.546825     3A    -11.373495
       4A    -11.281628     5A    -11.235538     6A    -11.218972
       7A    -11.211362     8A    -11.209246     9A    -11.205041
      10A     -1.470644    11A     -1.364422    12A     -1.090567
      13A     -1.040591    14A     -0.985927    15A     -0.928881
      16A     -0.843078    17A     -0.792294    18A     -0.767102
      19A     -0.702757    20A     -0.681208    21A     -0.672529
      22A     -0.637640    23A     -0.613166    24A     -0.598776
      25A     -0.567573    26A     -0.555699    27A     -0.551354
      28A     -0.532159    29A     -0.521954    30A     -0.500459
      31A     -0.491241    32A     -0.466504    33A     -0.464239
      34A     -0.454866    35A     -0.448451    36A     -0.435408

  @DF-RHF Final Energy:  -422.97548018571399

   => Energetics <=

    Nuclear Repulsion Energy =            463.6484699831346461
    One-Electron Energy =               -1495.1150319611847408
    Two-Electron Energy =                 608.4910817923361037
    DFT Exchange-Correlation Energy =       0.0000000000000000
    Empirical Dispersion Energy =           0.0000000000000000
    PCM Polarization Energy =               0.0000000000000000
    EFP Energy =                            0.0000000000000000
    Total Energy =                       -422.9754801857139910

  Mulliken Charges: (a.u.)
   Center  Symbol    Alpha    Beta     Spin     Total
       1     O     4.28617  4.28617  0.00000 -0.57234
       2     C     2.60584  2.60584  0.00000  0.78833
       3     C     3.20968  3.20968  0.00000 -0.41936
       4     O     4.30673  4.30673  0.00000 -0.61345
       5     C     3.15530  3.15530  0.00000 -0.31060
       6     H     0.40010  0.40010  0.00000  0.19981
       7     H     0.39801  0.39801  0.00000  0.20399
       8     C     3.15786  3.15786  0.00000 -0.31572
       9     H     0.40887  0.40887  0.00000  0.18227
      10     H     0.41868  0.41868  0.00000  0.16265
      11     C     3.15187  3.15187  0.00000 -0.30374
      12     H     0.40627  0.40627  0.00000  0.18746
      13     H     0.42783  0.42783  0.00000  0.14434
      14     C     3.23955  3.23955  0.00000 -0.47910
      15     H     0.42027  0.42027  0.00000  0.15946
      16     H     0.42533  0.42533  0.00000  0.14933
      17     H     0.41996  0.41996  0.00000  0.16008
      18     H     0.41993  0.41993  0.00000  0.16014
      19     H     0.42305  0.42305  0.00000  0.15390
      20     C     3.09244  3.09244  0.00000 -0.18488
      21     H     0.40907  0.40907  0.00000  0.18186
      22     H     0.40824  0.40824  0.00000  0.18352
      23     H     0.40898  0.40898  0.00000  0.18205

   Total alpha = 36.00000, Total beta = 36.00000, Total charge = -0.00000
