                              Psi4 1.0.54 Driver

  ==> Input File <==

--------------------------------------------------------------------------
set {
	reference rhf
	basis cc-pvtz
}

set_num_threads( 4 )
memory 2 gb

molecule MOL {
0 1

H	 2.614283	 2.028610	 0.296620
O	 3.358864	 1.662087	 -0.142800
C	 3.565468	 0.338079	 0.273842
C	 2.533667	 -0.637565	 -0.272227
H	 4.548038	 0.064914	 -0.086598
H	 3.593945	 0.282242	 1.360360
C	 1.114816	 -0.402372	 0.240993
H	 2.544552	 -0.580764	 -1.356576
H	 2.850574	 -1.642962	 -0.005497
C	 0.113298	 -1.420414	 -0.302504
H	 0.796373	 0.598427	 -0.031033
H	 1.113377	 -0.446476	 1.328807
C	 0.323461	 -2.856049	 0.182304
H	 -0.894373	 -1.100049	 -0.049141
H	 0.168369	 -1.413102	 -1.387576
C	 0.069418	 -3.079138	 1.672081
H	 -0.338716	 -3.506791	 -0.382128
H	 1.335376	 -3.172123	 -0.061173
C	 0.194988	 -4.542917	 2.086804
H	 -0.926724	 -2.720925	 1.922785
H	 0.762889	 -2.487560	 2.262112
C	 -0.054354	 -4.768685	 3.574335
H	 -0.505417	 -5.140543	 1.509869
H	 1.186866	 -4.904763	 1.829302
H	 -1.050919	 -4.446287	 3.857452
H	 0.039829	 -5.816916	 3.834041
H	 0.655098	 -4.213554	 4.179199

	symmetry c1
}
set optking {
	frozen_dihedral = ("
		14 10 7 4
	")
}

ee,wfn = optimize('scf', return_wfn=True)
oeprop( wfn, 'DIPOLE', 'QUADRUPOLE', 'MULLIKEN_CHARGES')
f=open( 'psi4out.xyz', 'w' )
f.write( "27  " )
f.write( str(ee) + "\n" )
f.write( MOL.save_string_xyz() )
f.close()
--------------------------------------------------------------------------

    Molecular point group: c1
  Charge       = 0
  Multiplicity = 1
  Basis Set: CC-PVTZ
  Basis Set:
  @DF-RHF Final Energy:  -388.42544525622759
    Total Energy =                       -388.4254452562271354
    Molecular point group: c1
  Basis Set: CC-PVTZ
  Basis Set:
  Basis Set: CC-PVTZ
  Basis Set:
  @DF-RHF Final Energy:  -388.42577944672041
    Total Energy =                       -388.4257794467202984
  Basis Set: CC-PVTZ
  Basis Set:
  Basis Set: CC-PVTZ
  Basis Set:
  @DF-RHF Final Energy:  -388.42607820993550
    Total Energy =                       -388.4260782099354401
  Basis Set: CC-PVTZ
  Basis Set:
  Basis Set: CC-PVTZ
  Basis Set:
  @DF-RHF Final Energy:  -388.42607861101624
    Total Energy =                       -388.4260786110157824
  Basis Set: CC-PVTZ
  Basis Set:
  Basis Set: CC-PVTZ
  Basis Set:
  @DF-RHF Final Energy:  -388.42608687508761
    Total Energy =                       -388.4260868750876625
  Basis Set: CC-PVTZ
  Basis Set:
  Basis Set: CC-PVTZ
  Basis Set:
  @DF-RHF Final Energy:  -388.42608836768409
    Total Energy =                       -388.4260883676835192
  Basis Set: CC-PVTZ
  Basis Set:
  Charge       = 0
  Multiplicity = 1
  Basis Set: CC-PVTZ
  Basis Set:

    Orbital Energies (a.u.)
    -----------------------

    Doubly Occupied:

       1A    -20.545265     2A    -11.265205     3A    -11.216955
       4A    -11.215017     5A    -11.214246     6A    -11.213039
       7A    -11.212841     8A    -11.212140     9A    -11.207690
      10A     -1.363283    11A     -1.096245    12A     -1.061619
      13A     -1.010923    14A     -0.951295    15A     -0.888781
      16A     -0.830505    17A     -0.802157    18A     -0.766000
      19A     -0.696595    20A     -0.656181    21A     -0.635104
      22A     -0.616565    23A     -0.605713    24A     -0.584456
      25A     -0.577178    26A     -0.554800    27A     -0.544452
      28A     -0.528646    29A     -0.513336    30A     -0.500118
      31A     -0.482489    32A     -0.477598    33A     -0.465073
      34A     -0.457297    35A     -0.448827    36A     -0.442097
      37A     -0.428494

  @DF-RHF Final Energy:  -388.42608839697215

   => Energetics <=

    Nuclear Repulsion Energy =            465.3492666988988162
    One-Electron Energy =               -1448.9742627608309249
    Two-Electron Energy =                 595.1989076649604158
    DFT Exchange-Correlation Energy =       0.0000000000000000
    Empirical Dispersion Energy =           0.0000000000000000
    PCM Polarization Energy =               0.0000000000000000
    EFP Energy =                            0.0000000000000000
    Total Energy =                       -388.4260883969716360
    Molecular point group: c1
  Basis Set: CC-PVTZ
  Basis Set:

  -Total Gradient:
     Atom            X                  Y                   Z
    ------   -----------------  -----------------  -----------------
       1        0.000002423582    -0.000003589307     0.000002710428
       2       -0.000006072550     0.000005221369    -0.000003926777
       3        0.000011073227    -0.000025829991     0.000000837996
       4       -0.000113759804     0.000404815789    -0.000522314226
       5       -0.000000478568     0.000002114959     0.000000961800
       6       -0.000006358697     0.000005411372    -0.000004752750
       7        0.000151326598    -0.000456079255     0.000566967136
       8        0.000007668950     0.000002164182    -0.000000721837
       9        0.000003765096     0.000007338958     0.000000861696
      10        0.000000268786    -0.000379476858     0.000710728650
      11        0.000001173144    -0.000010823654     0.000000314510
      12       -0.000005917990     0.000004422204     0.000001348357
      13        0.000017487733    -0.000000598181    -0.000002598165
      14       -0.000047696578     0.000450688949    -0.000760802823
      15       -0.000001436979    -0.000000715724     0.000002464725
      16       -0.000006495483    -0.000006527709    -0.000005806363
      17        0.000003497280     0.000008239336     0.000004376278
      18       -0.000005497474    -0.000007940227    -0.000002584514
      19       -0.000005334881     0.000008156325     0.000005064949
      20       -0.000002144116    -0.000006076337     0.000000859750
      21       -0.000002948523    -0.000005293082     0.000003569131
      22        0.000006632923    -0.000001811993     0.000002954806
      23       -0.000001726406     0.000005577627     0.000000075623
      24       -0.000001262937     0.000002310775    -0.000002735709
      25        0.000001245319    -0.000000695240    -0.000002687082
      26        0.000001910689    -0.000001811708     0.000003167406
      27       -0.000001342339     0.000000807425     0.000001667009

  **** Optimization is complete! (in 7 steps) ****
    Final optimized geometry and variables:
    Molecular point group: c1

    Geometry (in Angstrom), charge = 0, multiplicity = 1:

    H            1.247252705913     3.767181132709    -0.604062311325
    O            2.010206035374     3.411324874392    -1.019714294468
    C            2.268604650447     2.119212030844    -0.537956840497
    C            1.287309221691     1.072481113327    -1.045583379725
    H            3.266237052424     1.872581135598    -0.875394091060
    H            2.287020846827     2.116724353983     0.550218982535
    C           -0.145888817437     1.277715842785    -0.557698201559
    H            1.306584274128     1.078530117995    -2.131374730093
    H            1.653430215331     0.100537612360    -0.728347709235
    C           -1.152530973658     0.259882628528    -1.103078114994
    H           -0.483702029431     2.262709417154    -0.866396880093
    H           -0.163727234375     1.277284118884     0.528508403546
    C           -0.981830124612    -1.189116291467    -0.638812071939
    H           -2.153934732999     0.593832901107    -0.845543003856
    H           -1.103986523263     0.280817652426    -2.188411754329
    C           -1.171971691926    -1.411708832306     0.860305951139
    H           -1.707039488538    -1.796400148394    -1.173368832303
    H           -0.006915160166    -1.563376162773    -0.936616589512
    C           -1.113309868905    -2.884429273293     1.257813746514
    H           -2.130119859479    -0.997004998400     1.166066330378
    H           -0.414418132147    -0.868817058222     1.417793866339
    C           -1.294619084991    -3.109816767947     2.755166666520
    H           -1.878946271994    -3.432882876827     0.716117158482
    H           -0.160778917989    -3.302886111693     0.943900283400
    H           -2.253244045579    -2.731554892419     3.094564729718
    H           -1.249602453352    -4.164286444926     3.002306901195
    H           -0.521387289988    -2.604016217465     3.324006323767

  Mulliken Charges: (a.u.)
   Center  Symbol    Alpha    Beta     Spin     Total
       1     H     0.39241  0.39241  0.00000  0.21518
       2     O     4.20558  4.20558  0.00000 -0.41116
       3     C     2.97812  2.97812  0.00000  0.04376
       4     C     3.08878  3.08878  0.00000 -0.17756
       5     H     0.44846  0.44846  0.00000  0.10307
       6     H     0.46934  0.46934  0.00000  0.06131
       7     C     3.11842  3.11842  0.00000 -0.23683
       8     H     0.45051  0.45051  0.00000  0.09899
       9     H     0.45623  0.45623  0.00000  0.08753
      10     C     3.10553  3.10553  0.00000 -0.21105
      11     H     0.44705  0.44705  0.00000  0.10590
      12     H     0.44957  0.44957  0.00000  0.10085
      13     C     3.10500  3.10500  0.00000 -0.21001
      14     H     0.44679  0.44679  0.00000  0.10643
      15     H     0.44606  0.44606  0.00000  0.10788
      16     C     3.08721  3.08721  0.00000 -0.17441
      17     H     0.44468  0.44468  0.00000  0.11065
      18     H     0.45019  0.45019  0.00000  0.09962
      19     C     3.08391  3.08391  0.00000 -0.16781
      20     H     0.45426  0.45426  0.00000  0.09147
      21     H     0.45509  0.45509  0.00000  0.08982
      22     C     3.14988  3.14988  0.00000 -0.29976
      23     H     0.45371  0.45371  0.00000  0.09259
      24     H     0.45434  0.45434  0.00000  0.09131
      25     H     0.45510  0.45510  0.00000  0.08979
      26     H     0.44808  0.44808  0.00000  0.10384
      27     H     0.45570  0.45570  0.00000  0.08860

   Total alpha = 37.00000, Total beta = 37.00000, Total charge =  0.00000

*** Psi4 exiting successfully. Buy a developer a beer!
