  ==> Input File <==

--------------------------------------------------------------------------
set {
	reference rhf
	basis cc-pvtz
}

set_num_threads( 4 )
memory 2 gb

molecule MOL {
0 1

H	 -2.816458	 -0.841657	 -0.064679
N	 -1.878861	 -0.711874	 0.250184
C	 -1.341419	 0.551458	 -0.220231
H	 -1.333674	 -1.468530	 -0.105118
C	 0.082190	 0.731516	 0.254705
H	 -1.357065	 0.652078	 -1.304747
H	 -1.939897	 1.357530	 0.189797
O	 0.744158	 1.591327	 -0.622923
H	 0.086173	 1.148368	 1.260882
H	 0.582659	 -0.233691	 0.283586
C	 2.088774	 1.785927	 -0.334203
H	 2.492099	 2.465315	 -1.071188
H	 2.224452	 2.221592	 0.653462
H	 2.644163	 0.851983	 -0.377260

	symmetry c1
}
set optking {
	frozen_dihedral = ("
		8 5 3 6
	")
}

ee = optimize('scf')
oeprop('DIPOLE', 'QUADRUPOLE', 'MULLIKEN_CHARGES')
f=open( 'psi4out.xyz', 'w' )
f.write( "14  " )
f.write( str(ee) + "\n" )
f.write( MOL.save_string_xyz() )
f.close()
--------------------------------------------------------------------------

    Molecular point group: c1
  Charge       = 0
  Multiplicity = 1
  Basis Set: CC-PVTZ
  Basis Set:
  @DF-RHF Final Energy:  -248.22186170980567
    Total Energy =                       -248.2218617098056370
    Molecular point group: c1
  Basis Set: CC-PVTZ
  Basis Set:
  Basis Set: CC-PVTZ
  Basis Set:
  @DF-RHF Final Energy:  -248.22262191344279
    Total Energy =                       -248.2226219134427083
  Basis Set: CC-PVTZ
  Basis Set:
  Basis Set: CC-PVTZ
  Basis Set:
  @DF-RHF Final Energy:  -248.22275080852435
    Total Energy =                       -248.2227508085244381
  Basis Set: CC-PVTZ
  Basis Set:
  Basis Set: CC-PVTZ
  Basis Set:
  @DF-RHF Final Energy:  -248.22276709451344
    Total Energy =                       -248.2227670945135287
  Basis Set: CC-PVTZ
  Basis Set:
  Charge       = 0
  Multiplicity = 1
  Basis Set: CC-PVTZ
  Basis Set:

    Orbital Energies (a.u.)
    -----------------------

    Doubly Occupied:

       1A    -20.548697     2A    -15.532435     3A    -11.262548
       4A    -11.262227     5A    -11.239700     6A     -1.382996
       7A     -1.182527     8A     -0.999307     9A     -0.900507
      10A     -0.823944    11A     -0.688380    12A     -0.666478
      13A     -0.654518    14A     -0.621727    15A     -0.586059
      16A     -0.571015    17A     -0.515805    18A     -0.498116
      19A     -0.471698    20A     -0.416857    21A     -0.389501

  @DF-RHF Final Energy:  -248.22276784462713

   => Energetics <=

    Nuclear Repulsion Energy =            191.0718387243318830
    One-Electron Energy =                -716.1591373969615688
    Two-Electron Energy =                 276.8645308280026711
    DFT Exchange-Correlation Energy =       0.0000000000000000
    Empirical Dispersion Energy =           0.0000000000000000
    PCM Polarization Energy =               0.0000000000000000
    EFP Energy =                            0.0000000000000000
    Total Energy =                       -248.2227678446270147
    Molecular point group: c1
  Basis Set: CC-PVTZ
  Basis Set:

  -Total Gradient:
     Atom            X                  Y                   Z
    ------   -----------------  -----------------  -----------------
       1       -0.000012935336    -0.000000434711    -0.000010895031
       2        0.000043743537     0.000031433487     0.000004375415
       3        0.001034853511    -0.005911830752    -0.001062811471
       4       -0.000001506159    -0.000033083450    -0.000013582446
       5       -0.001289270196     0.004389203516     0.002531292107
       6       -0.000642886901     0.004200234673     0.000403863570
       7       -0.000003615422     0.000019461797    -0.000008608716
       8        0.000878749702    -0.002667419615    -0.001868378363
       9        0.000010655162     0.000002992754     0.000006172727
      10        0.000025591260     0.000001987656    -0.000011535429
      11       -0.000011506555    -0.000016810499     0.000057931593
      12       -0.000032908779    -0.000016708434    -0.000016221859
      13        0.000001169568     0.000001415080    -0.000000439373
      14       -0.000000133394    -0.000000441499    -0.000011162724

  **** Optimization is complete! (in 5 steps) ****
    Final optimized geometry and variables:
    Molecular point group: c1

    Geometry (in Angstrom), charge = 0, multiplicity = 1:

    H           -2.827862910908    -1.516502356656     0.288837853771
    N           -1.839634248582    -1.482624340790     0.416581895468
    C           -1.286833584914    -0.241746652962    -0.093284619171
    H           -1.450774371313    -2.271681165888    -0.055521295550
    C            0.152623264941    -0.074980788742     0.367919023474
    H           -1.309700062242    -0.135507214709    -1.175153405627
    H           -1.880736821583     0.575940728924     0.298366133833
    O            0.813948280073     0.781037211167    -0.509609479476
    H            0.186543186595     0.307310091141     1.385221364768
    H            0.645069225963    -1.047431365196     0.374315882094
    C            2.127371163958     1.061047160059    -0.157188012412
    H            2.540015863273     1.717374847513    -0.909694063207
    H            2.184924697287     1.556670753574     0.809342167281
    H            2.729697911191     0.155812890294    -0.114391222416

  Mulliken Charges: (a.u.)
   Center  Symbol    Alpha    Beta     Spin     Total
       1     H     0.42688  0.42688  0.00000  0.14625
       2     N     3.69517  3.69517  0.00000 -0.39033
       3     C     3.03280  3.03280  0.00000 -0.06560
       4     H     0.42856  0.42856  0.00000  0.14289
       5     C     2.95269  2.95269  0.00000  0.09463
       6     H     0.46127  0.46127  0.00000  0.07746
       7     H     0.45694  0.45694  0.00000  0.08613
       8     O     4.17414  4.17414  0.00000 -0.34828
       9     H     0.47156  0.47156  0.00000  0.05688
      10     H     0.47936  0.47936  0.00000  0.04128
      11     C     3.02998  3.02998  0.00000 -0.05995
      12     H     0.44732  0.44732  0.00000  0.10537
      13     H     0.47096  0.47096  0.00000  0.05807
      14     H     0.47239  0.47239  0.00000  0.05521

   Total alpha = 21.00000, Total beta = 21.00000, Total charge = -0.00000
