  ==> Input File <==

--------------------------------------------------------------------------
set {
	reference rhf
	basis cc-pvtz
}

set_num_threads( 4 )
memory 2 gb

molecule MOL {
0 1

H	 -3.162190	 0.493205	 -0.000107
C	 -2.363908	 -0.234727	 0.000005
O	 -1.158738	 0.454634	 -0.000087
H	 -2.464314	 -0.863616	 -0.882153
H	 -2.464327	 -0.863359	 0.882345
C	 -0.028611	 -0.359694	 0.000037
C	 1.167556	 0.446389	 -0.464513
H	 -0.183924	 -1.214863	 -0.658144
H	 0.149022	 -0.752548	 1.001413
C	 2.449893	 -0.377747	 -0.492178
H	 0.955706	 0.840965	 -1.452113
H	 1.286030	 1.299564	 0.194280
H	 2.361404	 -1.224270	 -1.164974
H	 3.287246	 0.221851	 -0.827354
H	 2.694095	 -0.762352	 0.492460

	symmetry c1
}
set optking {
	frozen_dihedral = ("
		8 6 3 2
	")
}

ee = optimize('scf')
oeprop('DIPOLE', 'QUADRUPOLE', 'MULLIKEN_CHARGES')
f=open( 'psi4out.xyz', 'w' )
f.write( "15  " )
f.write( str(ee) + "\n" )
f.write( MOL.save_string_xyz() )
f.close()
--------------------------------------------------------------------------

    Molecular point group: c1
  Charge       = 0
  Multiplicity = 1
  Basis Set: CC-PVTZ
  Basis Set:
  @DF-RHF Final Energy:  -232.22735300082982
    Total Energy =                       -232.2273530008297939
    Molecular point group: c1
  Basis Set: CC-PVTZ
  Basis Set:
  Basis Set: CC-PVTZ
  Basis Set:
  @DF-RHF Final Energy:  -232.22740081554707
    Total Energy =                       -232.2274008155470710
  Basis Set: CC-PVTZ
  Basis Set:
  Charge       = 0
  Multiplicity = 1
  Basis Set: CC-PVTZ
  Basis Set:

    Orbital Energies (a.u.)
    -----------------------

    Doubly Occupied:

       1A    -20.546821     2A    -11.264300     3A    -11.261993
       4A    -11.212935     5A    -11.210784     6A     -1.380762
       7A     -1.058427     8A     -0.956293     9A     -0.877604
      10A     -0.809778    11A     -0.675795    12A     -0.655688
      13A     -0.632885    14A     -0.607613    15A     -0.565963
      16A     -0.540491    17A     -0.503845    18A     -0.490559
      19A     -0.479234    20A     -0.463857    21A     -0.414476

  @DF-RHF Final Energy:  -232.22741325398641

   => Energetics <=

    Nuclear Repulsion Energy =            189.9705722576250082
    One-Electron Energy =                -691.1757629315713984
    Two-Electron Energy =                 268.9777774199598070
    DFT Exchange-Correlation Energy =       0.0000000000000000
    Empirical Dispersion Energy =           0.0000000000000000
    PCM Polarization Energy =               0.0000000000000000
    EFP Energy =                            0.0000000000000000
    Total Energy =                       -232.2274132539865832
    Molecular point group: c1
  Basis Set: CC-PVTZ
  Basis Set:

  -Total Gradient:
     Atom            X                  Y                   Z
    ------   -----------------  -----------------  -----------------
       1        0.000047751523     0.000027988502     0.000000980113
       2       -0.000104486845    -0.000094273777    -0.001894290002
       3       -0.000205205459    -0.000307699811     0.003152108530
       4       -0.000006694197     0.000015896233    -0.000002709446
       5       -0.000002516526     0.000014728447    -0.000001784537
       6        0.001097732063     0.001494248086    -0.003024527765
       7        0.000101162911     0.000078880381    -0.000052125249
       8       -0.000837229095    -0.001174853953     0.001871212826
       9       -0.000012783313    -0.000042406967    -0.000050185144
      10       -0.000073739938    -0.000032428108    -0.000008447890
      11       -0.000004977971     0.000014131334    -0.000021861982
      12        0.000008921832    -0.000001790833     0.000004569740
      13        0.000007958422    -0.000014747861     0.000003196559
      14       -0.000022105368     0.000022304035     0.000010949618
      15        0.000006211957     0.000000024296     0.000012914627

  **** Optimization is complete! (in 3 steps) ****
    Final optimized geometry and variables:
    Molecular point group: c1

    Geometry (in Angstrom), charge = 0, multiplicity = 1:

    H           -3.143879706863     0.529525338589     0.230006359502
    C           -2.351739964718    -0.204744954511     0.202201935042
    O           -1.141755749136     0.475957739042     0.187139918305
    H           -2.473863862321    -0.818326355882    -0.687498176509
    H           -2.442197445230    -0.846380823383     1.076666249979
    C           -0.010400845223    -0.338786423366     0.166583538875
    C            1.187536396272     0.470056431966    -0.287951841578
    H           -0.172027214850    -1.191434171161    -0.491898110309
    H            0.168105428755    -0.746070830868     1.162281505330
    C            2.474957635403    -0.346543150740    -0.288766597229
    H            0.988595363313     0.856622180023    -1.281568575326
    H            1.290899700169     1.328733346096     0.366375876669
    H            2.401240010685    -1.200893796320    -0.953627796268
    H            3.313530022598     0.254579069632    -0.618365301154
    H            2.707006954777    -0.719065148465     0.703403851135

  Mulliken Charges: (a.u.)
   Center  Symbol    Alpha    Beta     Spin     Total
       1     H     0.44768  0.44768  0.00000  0.10465
       2     C     3.03302  3.03302  0.00000 -0.06604
       3     O     4.17292  4.17292  0.00000 -0.34583
       4     H     0.47131  0.47131  0.00000  0.05738
       5     H     0.47245  0.47245  0.00000  0.05509
       6     C     2.95694  2.95694  0.00000  0.08612
       7     C     3.08016  3.08016  0.00000 -0.16031
       8     H     0.47770  0.47770  0.00000  0.04460
       9     H     0.47164  0.47164  0.00000  0.05672
      10     C     3.15574  3.15574  0.00000 -0.31148
      11     H     0.45222  0.45222  0.00000  0.09556
      12     H     0.45037  0.45037  0.00000  0.09926
      13     H     0.45602  0.45602  0.00000  0.08796
      14     H     0.44632  0.44632  0.00000  0.10737
      15     H     0.45552  0.45552  0.00000  0.08895

   Total alpha = 21.00000, Total beta = 21.00000, Total charge =  0.00000
