  ==> Input File <==

--------------------------------------------------------------------------
set {
	reference rhf
	basis 6-31G*
}

set_num_threads( 4 )
memory 2 gb

molecule MOL {
0 1

H	 -0.019958	 -0.711943	 -1.839328
C	 -0.563379	 -1.194424	 -1.029360
O	 -1.392607	 -0.295399	 -0.366433
H	 -1.190290	 -1.972239	 -1.443037
H	 0.158668	 -1.648189	 -0.351737
C	 -0.719715	 0.768384	 0.229244
C	 0.719720	 0.768376	 -0.229267
H	 -1.185038	 1.714362	 -0.050570
H	 -0.750528	 0.687237	 1.313896
O	 1.392611	 -0.295398	 0.366430
H	 0.750534	 0.687200	 -1.313918
H	 1.185043	 1.714359	 0.050526
C	 2.706965	 -0.449871	 -0.062409
H	 2.756559	 -0.644779	 -1.131878
H	 3.305899	 0.433456	 0.155466
H	 3.125548	 -1.294566	 0.467107

	symmetry c1
}
set optking {
	frozen_dihedral = ("
		2 3 6 7
	")
}

ee = optimize('scf')
oeprop('DIPOLE', 'QUADRUPOLE', 'MULLIKEN_CHARGES')
f=open( 'psi4out.xyz', 'w' )
f.write( "16  " )
f.write( str(ee) + "\n" )
f.write( MOL.save_string_xyz() )
f.close()
--------------------------------------------------------------------------

    Molecular point group: c1
  Charge       = 0
  Multiplicity = 1
  Basis Set: 6-31G*
  Basis Set:
  @DF-RHF Final Energy:  -306.94614665137573
    Total Energy =                       -306.9461466513756704
    Molecular point group: c1
  Basis Set: 6-31G*
  Basis Set:
  Basis Set: 6-31G*
  Basis Set:
  @DF-RHF Final Energy:  -306.96085877667855
    Total Energy =                       -306.9608587766784922
  Basis Set: 6-31G*
  Basis Set:
  Basis Set: 6-31G*
  Basis Set:
  @DF-RHF Final Energy:  -306.96688578692880
    Total Energy =                       -306.9668857869285148
  Basis Set: 6-31G*
  Basis Set:
  Basis Set: 6-31G*
  Basis Set:
  @DF-RHF Final Energy:  -306.96804555149203
    Total Energy =                       -306.9680455514918549
  Basis Set: 6-31G*
  Basis Set:
  @DF-RHF Final Energy:  -306.96854871618456
    Total Energy =                       -306.9685487161848414
  @DF-RHF Final Energy:  -306.96883687641292
    Total Energy =                       -306.9688368764130928
  Basis Set: 6-31G*
  Basis Set:
  @DF-RHF Final Energy:  -306.96894520850060
    Total Energy =                       -306.9689452085007133
  Basis Set: 6-31G*
  Basis Set:
  Basis Set: 6-31G*
  Basis Set:
  @DF-RHF Final Energy:  -306.96895227753464
    Total Energy =                       -306.9689522775348109
  Basis Set: 6-31G*
  Basis Set:
  Basis Set: 6-31G*
  Basis Set:
  @DF-RHF Final Energy:  -306.96895438126660
    Total Energy =                       -306.9689543812667125
  Basis Set: 6-31G*
  Basis Set:
  Charge       = 0
  Multiplicity = 1
  Basis Set: 6-31G*
  Basis Set:

    Orbital Energies (a.u.)
    -----------------------

    Doubly Occupied:

       1A    -20.565156     2A    -20.544582     3A    -11.277542
       4A    -11.272775     5A    -11.268269     6A    -11.255228
       7A     -1.392609     8A     -1.361477     9A     -1.030466
      10A     -0.950813    11A     -0.897879    12A     -0.811905
      13A     -0.693805    14A     -0.682188    15A     -0.655725
      16A     -0.634675    17A     -0.624898    18A     -0.589761
      19A     -0.558664    20A     -0.547255    21A     -0.516705
      22A     -0.492793    23A     -0.445549    24A     -0.424759
      25A     -0.401619

  @DF-RHF Final Energy:  -306.96895487259656

   => Energetics <=

    Nuclear Repulsion Energy =            264.6378204647845678
    One-Electron Energy =                -943.4193564262402560
    Two-Electron Energy =                 371.8125810888592468
    DFT Exchange-Correlation Energy =       0.0000000000000000
    Empirical Dispersion Energy =           0.0000000000000000
    PCM Polarization Energy =               0.0000000000000000
    EFP Energy =                            0.0000000000000000
    Total Energy =                       -306.9689548725964414
    Molecular point group: c1
  Basis Set: 6-31G*
  Basis Set:

  -Total Gradient:
     Atom            X                  Y                   Z
    ------   -----------------  -----------------  -----------------
       1       -0.000000473063     0.000004057446     0.000002563398
       2       -0.000179556864     0.000930156575    -0.001591046219
       3        0.000485992591    -0.001993699925     0.003025457479
       4       -0.000001414694     0.000011397310     0.000008901135
       5       -0.000010873106     0.000011838892     0.000000798333
       6       -0.000686261306     0.002034928787    -0.002704128634
       7        0.000407362081    -0.001010182372     0.001280462762
       8        0.000004189395    -0.000013467448    -0.000006634672
       9       -0.000010546951     0.000000700342     0.000002649810
      10        0.000065707188     0.000034857739    -0.000031998922
      11       -0.000007747782     0.000013165928    -0.000018532019
      12       -0.000003349154    -0.000005454985     0.000002083182
      13       -0.000095203586    -0.000026601141     0.000046426125
      14        0.000007708639     0.000005040566    -0.000009424778
      15        0.000004079169     0.000007143011    -0.000004225128
      16        0.000020387442    -0.000003880725    -0.000003351853

  **** Optimization is complete! (in 10 steps) ****
    Final optimized geometry and variables:
    Molecular point group: c1

    Geometry (in Angstrom), charge = 0, multiplicity = 1:

    H           -0.761906552040    -0.872167621408    -1.783575485283
    C           -1.280756264144    -1.215987621754    -0.893055442269
    O           -1.836111174606    -0.163537898830    -0.161497648193
    H           -2.112512299765    -1.832620483415    -1.206214295419
    H           -0.598646567349    -1.811870687521    -0.299980249439
    C           -1.032419637038     0.849522431376     0.380480716780
    C            0.426456469757     0.911476851741    -0.032850732859
    H           -1.492078295081     1.795266735355     0.110230183456
    H           -1.060397026065     0.766450811010     1.462660863894
    O            1.135246491776    -0.147073394319     0.534148671514
    H            0.533409565617     0.909185844714    -1.116013911332
    H            0.823769167989     1.861293017010     0.326025871465
    C            2.492692649300    -0.156777812241     0.222452118736
    H            2.654685791664    -0.249615203446    -0.849758517760
    H            2.985857696505     0.749555065377     0.568602472169
    H            2.935830347877    -1.008484781047     0.719369126131

  Mulliken Charges: (a.u.)
   Center  Symbol    Alpha    Beta     Spin     Total
       1     H     0.43478  0.43478  0.00000  0.13044
       2     C     3.07854  3.07854  0.00000 -0.15707
       3     O     4.31719  4.31719  0.00000 -0.63439
       4     H     0.41519  0.41519  0.00000  0.16963
       5     H     0.41510  0.41510  0.00000  0.16981
       6     C     2.97600  2.97600  0.00000  0.04800
       7     C     3.02238  3.02238  0.00000 -0.04477
       8     H     0.42320  0.42320  0.00000  0.15359
       9     H     0.41844  0.41844  0.00000  0.16311
      10     O     4.30219  4.30219  0.00000 -0.60438
      11     H     0.42480  0.42480  0.00000  0.15039
      12     H     0.42444  0.42444  0.00000  0.15112
      13     C     3.08107  3.08107  0.00000 -0.16214
      14     H     0.42864  0.42864  0.00000  0.14271
      15     H     0.42837  0.42837  0.00000  0.14327
      16     H     0.40966  0.40966  0.00000  0.18067

   Total alpha = 25.00000, Total beta = 25.00000, Total charge = -0.00000
