  ==> Input File <==

--------------------------------------------------------------------------
set {
	reference rhf
	basis cc-pvtz
}

set_num_threads( 4 )
memory 2 gb

molecule MOL {
0 1

H	 -2.594104	 1.632329	 2.008112
C	 -2.474085	 0.672572	 1.549015
C	 -1.388668	 0.418528	 0.860047
H	 -3.248977	 -0.059016	 1.667839
O	 -1.189946	 -0.765863	 0.237511
H	 -0.602122	 1.141339	 0.741649
C	 0.026572	 -0.995256	 -0.379403
C	 1.057223	 0.049888	 -0.004615
H	 -0.054361	 -1.010670	 -1.459674
H	 0.397526	 -1.952058	 -0.044198
F	 2.203233	 -0.234060	 -0.590375
F	 0.698147	 1.254887	 -0.392621
F	 1.266440	 0.094219	 1.288722

	symmetry c1
}
set optking {
	frozen_dihedral = ("
		3 5 7 9
	")
}

ee = optimize('scf')
oeprop('DIPOLE', 'QUADRUPOLE', 'MULLIKEN_CHARGES')
f=open( 'psi4out.xyz', 'w' )
f.write( "13  " )
f.write( str(ee) + "\n" )
f.write( MOL.save_string_xyz() )
f.close()
--------------------------------------------------------------------------

    Molecular point group: c1
  Charge       = 0
  Multiplicity = 1
  Basis Set: CC-PVTZ
  Basis Set:
  @DF-RHF Final Energy:  -527.71540945102538
    Total Energy =                       -527.7154094510252662
    Molecular point group: c1
  Basis Set: CC-PVTZ
  Basis Set:
  Basis Set: CC-PVTZ
  Basis Set:
  @DF-RHF Final Energy:  -527.72717132498690
    Total Energy =                       -527.7271713249868981
  Basis Set: CC-PVTZ
  Basis Set:
  Basis Set: CC-PVTZ
  Basis Set:
  @DF-RHF Final Energy:  -527.73120559794677
    Total Energy =                       -527.7312055979468823
  Basis Set: CC-PVTZ
  Basis Set:
  Basis Set: CC-PVTZ
  Basis Set:
  @DF-RHF Final Energy:  -527.73211937413180
    Total Energy =                       -527.7321193741317984
  Basis Set: CC-PVTZ
  Basis Set:
  @DF-RHF Final Energy:  -527.73235781098333
    Total Energy =                       -527.7323578109835580
  Basis Set: CC-PVTZ
  Basis Set:
  @DF-RHF Final Energy:  -527.73240033792399
    Total Energy =                       -527.7324003379246733
  Basis Set: CC-PVTZ
  Basis Set:
  Basis Set: CC-PVTZ
  Basis Set:
  @DF-RHF Final Energy:  -527.73240788525072
    Total Energy =                       -527.7324078852507228
  Basis Set: CC-PVTZ
  Basis Set:
  Basis Set: CC-PVTZ
  Basis Set:
  @DF-RHF Final Energy:  -527.73241126625885
    Total Energy =                       -527.7324112662588504
  Basis Set: CC-PVTZ
  Basis Set:
  Charge       = 0
  Multiplicity = 1
  Basis Set: CC-PVTZ
  Basis Set:

    Orbital Energies (a.u.)
    -----------------------

    Doubly Occupied:

       1A    -26.348874     2A    -26.348393     3A    -26.348309
       4A    -20.599388     5A    -11.508835     6A    -11.321984
       7A    -11.295927     8A    -11.209414     9A     -1.759409
      10A     -1.654915    11A     -1.654458    12A     -1.436704
      13A     -1.089456    14A     -1.023918    15A     -0.938473
      16A     -0.853105    17A     -0.848665    18A     -0.843394
      19A     -0.767557    20A     -0.732136    21A     -0.730709
      22A     -0.708752    23A     -0.690370    24A     -0.671238
      25A     -0.665075    26A     -0.659788    27A     -0.650913
      28A     -0.587969    29A     -0.559954    30A     -0.533004
      31A     -0.504421    32A     -0.351014

  @DF-RHF Final Energy:  -527.73241204091187

   => Energetics <=

    Nuclear Repulsion Energy =            416.0461533839026629
    One-Electron Energy =               -1555.7640901345789644
    Two-Electron Energy =                 611.9855247097644906
    DFT Exchange-Correlation Energy =       0.0000000000000000
    Empirical Dispersion Energy =           0.0000000000000000
    PCM Polarization Energy =               0.0000000000000000
    EFP Energy =                            0.0000000000000000
    Total Energy =                       -527.7324120409117540
    Molecular point group: c1
  Basis Set: CC-PVTZ
  Basis Set:

  -Total Gradient:
     Atom            X                  Y                   Z
    ------   -----------------  -----------------  -----------------
       1        0.000008453896     0.000001349889     0.000013942441
       2        0.000038648465    -0.000041343311    -0.000057179486
       3        0.000494005371    -0.000595482332     0.001502899283
       4        0.000004621749     0.000011860268     0.000000159084
       5       -0.001027728582     0.000560841812    -0.002254964534
       6        0.000015149598    -0.000035479453     0.000013531263
       7        0.000811284850     0.001966650696     0.000675708351
       8       -0.000073528425     0.000102566766     0.000006857039
       9       -0.000329794341    -0.001864580182     0.000094838158
      10       -0.000019630871     0.000007114136     0.000010991920
      11        0.000037742487    -0.000036594548     0.000006305888
      12       -0.000029285389    -0.000038629707     0.000004911221
      13        0.000070061193    -0.000038274038    -0.000018000629

  **** Optimization is complete! (in 9 steps) ****
    Final optimized geometry and variables:
    Molecular point group: c1

    Geometry (in Angstrom), charge = 0, multiplicity = 1:

    H           -3.079685337226     1.488110407524     1.813212828677
    C           -2.854596279207     0.558400627374     1.332173673621
    C           -1.732830253042     0.435330597331     0.663707338523
    H           -3.556720939829    -0.248410251062     1.409648321185
    O           -1.421462123394    -0.716304423867     0.027443005962
    H           -1.035208154945     1.242440489439     0.584419274770
    C           -0.211295870646    -0.979775177129    -0.600472883342
    C            0.960871615990    -0.056549034439    -0.332937853487
    H           -0.352855854867    -1.007697082284    -1.673660292308
    H            0.111192765749    -1.961195097576    -0.281794819450
    F            2.026389221595    -0.571225682407    -0.908245269497
    F            0.793562833317     1.151204793174    -0.832001223602
    F            1.220680887125     0.075807808646     0.947816331002

  Mulliken Charges: (a.u.)
   Center  Symbol    Alpha    Beta     Spin     Total
       1     H     0.42520  0.42520  0.00000  0.14960
       2     C     3.20041  3.20041  0.00000 -0.40082
       3     C     2.96451  2.96451  0.00000  0.07099
       4     H     0.42633  0.42633  0.00000  0.14733
       5     O     4.14605  4.14605  0.00000 -0.29210
       6     H     0.42568  0.42568  0.00000  0.14864
       7     C     2.99119  2.99119  0.00000  0.01762
       8     C     2.69106  2.69106  0.00000  0.61789
       9     H     0.45345  0.45345  0.00000  0.09310
      10     H     0.44898  0.44898  0.00000  0.10204
      11     F     4.60581  4.60581  0.00000 -0.21163
      12     F     4.61211  4.61211  0.00000 -0.22422
      13     F     4.60922  4.60922  0.00000 -0.21844

   Total alpha = 32.00000, Total beta = 32.00000, Total charge =  0.00000
