  ==> Input File <==

--------------------------------------------------------------------------
set {
	reference rhf
	basis cc-pvtz
}

set_num_threads( 4 )
memory 2 gb

molecule MOL {
0 1

H	 1.093748	 -1.115947	 -0.726735
O	 1.266760	 -0.223717	 -0.968489
C	 0.706474	 0.636793	 -0.025501
C	 -0.793473	 0.591216	 0.050087
H	 1.019479	 1.637484	 -0.299267
H	 1.114253	 0.444893	 0.965252
C	 -1.534243	 -0.493009	 -0.013340
H	 -1.266611	 1.552628	 0.164437
H	 -1.101195	 -1.466332	 -0.144046
H	 -2.604242	 -0.437780	 0.050785

	symmetry c1
}
set optking {
	frozen_dihedral = ("
		5 3 4 7
	")
}

ee = optimize('scf')
oeprop('DIPOLE', 'QUADRUPOLE', 'MULLIKEN_CHARGES')
f=open( 'psi4out.xyz', 'w' )
f.write( "10  " )
f.write( str(ee) + "\n" )
f.write( MOL.save_string_xyz() )
f.close()
--------------------------------------------------------------------------

    Molecular point group: c1
  Charge       = 0
  Multiplicity = 1
  Basis Set: CC-PVTZ
  Basis Set:
  @DF-RHF Final Energy:  -191.99315748811472
    Total Energy =                       -191.9931574881146048
    Molecular point group: c1
  Basis Set: CC-PVTZ
  Basis Set:
  Basis Set: CC-PVTZ
  Basis Set:
  @DF-RHF Final Energy:  -191.99356356436971
    Total Energy =                       -191.9935635643698220
  Basis Set: CC-PVTZ
  Basis Set:
  Basis Set: CC-PVTZ
  Basis Set:
  @DF-RHF Final Energy:  -191.99361945732659
    Total Energy =                       -191.9936194573265880
  Basis Set: CC-PVTZ
  Basis Set:
  Basis Set: CC-PVTZ
  Basis Set:
  @DF-RHF Final Energy:  -191.99362854858720
    Total Energy =                       -191.9936285485870826
  Basis Set: CC-PVTZ
  Basis Set:
  Basis Set: CC-PVTZ
  Basis Set:
  @DF-RHF Final Energy:  -191.99363354644601
    Total Energy =                       -191.9936335464460342
  Basis Set: CC-PVTZ
  Basis Set:
  Basis Set: CC-PVTZ
  Basis Set:
  @DF-RHF Final Energy:  -191.99363379080063
    Total Energy =                       -191.9936337908006294
  Basis Set: CC-PVTZ
  Basis Set:
  Basis Set: CC-PVTZ
  Basis Set:
  @DF-RHF Final Energy:  -191.99363758956702
    Total Energy =                       -191.9936375895667595
  Basis Set: CC-PVTZ
  Basis Set:
  Charge       = 0
  Multiplicity = 1
  Basis Set: CC-PVTZ
  Basis Set:

    Orbital Energies (a.u.)
    -----------------------

    Doubly Occupied:

       1A    -20.553887     2A    -11.277978     3A    -11.230896
       4A    -11.220042     5A     -1.373411     6A     -1.063270
       7A     -0.932173     8A     -0.770286     9A     -0.701213
      10A     -0.660947    11A     -0.623936    12A     -0.574996
      13A     -0.529999    14A     -0.507994    15A     -0.446234
      16A     -0.370875

  @DF-RHF Final Energy:  -191.99363816094871

   => Energetics <=

    Nuclear Repulsion Energy =            118.8550094672987143
    One-Electron Energy =                -496.0210183224533580
    Two-Electron Energy =                 185.1723706942059664
    DFT Exchange-Correlation Energy =       0.0000000000000000
    Empirical Dispersion Energy =           0.0000000000000000
    PCM Polarization Energy =               0.0000000000000000
    EFP Energy =                            0.0000000000000000
    Total Energy =                       -191.9936381609486773
    Molecular point group: c1
  Basis Set: CC-PVTZ
  Basis Set:

  -Total Gradient:
     Atom            X                  Y                   Z
    ------   -----------------  -----------------  -----------------
       1        0.000002412760    -0.000014720625    -0.000043445078
       2        0.000006575333    -0.000043977550     0.000077510494
       3       -0.000103890019    -0.001503576203    -0.003278129517
       4       -0.000348097620     0.000869287593    -0.005171443121
       5        0.000208027699     0.001124246902     0.004294495935
       6       -0.000003924563    -0.000014538341    -0.000003263836
       7        0.000222966792    -0.000391317641     0.004201098513
       8       -0.000001754455    -0.000007520597    -0.000041740613
       9        0.000007505046    -0.000022246699    -0.000011684174
      10        0.000010179028     0.000004363161    -0.000023398603

  **** Optimization is complete! (in 8 steps) ****
    Final optimized geometry and variables:
    Molecular point group: c1

    Geometry (in Angstrom), charge = 0, multiplicity = 1:

    H            1.211590292090    -1.231243061478    -0.383315566065
    O            1.291774369633    -0.348197665427    -0.692483726774
    C            0.723499874442     0.540015205638     0.221309775442
    C           -0.783582528272     0.500982168369     0.308418758564
    H            1.042736033362     1.535877741953    -0.052968023942
    H            1.125947159652     0.370137165720     1.218786042018
    C           -1.528494736596    -0.580087364443     0.249264279915
    H           -1.255604403249     1.446747015120     0.514101739720
    H           -1.117157081543    -1.553477687243     0.050877194538
    H           -2.593989825351    -0.529868065400     0.367403899507

  Mulliken Charges: (a.u.)
   Center  Symbol    Alpha    Beta     Spin     Total
       1     H     0.39165  0.39165  0.00000  0.21670
       2     O     4.19700  4.19700  0.00000 -0.39401
       3     C     2.95612  2.95612  0.00000  0.08776
       4     C     3.07180  3.07180  0.00000 -0.14360
       5     H     0.45276  0.45276  0.00000  0.09448
       6     H     0.46930  0.46930  0.00000  0.06140
       7     C     3.17446  3.17446  0.00000 -0.34893
       8     H     0.42086  0.42086  0.00000  0.15829
       9     H     0.43949  0.43949  0.00000  0.12102
      10     H     0.42656  0.42656  0.00000  0.14689

   Total alpha = 16.00000, Total beta = 16.00000, Total charge = -0.00000
