  ==> Input File <==

--------------------------------------------------------------------------
set {
	reference rhf
	basis 6-31G*
}

set_num_threads( 1 )
memory 2 gb

molecule MOL {
0 1

H	 -3.420663	 1.227371	 -1.044276
O	 -3.452007	 0.283848	 -0.965577
C	 -3.181085	 -0.079926	 0.364119
C	 -1.765924	 0.277073	 0.805136
H	 -3.327791	 -1.152017	 0.410903
H	 -3.905698	 0.375695	 1.036898
C	 -1.108778	 1.351220	 -0.062553
H	 -1.790975	 0.608212	 1.843732
H	 -1.163977	 -0.629944	 0.790987
C	 0.302127	 1.718115	 0.402112
H	 -1.735206	 2.237940	 -0.067610
H	 -1.069433	 0.999698	 -1.092251
C	 0.955667	 2.789577	 -0.474780
H	 0.257235	 2.058914	 1.433742
H	 0.926860	 0.825751	 0.402306
C	 2.403958	 3.127473	 -0.102710
H	 0.355650	 3.697590	 -0.440311
H	 0.935048	 2.452632	 -1.509120
C	 2.570971	 3.788888	 1.266612
H	 2.808182	 3.792541	 -0.862037
H	 3.006012	 2.221836	 -0.142130
H	 1.969898	 4.691391	 1.339676
H	 3.606402	 4.068162	 1.436102
H	 2.276283	 3.128712	 2.075618

	symmetry c1
}
set optking {
	frozen_dihedral = ("
		20 16 13 17,
		17 13 10 7,
		13 10 7 11,
		11 7 4 3,
		1 2 3 5
	")
}

ee = energy('scf')
oeprop('DIPOLE', 'QUADRUPOLE', 'MULLIKEN_CHARGES')
f=open( 'psi4out.xyz', 'w' )
f.write( "24  " )
f.write( str(ee) + "\n" )
f.write( MOL.save_string_xyz() )
f.close()
--------------------------------------------------------------------------

    Molecular point group: c1

    Geometry (in Angstrom), charge = 0, multiplicity = 1:

       Center              X                  Y                   Z               Mass
    ------------   -----------------  -----------------  -----------------  -----------------
           H         -2.961090358924    -0.417935064117    -1.187119943785     1.007825032070
           O         -2.992434358924    -1.361458064117    -1.108420943785    15.994914619560
           C         -2.721512358924    -1.725232064117     0.221275056215    12.000000000000
           C         -1.306351358924    -1.368233064117     0.662292056215    12.000000000000
           H         -2.868218358924    -2.797323064117     0.268059056215     1.007825032070
           H         -3.446125358924    -1.269611064117     0.894054056215     1.007825032070
           C         -0.649205358924    -0.294086064117    -0.205396943785    12.000000000000
           H         -1.331402358924    -1.037094064117     1.700888056215     1.007825032070
           H         -0.704404358924    -2.275250064117     0.648143056215     1.007825032070
           C          0.761699641076     0.072808935883     0.259268056215    12.000000000000
           H         -1.275633358924     0.592633935883    -0.210453943785     1.007825032070
           H         -0.609860358924    -0.645608064117    -1.235094943785     1.007825032070
           C          1.415239641076     1.144270935883    -0.617623943785    12.000000000000
           H          0.716807641076     0.413607935883     1.290898056215     1.007825032070
           H          1.386432641076    -0.819555064117     0.259462056215     1.007825032070
           C          2.863530641076     1.482166935883    -0.245553943785    12.000000000000
           H          0.815222641076     2.052283935883    -0.583154943785     1.007825032070
           H          1.394620641076     0.807325935883    -1.651963943785     1.007825032070
           C          3.030543641076     2.143581935883     1.123768056215    12.000000000000
           H          3.267754641076     2.147234935883    -1.004880943785     1.007825032070
           H          3.465584641076     0.576529935883    -0.284973943785     1.007825032070
           H          2.429470641076     3.046084935883     1.196832056215     1.007825032070
           H          4.065974641076     2.422855935883     1.293258056215     1.007825032070
           H          2.735855641076     1.483405935883     1.932774056215     1.007825032070

  Charge       = 0
  Multiplicity = 1
  Basis Set: 6-31G*
  Basis Set:

    Orbital Energies (a.u.)
    -----------------------

    Doubly Occupied:

       1A    -20.551152     2A    -11.266048     3A    -11.218516
       4A    -11.216146     5A    -11.215644     6A    -11.215338
       7A    -11.214540     8A    -11.209052     9A     -1.359497
      10A     -1.091103    11A     -1.049079    12A     -0.987461
      13A     -0.920420    14A     -0.854400    15A     -0.792750
      16A     -0.779619    17A     -0.692668    18A     -0.649368
      19A     -0.627569    20A     -0.611800    21A     -0.605884
      22A     -0.587452    23A     -0.559093    24A     -0.542156
      25A     -0.519738    26A     -0.511776    27A     -0.493669
      28A     -0.485519    29A     -0.465764    30A     -0.461581
      31A     -0.455335    32A     -0.443642    33A     -0.422938

  @DF-RHF Final Energy:  -349.23977353660945

   => Energetics <=

    Nuclear Repulsion Energy =            387.0002552689055051
    One-Electron Energy =               -1240.3266914471623750
    Two-Electron Energy =                 504.0866626416469103
    DFT Exchange-Correlation Energy =       0.0000000000000000
    Empirical Dispersion Energy =           0.0000000000000000
    PCM Polarization Energy =               0.0000000000000000
    EFP Energy =                            0.0000000000000000
    Total Energy =                       -349.2397735366100164

  Mulliken Charges: (a.u.)
   Center  Symbol    Alpha    Beta     Spin     Total
       1     H     0.27929  0.27929  0.00000  0.44141
       2     O     4.36998  4.36998  0.00000 -0.73996
       3     C     2.99486  2.99486  0.00000  0.01029
       4     C     3.17248  3.17248  0.00000 -0.34495
       5     H     0.41412  0.41412  0.00000  0.17175
       6     H     0.43005  0.43005  0.00000  0.13991
       7     C     3.16299  3.16299  0.00000 -0.32598
       8     H     0.42166  0.42166  0.00000  0.15667
       9     H     0.41772  0.41772  0.00000  0.16456
      10     C     3.15307  3.15307  0.00000 -0.30613
      11     H     0.43255  0.43255  0.00000  0.13490
      12     H     0.40827  0.40827  0.00000  0.18346
      13     C     3.15277  3.15277  0.00000 -0.30554
      14     H     0.42213  0.42213  0.00000  0.15574
      15     H     0.42224  0.42224  0.00000  0.15552
      16     C     3.15247  3.15247  0.00000 -0.30495
      17     H     0.42525  0.42525  0.00000  0.14950
      18     H     0.42142  0.42142  0.00000  0.15715
      19     C     3.24120  3.24120  0.00000 -0.48239
      20     H     0.42078  0.42078  0.00000  0.15844
      21     H     0.42295  0.42295  0.00000  0.15410
      22     H     0.42259  0.42259  0.00000  0.15483
      23     H     0.41905  0.41905  0.00000  0.16190
      24     H     0.42012  0.42012  0.00000  0.15976

   Total alpha = 33.00000, Total beta = 33.00000, Total charge =  0.00000
