  ==> Input File <==

--------------------------------------------------------------------------
set {
	reference rhf
	basis 6-31G*
}

set_num_threads( 1 )
memory 2 gb

molecule MOL {
0 1

H	 -1.836216	 1.387520	 -0.000064
C	 -1.301823	 0.443321	 -0.000031
O	 -0.003969	 0.658512	 0.000451
O	 -1.829879	 -0.616434	 -0.000857
C	 0.713792	 0.337330	 1.191605
C	 2.170163	 0.668407	 0.947283
H	 0.571715	 -0.711740	 1.412021
H	 0.303359	 0.910332	 2.011672
H	 2.562085	 0.091264	 0.117623
H	 2.753564	 0.437522	 1.832477
H	 2.292599	 1.721170	 0.720156

	symmetry c1
}
set optking {
	frozen_dihedral = ("
		7 5 3 2
	")
}

ee = energy('scf')
oeprop('DIPOLE', 'QUADRUPOLE', 'MULLIKEN_CHARGES')
f=open( 'psi4out.xyz', 'w' )
f.write( "11  " )
f.write( str(ee) + "\n" )
f.write( MOL.save_string_xyz() )
f.close()
--------------------------------------------------------------------------

    Molecular point group: c1

    Geometry (in Angstrom), charge = 0, multiplicity = 1:

       Center              X                  Y                   Z               Mass
    ------------   -----------------  -----------------  -----------------  -----------------
           H         -1.786949427418     1.091345375160    -0.429598619879     1.007825032070
           C         -1.252556427418     0.147146375160    -0.429565619879    12.000000000000
           O          0.045297572582     0.362337375160    -0.429083619879    15.994914619560
           O         -1.780612427418    -0.912608624840    -0.430391619879    15.994914619560
           C          0.763058572582     0.041155375160     0.762070380121    12.000000000000
           C          2.219429572582     0.372232375160     0.517748380121    12.000000000000
           H          0.620981572582    -1.007914624840     0.982486380121     1.007825032070
           H          0.352625572582     0.614157375160     1.582137380121     1.007825032070
           H          2.611351572582    -0.204910624840    -0.311911619879     1.007825032070
           H          2.802830572582     0.141347375160     1.402942380121     1.007825032070
           H          2.341865572582     1.424995375160     0.290621380121     1.007825032070

  Charge       = 0
  Multiplicity = 1
  Basis Set: 6-31G*
  Basis Set:

    Orbital Energies (a.u.)
    -----------------------

    Doubly Occupied:

       1A    -20.594865     2A    -20.566678     3A    -11.379019
       4A    -11.301614     5A    -11.229671     6A     -1.470971
       7A     -1.376713     8A     -1.053220     9A     -0.895641
      10A     -0.822200    11A     -0.741952    12A     -0.688251
      13A     -0.655622    14A     -0.631891    15A     -0.563395
      16A     -0.543315    17A     -0.534053    18A     -0.503302
      19A     -0.465723    20A     -0.450444

  @DF-RHF Final Energy:  -266.81072924797490

   => Energetics <=

    Nuclear Repulsion Energy =            177.9091754328253501
    One-Electron Energy =                -716.5028199180459296
    Two-Electron Energy =                 271.7829152372453905
    DFT Exchange-Correlation Energy =       0.0000000000000000
    Empirical Dispersion Energy =           0.0000000000000000
    PCM Polarization Energy =               0.0000000000000000
    EFP Energy =                            0.0000000000000000
    Total Energy =                       -266.8107292479751891

  Mulliken Charges: (a.u.)
   Center  Symbol    Alpha    Beta     Spin     Total
       1     H     0.42413  0.42413  0.00000  0.15174
       2     C     2.72888  2.72888  0.00000  0.54225
       3     O     4.29825  4.29825  0.00000 -0.59649
       4     O     4.23987  4.23987  0.00000 -0.47973
       5     C     3.00561  3.00561  0.00000 -0.01123
       6     C     3.24825  3.24825  0.00000 -0.49650
       7     H     0.40528  0.40528  0.00000  0.18943
       8     H     0.41833  0.41833  0.00000  0.16335
       9     H     0.40600  0.40600  0.00000  0.18799
      10     H     0.41569  0.41569  0.00000  0.16862
      11     H     0.40971  0.40971  0.00000  0.18057

   Total alpha = 20.00000, Total beta = 20.00000, Total charge =  0.00000
