                              Psi4 1.0.54 Driver

  ==> Input File <==

--------------------------------------------------------------------------
set {
	reference rhf
	basis cc-pvtz
}

set_num_threads( 4 )
memory 2 gb

molecule MOL {
0 1

H	 -3.162190	 0.493205	 -0.000107
C	 -2.363908	 -0.234727	 0.000005
O	 -1.158738	 0.454634	 -0.000087
H	 -2.464314	 -0.863616	 -0.882153
H	 -2.464327	 -0.863359	 0.882345
C	 -0.028611	 -0.359694	 0.000037
C	 1.197313	 0.487798	 0.274369
H	 0.069949	 -0.862584	 -0.962265
H	 -0.126826	 -1.135407	 0.759817
C	 2.481427	 -0.333864	 0.290941
H	 1.258742	 1.261666	 -0.482784
H	 1.063549	 0.990962	 1.225623
H	 2.647473	 -0.827186	 -0.660978
H	 3.340281	 0.295655	 0.488667
H	 2.451101	 -1.099493	 1.059030

	symmetry c1
}
set optking {
	frozen_dihedral = ("
		8 6 3 2
	")
}

ee,wfn = optimize('scf', return_wfn=True)
oeprop( wfn, 'DIPOLE', 'QUADRUPOLE', 'MULLIKEN_CHARGES')
f=open( 'psi4out.xyz', 'w' )
f.write( "15  " )
f.write( str(ee) + "\n" )
f.write( MOL.save_string_xyz() )
f.close()
--------------------------------------------------------------------------

    Molecular point group: c1
  Charge       = 0
  Multiplicity = 1
  Basis Set: CC-PVTZ
  Basis Set:
  @DF-RHF Final Energy:  -232.22791260091103
    Total Energy =                       -232.2279126009109405
    Molecular point group: c1
  Basis Set: CC-PVTZ
  Basis Set:
  Basis Set: CC-PVTZ
  Basis Set:
  @DF-RHF Final Energy:  -232.22792979330524
    Total Energy =                       -232.2279297933051794
  Basis Set: CC-PVTZ
  Basis Set:
  Charge       = 0
  Multiplicity = 1
  Basis Set: CC-PVTZ
  Basis Set:

    Orbital Energies (a.u.)
    -----------------------

    Doubly Occupied:

       1A    -20.547371     2A    -11.264390     3A    -11.261875
       4A    -11.212627     5A    -11.210674     6A     -1.381511
       7A     -1.058362     8A     -0.956224     9A     -0.877334
      10A     -0.809250    11A     -0.677164    12A     -0.655864
      13A     -0.632351    14A     -0.608157    15A     -0.565292
      16A     -0.541240    17A     -0.503568    18A     -0.490391
      19A     -0.478646    20A     -0.462726    21A     -0.416291

  @DF-RHF Final Energy:  -232.22793300691964

   => Energetics <=

    Nuclear Repulsion Energy =            189.9936561767459864
    One-Electron Energy =                -691.2205641459164553
    Two-Electron Energy =                 268.9989749622508270
    DFT Exchange-Correlation Energy =       0.0000000000000000
    Empirical Dispersion Energy =           0.0000000000000000
    PCM Polarization Energy =               0.0000000000000000
    EFP Energy =                            0.0000000000000000
    Total Energy =                       -232.2279330069196703
    Molecular point group: c1
  Basis Set: CC-PVTZ
  Basis Set:

  -Total Gradient:
     Atom            X                  Y                   Z
    ------   -----------------  -----------------  -----------------
       1        0.000014397823     0.000009939591    -0.000005019200
       2       -0.000053880555    -0.000043628420     0.001242379200
       3        0.000299244400     0.000313127059    -0.001823366559
       4       -0.000011704936     0.000003562606    -0.000005409127
       5       -0.000010767430     0.000009481635    -0.000004294024
       6       -0.001074399257    -0.001461393210     0.001092884240
       7       -0.000052701798    -0.000034540677    -0.000004957152
       8        0.000872724035     0.001135335139    -0.000554696387
       9       -0.000005464406     0.000040987698     0.000035160210
      10        0.000000552332    -0.000000082482     0.000023366822
      11        0.000006674193    -0.000001626846     0.000003099746
      12        0.000016344292     0.000022683174     0.000013725533
      13       -0.000005007495     0.000007001543    -0.000010219620
      14        0.000003734081     0.000008404847    -0.000004005291
      15        0.000000254722    -0.000009251656     0.000001351609

  **** Optimization is complete! (in 3 steps) ****
    Final optimized geometry and variables:
    Molecular point group: c1

    Geometry (in Angstrom), charge = 0, multiplicity = 1:

    H           -3.154229347743     0.503305377403    -0.174494248866
    C           -2.358393777270    -0.226940393601    -0.146919025428
    O           -1.151472807873     0.458965343796    -0.122935569343
    H           -2.440433136467    -0.864527981593    -1.025077244283
    H           -2.482012225600    -0.846197362597     0.738832247519
    C           -0.020977369602    -0.355117352773    -0.099114090768
    C            1.200246338610     0.497328377180     0.184634618115
    H            0.096409383710    -0.858218173666    -1.059265295728
    H           -0.126562392820    -1.124707536711     0.664951318773
    C            2.488909179533    -0.317374859031     0.198226125778
    H            1.259264202262     1.276093093117    -0.567805391259
    H            1.062076020564     0.994390841084     1.138580289776
    H            2.660485304060    -0.801411179872    -0.757492038609
    H            3.343856044175     0.314988192638     0.404160133569
    H            2.460477090742    -1.090042180326     0.959503804537

  Mulliken Charges: (a.u.)
   Center  Symbol    Alpha    Beta     Spin     Total
       1     H     0.44721  0.44721  0.00000  0.10558
       2     C     3.03330  3.03330  0.00000 -0.06660
       3     O     4.17200  4.17200  0.00000 -0.34401
       4     H     0.47258  0.47258  0.00000  0.05485
       5     H     0.47149  0.47149  0.00000  0.05703
       6     C     2.95627  2.95627  0.00000  0.08747
       7     C     3.08026  3.08026  0.00000 -0.16053
       8     H     0.47344  0.47344  0.00000  0.05312
       9     H     0.47713  0.47713  0.00000  0.04575
      10     C     3.15582  3.15582  0.00000 -0.31164
      11     H     0.45070  0.45070  0.00000  0.09860
      12     H     0.45177  0.45177  0.00000  0.09645
      13     H     0.45573  0.45573  0.00000  0.08855
      14     H     0.44629  0.44629  0.00000  0.10743
      15     H     0.45602  0.45602  0.00000  0.08795

   Total alpha = 21.00000, Total beta = 21.00000, Total charge = -0.00000

*** Psi4 exiting successfully. Buy a developer a beer!
