  ==> Input File <==

--------------------------------------------------------------------------
set {
	reference rhf
	basis cc-pvtz
}

set_num_threads( 4 )
memory 2 gb

molecule MOL {
0 1

H	 3.889604	 0.356866	 -0.089510
N	 3.091268	 -0.241216	 -0.065538
C	 1.860978	 0.530248	 0.016256
H	 3.192566	 -0.835836	 0.730398
C	 0.644130	 -0.381765	 -0.031064
H	 1.835721	 1.204666	 -0.833114
H	 1.808789	 1.151975	 0.911067
C	 -0.678115	 0.376691	 0.025731
H	 0.693998	 -0.977147	 -0.936845
H	 0.693309	 -1.082142	 0.800523
C	 -1.502958	 0.061063	 1.270406
H	 -1.265211	 0.142484	 -0.859379
H	 -0.485599	 1.446440	 -0.012297
C	 -2.826856	 0.816365	 1.320274
H	 -1.695976	 -1.007312	 1.310533
H	 -0.919958	 0.297799	 2.156317
H	 -3.448200	 0.574008	 0.464450
H	 -3.386762	 0.569643	 2.215059
H	 -2.665982	 1.889417	 1.316471

	symmetry c1
}
set optking {
	frozen_dihedral = ("
		12 8 5 9
	")
}

ee = optimize('scf')
oeprop('DIPOLE', 'QUADRUPOLE', 'MULLIKEN_CHARGES')
f=open( 'psi4out.xyz', 'w' )
f.write( "19  " )
f.write( str(ee) + "\n" )
f.write( MOL.save_string_xyz() )
f.close()
--------------------------------------------------------------------------

    Molecular point group: c1
  Charge       = 0
  Multiplicity = 1
  Basis Set: CC-PVTZ
  Basis Set:
  @DF-RHF Final Energy:  -251.44294517583663
    Total Energy =                       -251.4429451758367122
    Molecular point group: c1
  Basis Set: CC-PVTZ
  Basis Set:
  Basis Set: CC-PVTZ
  Basis Set:
  @DF-RHF Final Energy:  -251.44316281715359
    Total Energy =                       -251.4431628171537909
  Basis Set: CC-PVTZ
  Basis Set:
  Basis Set: CC-PVTZ
  Basis Set:
  @DF-RHF Final Energy:  -251.44321765254656
    Total Energy =                       -251.4432176525468776
  Basis Set: CC-PVTZ
  Basis Set:
  Charge       = 0
  Multiplicity = 1
  Basis Set: CC-PVTZ
  Basis Set:

    Orbital Energies (a.u.)
    -----------------------

    Doubly Occupied:

       1A    -15.526489     2A    -11.238598     3A    -11.213059
       4A    -11.210408     5A    -11.207428     6A    -11.205836
       7A     -1.178485     8A     -1.072917     9A     -0.998457
      10A     -0.901006    11A     -0.817857    12A     -0.788664
      13A     -0.662609    14A     -0.639644    15A     -0.618753
      16A     -0.594471    17A     -0.564510    18A     -0.549277
      19A     -0.534760    20A     -0.493227    21A     -0.487438
      22A     -0.465699    23A     -0.456269    24A     -0.448931
      25A     -0.383941

  @DF-RHF Final Energy:  -251.44321789478215

   => Energetics <=

    Nuclear Repulsion Energy =            247.0954660470930548
    One-Electron Energy =                -828.5599003223787804
    Two-Electron Energy =                 330.0212163805034606
    DFT Exchange-Correlation Energy =       0.0000000000000000
    Empirical Dispersion Energy =           0.0000000000000000
    PCM Polarization Energy =               0.0000000000000000
    EFP Energy =                            0.0000000000000000
    Total Energy =                       -251.4432178947822649
    Molecular point group: c1
  Basis Set: CC-PVTZ
  Basis Set:

  -Total Gradient:
     Atom            X                  Y                   Z
    ------   -----------------  -----------------  -----------------
       1        0.000031279542    -0.000001799554     0.000009564796
       2        0.000041623013    -0.000030064605    -0.000005380683
       3       -0.000036793914     0.000052052225    -0.000039507314
       4        0.000011085602    -0.000006778553     0.000013129291
       5        0.000401225114     0.000815366040    -0.000443681722
       6        0.000000201850     0.000005496066     0.000000329188
       7       -0.000005531462    -0.000002852994    -0.000010321894
       8       -0.000426839875    -0.000787366684     0.000459546559
       9       -0.000287753082    -0.000485522373     0.000326203818
      10       -0.000022417247     0.000005592623     0.000009225605
      11       -0.000050372294    -0.000096779764    -0.000008222088
      12        0.000289226652     0.000489020558    -0.000301162966
      13        0.000021752696     0.000000196317    -0.000017521218
      14        0.000039381671     0.000054680671     0.000008672371
      15       -0.000019464678    -0.000002755365    -0.000011169152
      16        0.000006646279    -0.000022581762    -0.000000401275
      17        0.000013573020    -0.000010469447     0.000010263434
      18        0.000012838215     0.000009594158     0.000009916536
      19       -0.000019661105     0.000014972441    -0.000009483284

  **** Optimization is complete! (in 4 steps) ****
    Final optimized geometry and variables:
    Molecular point group: c1

    Geometry (in Angstrom), charge = 0, multiplicity = 1:

    H            3.760594449729     0.179789231444    -0.496243750078
    N            2.967242692030    -0.425181268399    -0.480137459233
    C            1.729050921914     0.333253816952    -0.418719878125
    H            3.063491541322    -1.017161115653     0.318399617423
    C            0.520172910091    -0.590047000254    -0.477267739428
    H            1.706504526240     1.003890147500    -1.271195348245
    H            1.656007007909     0.958982370837     0.472541840049
    C           -0.822364492629     0.162648015710    -0.413569303992
    H            0.587053099836    -1.184957781548    -1.379922446006
    H            0.582180141395    -1.294464943596     0.348618491552
    C           -1.644290108045    -0.144003951787     0.836296703444
    H           -1.415830012970    -0.066794651071    -1.292592243287
    H           -0.640797964465     1.233654670564    -0.455606949121
    C           -2.953333786278     0.634637258869     0.900676757617
    H           -1.855405491520    -1.209228780766     0.872017908209
    H           -1.048803542738     0.076996221683     1.718522942941
    H           -3.584868321539     0.408450484427     0.047880401072
    H           -3.511229946308     0.392929941685     1.798159076478
    H           -2.773054429013     1.704615323143     0.901442981953

  Mulliken Charges: (a.u.)
   Center  Symbol    Alpha    Beta     Spin     Total
       1     H     0.43016  0.43016  0.00000  0.13968
       2     N     3.68986  3.68986  0.00000 -0.37972
       3     C     3.02442  3.02442  0.00000 -0.04883
       4     H     0.43060  0.43060  0.00000  0.13880
       5     C     3.08896  3.08896  0.00000 -0.17792
       6     H     0.45605  0.45605  0.00000  0.08791
       7     H     0.46847  0.46847  0.00000  0.06306
       8     C     3.10204  3.10204  0.00000 -0.20407
       9     H     0.44420  0.44420  0.00000  0.11161
      10     H     0.46013  0.46013  0.00000  0.07974
      11     C     3.08225  3.08225  0.00000 -0.16450
      12     H     0.44777  0.44777  0.00000  0.10445
      13     H     0.45670  0.45670  0.00000  0.08660
      14     C     3.15020  3.15020  0.00000 -0.30039
      15     H     0.45352  0.45352  0.00000  0.09295
      16     H     0.45560  0.45560  0.00000  0.08879
      17     H     0.45489  0.45489  0.00000  0.09022
      18     H     0.44882  0.44882  0.00000  0.10236
      19     H     0.45537  0.45537  0.00000  0.08926

   Total alpha = 25.00000, Total beta = 25.00000, Total charge =  0.00000
