                              Psi4 1.0.54 Driver

  ==> Input File <==

--------------------------------------------------------------------------
set {
	reference rhf
	basis cc-pvtz
}

set_num_threads( 4 )
memory 2 gb

molecule MOL {
0 1

H	 2.614283	 2.028610	 0.296620
O	 3.358864	 1.662087	 -0.142800
C	 3.565468	 0.338079	 0.273842
C	 2.533667	 -0.637565	 -0.272227
H	 4.548038	 0.064914	 -0.086598
H	 3.593945	 0.282242	 1.360360
C	 1.114816	 -0.402372	 0.240993
H	 2.544552	 -0.580764	 -1.356576
H	 2.850574	 -1.642962	 -0.005497
C	 0.113298	 -1.420414	 -0.302504
H	 0.796373	 0.598427	 -0.031033
H	 1.113377	 -0.446476	 1.328807
C	 -0.178269	 -2.599896	 0.627048
H	 -0.818137	 -0.912587	 -0.540763
H	 0.493463	 -1.810267	 -1.242694
C	 -0.915376	 -2.240520	 1.915949
H	 -0.773247	 -3.326025	 0.079998
H	 0.755116	 -3.100704	 0.874312
C	 -1.270566	 -3.461147	 2.761124
H	 -1.826416	 -1.699998	 1.668341
H	 -0.313206	 -1.563679	 2.514515
C	 -2.003286	 -3.105620	 4.050548
H	 -1.884522	 -4.138051	 2.173386
H	 -0.362270	 -4.006967	 3.002252
H	 -2.932966	 -2.586542	 3.842006
H	 -2.242451	 -3.993637	 4.624422
H	 -1.399448	 -2.459086	 4.678821

	symmetry c1
}
set optking {
	frozen_dihedral = ("
		14 10 7 4
	")
}

ee,wfn = optimize('scf', return_wfn=True)
oeprop( wfn, 'DIPOLE', 'QUADRUPOLE', 'MULLIKEN_CHARGES')
f=open( 'psi4out.xyz', 'w' )
f.write( "27  " )
f.write( str(ee) + "\n" )
f.write( MOL.save_string_xyz() )
f.close()
--------------------------------------------------------------------------

    Molecular point group: c1
  Charge       = 0
  Multiplicity = 1
  Basis Set: CC-PVTZ
  Basis Set:
  @DF-RHF Final Energy:  -388.42327772848586
    Total Energy =                       -388.4232777284858003
    Molecular point group: c1
  Basis Set: CC-PVTZ
  Basis Set:
  Basis Set: CC-PVTZ
  Basis Set:
  @DF-RHF Final Energy:  -388.42324418206016
    Total Energy =                       -388.4232441820598751
  Basis Set: CC-PVTZ
  Basis Set:
  Basis Set: CC-PVTZ
  Basis Set:
  @DF-RHF Final Energy:  -388.42380696843225
    Total Energy =                       -388.4238069684321317
  Basis Set: CC-PVTZ
  Basis Set:
  Basis Set: CC-PVTZ
  Basis Set:
  @DF-RHF Final Energy:  -388.42382071234539
    Total Energy =                       -388.4238207123455595
  Basis Set: CC-PVTZ
  Basis Set:
  Basis Set: CC-PVTZ
  Basis Set:
  @DF-RHF Final Energy:  -388.42387736544720
    Total Energy =                       -388.4238773654474244
  Basis Set: CC-PVTZ
  Basis Set:
  Charge       = 0
  Multiplicity = 1
  Basis Set: CC-PVTZ
  Basis Set:

    Orbital Energies (a.u.)
    -----------------------

    Doubly Occupied:

       1A    -20.545259     2A    -11.264921     3A    -11.216972
       4A    -11.214612     5A    -11.214383     6A    -11.213851
       7A    -11.213601     8A    -11.212310     9A    -11.207819
      10A     -1.363140    11A     -1.095829    12A     -1.061998
      13A     -1.011594    14A     -0.949734    15A     -0.888236
      16A     -0.825811    17A     -0.802324    18A     -0.774428
      19A     -0.696004    20A     -0.656789    21A     -0.630934
      22A     -0.617768    23A     -0.603121    24A     -0.585364
      25A     -0.580071    26A     -0.552968    27A     -0.544713
      28A     -0.528245    29A     -0.508378    30A     -0.504174
      31A     -0.482561    32A     -0.475818    33A     -0.464904
      34A     -0.457569    35A     -0.450887    36A     -0.443135
      37A     -0.427260

  @DF-RHF Final Energy:  -388.42387800298849

   => Energetics <=

    Nuclear Repulsion Energy =            461.1760568114295324
    One-Electron Energy =               -1440.6248978389680815
    Two-Electron Energy =                 591.0249630245501749
    DFT Exchange-Correlation Energy =       0.0000000000000000
    Empirical Dispersion Energy =           0.0000000000000000
    PCM Polarization Energy =               0.0000000000000000
    EFP Energy =                            0.0000000000000000
    Total Energy =                       -388.4238780029883173
    Molecular point group: c1
  Basis Set: CC-PVTZ
  Basis Set:

  -Total Gradient:
     Atom            X                  Y                   Z
    ------   -----------------  -----------------  -----------------
       1        0.000003474213     0.000015921141     0.000018465279
       2        0.000070496667     0.000006304559    -0.000064111010
       3       -0.000071088953    -0.000002928630     0.000152688460
       4       -0.000440436551     0.001245693930    -0.001757021397
       5        0.000018679728     0.000004316549    -0.000008909255
       6        0.000031360439     0.000014698926     0.000047188961
       7        0.000748870578    -0.001628723372     0.001529542618
       8       -0.000034434784     0.000005259165    -0.000034449113
       9        0.000014541945    -0.000006237341    -0.000026555178
      10       -0.001220891585    -0.000147559886     0.002879791748
      11       -0.000032018938    -0.000005462735    -0.000031977825
      12       -0.000023966122    -0.000034593570     0.000076410419
      13        0.000042584442     0.000014027514     0.000023259706
      14        0.000881019371     0.000513522565    -0.002723229135
      15        0.000052399331    -0.000002305018    -0.000044380279
      16       -0.000021670524    -0.000029531481     0.000009591670
      17       -0.000038318127    -0.000034184202    -0.000027025985
      18        0.000084726386    -0.000027086685    -0.000034543070
      19       -0.000024016255    -0.000014732550    -0.000011021062
      20       -0.000104806847     0.000041121112    -0.000011851849
      21        0.000059256764     0.000105727859     0.000042531476
      22        0.000011042450     0.000003385022    -0.000014364230
      23       -0.000054669353    -0.000085649257    -0.000071655653
      24        0.000103149745    -0.000031530516    -0.000000109451
      25       -0.000103688634     0.000018194658    -0.000004640299
      26        0.000008747026    -0.000025435950     0.000004579299
      27        0.000039657590     0.000087788194     0.000081795154

  **** Optimization is complete! (in 6 steps) ****
    Final optimized geometry and variables:
    Molecular point group: c1

    Geometry (in Angstrom), charge = 0, multiplicity = 1:

    H            1.943746872031     3.265277980429    -0.649621709085
    O            2.679681478068     2.908751734030    -1.111226325332
    C            2.867131407689     1.562820911877    -0.761155618858
    C            1.804921287666     0.634722093975    -1.330806708019
    H            3.836800904278     1.288229360756    -1.154152737690
    H            2.915984742814     1.455423324146     0.320814658808
    C            0.397416828721     0.883531765798    -0.789165459994
    H            1.797692429479     0.736318603332    -2.411483000374
    H            2.104559466937    -0.387748994805    -1.112047699455
    C           -0.636142002370    -0.134496819589    -1.303470998637
    H            0.085064792435     1.881086256160    -1.080816601539
    H            0.420951320260     0.877080492476     0.296766976629
    C           -0.898519441839    -1.316364267126    -0.367303893738
    H           -1.571835939297     0.368405596553    -1.526928126472
    H           -0.288013725196    -0.519485290288    -2.257347751610
    C           -1.739794896959    -0.973548870846     0.860861614098
    H           -1.406829410779    -2.097640548084    -0.925323677358
    H            0.050356956556    -1.743123590520    -0.049688320477
    C           -1.976197278150    -2.168659970216     1.780552688235
    H           -2.699203331587    -0.579433374487     0.533155846489
    H           -1.265479768859    -0.179168988966     1.430301520584
    C           -2.828522672196    -1.828906137658     2.998884698951
    H           -2.454642794120    -2.965662320281     1.217606364385
    H           -1.018329569590    -2.562504213509     2.110027669916
    H           -3.807500976482    -1.466163908275     2.703104041321
    H           -2.975404779758    -2.697699955889     3.630314185616
    H           -2.360343974967    -1.057651922699     3.601937993936

  Mulliken Charges: (a.u.)
   Center  Symbol    Alpha    Beta     Spin     Total
       1     H     0.39233  0.39233  0.00000  0.21534
       2     O     4.20558  4.20558  0.00000 -0.41116
       3     C     2.97984  2.97984  0.00000  0.04033
       4     C     3.08576  3.08576  0.00000 -0.17152
       5     H     0.44877  0.44877  0.00000  0.10245
       6     H     0.46993  0.46993  0.00000  0.06014
       7     C     3.11324  3.11324  0.00000 -0.22647
       8     H     0.44974  0.44974  0.00000  0.10052
       9     H     0.45619  0.45619  0.00000  0.08761
      10     C     3.11129  3.11129  0.00000 -0.22258
      11     H     0.44915  0.44915  0.00000  0.10170
      12     H     0.45131  0.45131  0.00000  0.09737
      13     C     3.09693  3.09693  0.00000 -0.19386
      14     H     0.44460  0.44460  0.00000  0.11080
      15     H     0.44746  0.44746  0.00000  0.10508
      16     C     3.08665  3.08665  0.00000 -0.17331
      17     H     0.44727  0.44727  0.00000  0.10547
      18     H     0.45372  0.45372  0.00000  0.09256
      19     C     3.08438  3.08438  0.00000 -0.16876
      20     H     0.45433  0.45433  0.00000  0.09134
      21     H     0.45447  0.45447  0.00000  0.09107
      22     C     3.14976  3.14976  0.00000 -0.29953
      23     H     0.45386  0.45386  0.00000  0.09227
      24     H     0.45465  0.45465  0.00000  0.09070
      25     H     0.45500  0.45500  0.00000  0.09000
      26     H     0.44816  0.44816  0.00000  0.10368
      27     H     0.45562  0.45562  0.00000  0.08876

   Total alpha = 37.00000, Total beta = 37.00000, Total charge = -0.00000

*** Psi4 exiting successfully. Buy a developer a beer!
