                              Psi4 1.0.54 Driver

  ==> Input File <==

--------------------------------------------------------------------------
set {
	reference rhf
	basis cc-pvtz
}

set_num_threads( 4 )
memory 2 gb

molecule MOL {
0 1

H	 -2.698799	 -0.000846	 0.036018
C	 -1.694291	 -0.000483	 0.434279
O	 -0.828718	 -0.000608	 -0.655022
H	 -1.576855	 0.881100	 1.056504
H	 -1.576401	 -0.881658	 1.057001
C	 0.543293	 -0.214103	 -0.431676
C	 1.180233	 0.892650	 0.401197
C	 0.836604	 -1.601532	 0.128018
H	 0.966845	 -0.163442	 -1.426992
H	 0.920984	 1.864108	 -0.001442
H	 2.259305	 0.792923	 0.381111
H	 0.868483	 0.856107	 1.438530
H	 0.339123	 -2.359785	 -0.464105
H	 1.903204	 -1.791909	 0.098114
H	 0.515639	 -1.704280	 1.158050

	symmetry c1
}
set optking {
	frozen_dihedral = ("
		6 3 2 1
	")
}

ee,wfn = optimize('scf', return_wfn=True)
oeprop( wfn, 'DIPOLE', 'QUADRUPOLE', 'MULLIKEN_CHARGES')
f=open( 'psi4out.xyz', 'w' )
f.write( "15  " )
f.write( str(ee) + "\n" )
f.write( MOL.save_string_xyz() )
f.close()
--------------------------------------------------------------------------

    Molecular point group: c1
  Charge       = 0
  Multiplicity = 1
  Basis Set: CC-PVTZ
  Basis Set:
  @DF-RHF Final Energy:  -232.22599348878848
    Total Energy =                       -232.2259934887885038
    Molecular point group: c1
  Basis Set: CC-PVTZ
  Basis Set:
  Basis Set: CC-PVTZ
  Basis Set:
  @DF-RHF Final Energy:  -232.22588334878256
    Total Energy =                       -232.2258833487824745
  Basis Set: CC-PVTZ
  Basis Set:
  Basis Set: CC-PVTZ
  Basis Set:
  @DF-RHF Final Energy:  -232.22608088463619
    Total Energy =                       -232.2260808846361897
  Basis Set: CC-PVTZ
  Basis Set:
  Basis Set: CC-PVTZ
  Basis Set:
  @DF-RHF Final Energy:  -232.22608472791234
    Total Energy =                       -232.2260847279123368
  Basis Set: CC-PVTZ
  Basis Set:
  Charge       = 0
  Multiplicity = 1
  Basis Set: CC-PVTZ
  Basis Set:

    Orbital Energies (a.u.)
    -----------------------

    Doubly Occupied:

       1A    -20.541758     2A    -11.272660     3A    -11.258632
       4A    -11.209294     5A    -11.208085     6A     -1.373498
       7A     -1.051535     8A     -0.940473     9A     -0.931410
      10A     -0.781511    11A     -0.675844    12A     -0.642456
      13A     -0.634980    14A     -0.573607    15A     -0.565276
      16A     -0.552868    17A     -0.534125    18A     -0.498584
      19A     -0.497456    20A     -0.444820    21A     -0.409272

  @DF-RHF Final Energy:  -232.22608524611900

   => Energetics <=

    Nuclear Repulsion Energy =            199.0492822600469367
    One-Electron Energy =                -709.3544504881805324
    Two-Electron Energy =                 278.0790829820148815
    DFT Exchange-Correlation Energy =       0.0000000000000000
    Empirical Dispersion Energy =           0.0000000000000000
    PCM Polarization Energy =               0.0000000000000000
    EFP Energy =                            0.0000000000000000
    Total Energy =                       -232.2260852461187142
    Molecular point group: c1
  Basis Set: CC-PVTZ
  Basis Set:

  -Total Gradient:
     Atom            X                  Y                   Z
    ------   -----------------  -----------------  -----------------
       1       -0.000007350200    -0.000611346526     0.000043980980
       2       -0.000012910065     0.000504477002    -0.000038647846
       3        0.000119240914     0.000612239617    -0.000001527559
       4        0.000003982348     0.000004848341     0.000005744958
       5       -0.000011087084    -0.000016791715     0.000014269810
       6       -0.000123878351    -0.000485998256    -0.000040131659
       7        0.000040736468     0.000014846603     0.000006310826
       8       -0.000013715651     0.000010996399     0.000003564390
       9        0.000008770836    -0.000031872113     0.000004123570
      10        0.000004703675    -0.000003582176    -0.000009641301
      11       -0.000008052122     0.000007875747     0.000011040273
      12       -0.000014137106    -0.000005786466     0.000015195021
      13        0.000007811058    -0.000002450746     0.000000630523
      14        0.000009004954     0.000003849731     0.000002305438
      15       -0.000003119675    -0.000001305442    -0.000017217423

  **** Optimization is complete! (in 5 steps) ****
    Final optimized geometry and variables:
    Molecular point group: c1

    Geometry (in Angstrom), charge = 0, multiplicity = 1:

    H           -2.684214559816     0.185595664083     0.078704303525
    C           -1.672731974569     0.224847059768     0.457321024568
    O           -0.824137808018     0.149999242702    -0.643049508140
    H           -1.548131523830     1.151684264617     1.008646603022
    H           -1.539931787771    -0.605268629933     1.143775988138
    C            0.553005922151    -0.033817681528    -0.425298080154
    C            1.169081564739     1.073893908594     0.421436690722
    C            0.873687148354    -1.423221574584     0.114869269695
    H            0.974177607215     0.037007805825    -1.420419985265
    H            0.900402222966     2.046234957924     0.026742511427
    H            2.249429882349     0.988966071539     0.409068119850
    H            0.848335267566     1.022523026112     1.455659132891
    H            0.394688850322    -2.181157320036    -0.492438792064
    H            1.944354547120    -1.590906382094     0.087726470562
    H            0.550043740788    -1.550445698328     1.141203085814

  Mulliken Charges: (a.u.)
   Center  Symbol    Alpha    Beta     Spin     Total
       1     H     0.44146  0.44146  0.00000  0.11709
       2     C     3.03939  3.03939  0.00000 -0.07878
       3     O     4.18333  4.18333  0.00000 -0.36667
       4     H     0.46822  0.46822  0.00000  0.06356
       5     H     0.47115  0.47115  0.00000  0.05769
       6     C     2.93421  2.93421  0.00000  0.13158
       7     C     3.16077  3.16077  0.00000 -0.32154
       8     C     3.15523  3.15523  0.00000 -0.31045
       9     H     0.44700  0.44700  0.00000  0.10600
      10     H     0.44382  0.44382  0.00000  0.11236
      11     H     0.44860  0.44860  0.00000  0.10280
      12     H     0.45535  0.45535  0.00000  0.08930
      13     H     0.44434  0.44434  0.00000  0.11132
      14     H     0.45087  0.45087  0.00000  0.09826
      15     H     0.45626  0.45626  0.00000  0.08748

   Total alpha = 21.00000, Total beta = 21.00000, Total charge = -0.00000

*** Psi4 exiting successfully. Buy a developer a beer!
