  ==> Input File <==

--------------------------------------------------------------------------
set {
	reference rhf
	basis 6-31G*
}

set_num_threads( 4 )
memory 2 gb

molecule MOL {
0 1

O	 2.100578	 1.812507	 0.199892
C	 0.975978	 1.462969	 -0.040526
C	 -0.112275	 2.497254	 -0.259719
N	 0.623947	 0.147590	 -0.102813
H	 -0.915577	 2.387769	 0.460561
H	 0.339201	 3.470504	 -0.141399
H	 -0.539267	 2.422436	 -1.254034
C	 1.665360	 -0.855771	 0.000151
C	 -0.646745	 -0.327982	 -0.604228
H	 2.465253	 -0.618490	 -0.692587
H	 1.257730	 -1.821716	 -0.242189
H	 2.081488	 -0.891645	 1.004627
H	 -0.913739	 -1.240370	 -0.084324
H	 -1.434618	 0.387925	 -0.431988
H	 -0.606404	 -0.548501	 -1.669384

	symmetry c1
}
set optking {
	frozen_dihedral = ("
		2 4 8 10
	")
}

ee = optimize('scf')
oeprop('DIPOLE', 'QUADRUPOLE', 'MULLIKEN_CHARGES')
f=open( 'psi4out.xyz', 'w' )
f.write( "15  " )
f.write( str(ee) + "\n" )
f.write( MOL.save_string_xyz() )
f.close()
--------------------------------------------------------------------------

    Molecular point group: c1
  Charge       = 0
  Multiplicity = 1
  Basis Set: 6-31G*
  Basis Set:
  @DF-RHF Final Energy:  -286.02793994760020
    Total Energy =                       -286.0279399476002595
    Molecular point group: c1
  Basis Set: 6-31G*
  Basis Set:
  Basis Set: 6-31G*
  Basis Set:
  @DF-RHF Final Energy:  -286.02860471514407
    Total Energy =                       -286.0286047151441835
  Basis Set: 6-31G*
  Basis Set:
  Basis Set: 6-31G*
  Basis Set:
  @DF-RHF Final Energy:  -286.02865456462064
    Total Energy =                       -286.0286545646206378
  Basis Set: 6-31G*
  Basis Set:
  Basis Set: 6-31G*
  Basis Set:
  @DF-RHF Final Energy:  -286.02865430733993
    Total Energy =                       -286.0286543073401049
  Basis Set: 6-31G*
  Basis Set:
  @DF-RHF Final Energy:  -286.02873040150405
    Total Energy =                       -286.0287304015039922
  @DF-RHF Final Energy:  -286.02874609906883
    Total Energy =                       -286.0287460990689397
  @DF-RHF Final Energy:  -286.02880076323197
    Total Energy =                       -286.0288007632319704
  @DF-RHF Final Energy:  -286.02884486016694
    Total Energy =                       -286.0288448601667710
  @DF-RHF Final Energy:  -286.02888558183923
    Total Energy =                       -286.0288855818393472
  @DF-RHF Final Energy:  -286.02891277038145
    Total Energy =                       -286.0289127703816803
  @DF-RHF Final Energy:  -286.02893215454594
    Total Energy =                       -286.0289321545458847
  @DF-RHF Final Energy:  -286.02897469299512
    Total Energy =                       -286.0289746929951207
  @DF-RHF Final Energy:  -286.02848448663713
    Total Energy =                       -286.0284844866371259
  @DF-RHF Final Energy:  -286.02902438194081
    Total Energy =                       -286.0290243819409852
  @DF-RHF Final Energy:  -286.02906370691812
    Total Energy =                       -286.0290637069182935
  @DF-RHF Final Energy:  -286.02910977850786
    Total Energy =                       -286.0291097785079728
  @DF-RHF Final Energy:  -286.02906625681175
    Total Energy =                       -286.0290662568118023
  @DF-RHF Final Energy:  -286.02931287285236
    Total Energy =                       -286.0293128728525289
  @DF-RHF Final Energy:  -286.02909476649899
    Total Energy =                       -286.0290947664988721
  @DF-RHF Final Energy:  -286.02941904844909
    Total Energy =                       -286.0294190484491423
  Basis Set: 6-31G*
  Basis Set:
  @DF-RHF Final Energy:  -286.02941988030312
    Total Energy =                       -286.0294198803030099
  Basis Set: 6-31G*
  Basis Set:
  Basis Set: 6-31G*
  Basis Set:
  @DF-RHF Final Energy:  -286.02942227330533
    Total Energy =                       -286.0294222733056131
  Basis Set: 6-31G*
  Basis Set:
  Basis Set: 6-31G*
  Basis Set:
  @DF-RHF Final Energy:  -286.02942837748918
    Total Energy =                       -286.0294283774890687
  Basis Set: 6-31G*
  Basis Set:
  Charge       = 0
  Multiplicity = 1
  Basis Set: 6-31G*
  Basis Set:

    Orbital Energies (a.u.)
    -----------------------

    Doubly Occupied:

       1A    -20.515659     2A    -15.582857     3A    -11.340028
       4A    -11.266615     5A    -11.248248     6A    -11.228453
       7A     -1.385313     8A     -1.242191     9A     -1.013831
      10A     -0.972990    11A     -0.917718    12A     -0.737093
      13A     -0.679966    14A     -0.658196    15A     -0.651234
      16A     -0.588154    17A     -0.576147    18A     -0.569628
      19A     -0.564159    20A     -0.545555    21A     -0.529721
      22A     -0.500197    23A     -0.411175    24A     -0.367603

  @DF-RHF Final Energy:  -286.02942866811821

   => Energetics <=

    Nuclear Repulsion Energy =            252.6150490668608768
    One-Electron Energy =                -889.1034929202738795
    Two-Electron Energy =                 350.4590151852947315
    DFT Exchange-Correlation Energy =       0.0000000000000000
    Empirical Dispersion Energy =           0.0000000000000000
    PCM Polarization Energy =               0.0000000000000000
    EFP Energy =                            0.0000000000000000
    Total Energy =                       -286.0294286681182143
    Molecular point group: c1
  Basis Set: 6-31G*
  Basis Set:

  -Total Gradient:
     Atom            X                  Y                   Z
    ------   -----------------  -----------------  -----------------
       1       -0.000010913130    -0.000018512981    -0.000009457753
       2       -0.000300324923    -0.000135008152     0.000741413229
       3       -0.000008652922    -0.000007516614     0.000012795201
       4        0.000403947582     0.000084374283    -0.001283506882
       5       -0.000002364820     0.000008866657    -0.000002164750
       6       -0.000001790835     0.000003232054    -0.000004416634
       7       -0.000000458688    -0.000008772668    -0.000002483316
       8        0.000097475709     0.000486154974     0.001339340063
       9        0.000022112257     0.000018429420     0.000042650214
      10       -0.000190922092    -0.000430292971    -0.000836251808
      11        0.000014044990     0.000002062562     0.000006011881
      12       -0.000005634764    -0.000003026943     0.000008625911
      13       -0.000014825461    -0.000005832615    -0.000004147018
      14       -0.000009680455     0.000001434459    -0.000008457932
      15        0.000007987548     0.000004408530     0.000000049594

  **** Optimization is complete! (in 24 steps) ****
    Final optimized geometry and variables:
    Molecular point group: c1

    Geometry (in Angstrom), charge = 0, multiplicity = 1:

    O            1.298201849549     0.986456908414     0.493134761995
    C            0.202909395360     0.674813453012     0.109602817997
    C           -0.887449474871     1.719000532051    -0.034479656414
    N           -0.089045759729    -0.611953676540    -0.234589843787
    H           -1.711134444776     1.527426121666     0.645223491218
    H           -0.451729416145     2.677733798322     0.202832273953
    H           -1.283483667192     1.745723724138    -1.043557178934
    C            0.938644153570    -1.603445542373     0.032237898925
    C           -1.440978011190    -1.107367693680    -0.387075448869
    H            1.884875851311    -1.268594190046    -0.362762854767
    H            0.663841774767    -2.529452509789    -0.456053430408
    H            1.055652090789    -1.790195267283     1.095786760224
    H           -1.860353257703    -1.458094461057     0.554435032900
    H           -2.092281575556    -0.346983602728    -0.788663044323
    H           -1.439655175575    -1.936196099654    -1.083662820254

  Mulliken Charges: (a.u.)
   Center  Symbol    Alpha    Beta     Spin     Total
       1     O     4.30274  4.30274  0.00000 -0.60547
       2     C     2.62638  2.62638  0.00000  0.74724
       3     C     3.29797  3.29797  0.00000 -0.59594
       4     N     3.82176  3.82176  0.00000 -0.64352
       5     H     0.40760  0.40760  0.00000  0.18479
       6     H     0.39073  0.39073  0.00000  0.21854
       7     H     0.40648  0.40648  0.00000  0.18704
       8     C     3.13826  3.13826  0.00000 -0.27652
       9     C     3.14291  3.14291  0.00000 -0.28582
      10     H     0.39589  0.39589  0.00000  0.20822
      11     H     0.41991  0.41991  0.00000  0.16018
      12     H     0.41491  0.41491  0.00000  0.17017
      13     H     0.41724  0.41724  0.00000  0.16553
      14     H     0.40761  0.40761  0.00000  0.18479
      15     H     0.40962  0.40962  0.00000  0.18077

   Total alpha = 24.00000, Total beta = 24.00000, Total charge =  0.00000
