  ==> Input File <==

--------------------------------------------------------------------------
set {
	reference rhf
	basis 6-31G*
}

set_num_threads( 4 )
memory 2 gb

molecule MOL {
0 1

O	 -2.042549	 -1.228399	 -0.269030
C	 -1.653912	 -0.146171	 0.050137
C	 -0.332303	 0.024011	 0.778412
C	 -2.438579	 1.106236	 -0.272369
C	 0.076576	 1.504357	 0.835579
H	 -0.396670	 -0.380970	 1.784508
H	 0.418046	 -0.538767	 0.234189
C	 1.419699	 1.717698	 1.535249
H	 -0.691280	 2.078564	 1.351105
H	 0.124845	 1.889535	 -0.178546
C	 1.833056	 3.188007	 1.585604
H	 1.367342	 1.321485	 2.547029
H	 2.186410	 1.143581	 1.020359
H	 1.101665	 3.783402	 2.124700
H	 1.925371	 3.603222	 0.586346
H	 2.789617	 3.308715	 2.084048
H	 -3.277823	 0.863061	 -0.908988
H	 -1.806773	 1.843019	 -0.759671
H	 -2.802853	 1.554979	 0.648059

	symmetry c1
}
set optking {
	frozen_dihedral = ("
		5 3 2 4
	")
}

ee = optimize('scf')
oeprop('DIPOLE', 'QUADRUPOLE', 'MULLIKEN_CHARGES')
f=open( 'psi4out.xyz', 'w' )
f.write( "19  " )
f.write( str(ee) + "\n" )
f.write( MOL.save_string_xyz() )
f.close()
--------------------------------------------------------------------------

    Molecular point group: c1
  Charge       = 0
  Multiplicity = 1
  Basis Set: 6-31G*
  Basis Set:
  @DF-RHF Final Energy:  -309.05734214597339
    Total Energy =                       -309.0573421459731094
    Molecular point group: c1
  Basis Set: 6-31G*
  Basis Set:
  Basis Set: 6-31G*
  Basis Set:
  @DF-RHF Final Energy:  -309.06005987710711
    Total Energy =                       -309.0600598771069372
  Basis Set: 6-31G*
  Basis Set:
  Basis Set: 6-31G*
  Basis Set:
  @DF-RHF Final Energy:  -309.06230710380623
    Total Energy =                       -309.0623071038066882
  Basis Set: 6-31G*
  Basis Set:
  Basis Set: 6-31G*
  Basis Set:
  @DF-RHF Final Energy:  -309.06258360820283
    Total Energy =                       -309.0625836082029991
  Basis Set: 6-31G*
  Basis Set:
  @DF-RHF Final Energy:  -309.06250814785705
    Total Energy =                       -309.0625081478574998
  @DF-RHF Final Energy:  -309.06269555798622
    Total Energy =                       -309.0626955579861033
  Basis Set: 6-31G*
  Basis Set:
  @DF-RHF Final Energy:  -309.06270781671645
    Total Energy =                       -309.0627078167161130
  Basis Set: 6-31G*
  Basis Set:
  Basis Set: 6-31G*
  Basis Set:
  @DF-RHF Final Energy:  -309.06271231995322
    Total Energy =                       -309.0627123199532207
  Basis Set: 6-31G*
  Basis Set:
  Basis Set: 6-31G*
  Basis Set:
  @DF-RHF Final Energy:  -309.06271494404081
    Total Energy =                       -309.0627149440406924
  Basis Set: 6-31G*
  Basis Set:
  Charge       = 0
  Multiplicity = 1
  Basis Set: 6-31G*
  Basis Set:

    Orbital Energies (a.u.)
    -----------------------

    Doubly Occupied:

       1A    -20.545194     2A    -11.326135     3A    -11.231396
       4A    -11.230768     5A    -11.227674     6A    -11.226958
       7A    -11.217344     8A     -1.392435     9A     -1.094099
      10A     -1.027348    11A     -0.982842    12A     -0.895552
      13A     -0.810416    14A     -0.731628    15A     -0.662855
      16A     -0.647441    17A     -0.626921    18A     -0.611625
      19A     -0.585899    20A     -0.572449    21A     -0.552560
      22A     -0.529233    23A     -0.526031    24A     -0.490324
      25A     -0.486082    26A     -0.482434    27A     -0.467422
      28A     -0.396570

  @DF-RHF Final Energy:  -309.06271587737859

   => Energetics <=

    Nuclear Repulsion Energy =            300.7192772904431308
    One-Electron Energy =               -1014.4087203615814587
    Two-Electron Energy =                 404.6267271937597343
    DFT Exchange-Correlation Energy =       0.0000000000000000
    Empirical Dispersion Energy =           0.0000000000000000
    PCM Polarization Energy =               0.0000000000000000
    EFP Energy =                            0.0000000000000000
    Total Energy =                       -309.0627158773786505
    Molecular point group: c1
  Basis Set: 6-31G*
  Basis Set:

  -Total Gradient:
     Atom            X                  Y                   Z
    ------   -----------------  -----------------  -----------------
       1       -0.000012309212     0.000007975293     0.000032395634
       2       -0.000659811208    -0.000070687795     0.001253433296
       3        0.000664982345    -0.000046780569    -0.001244850101
       4        0.000329958198     0.000056304157    -0.000655908877
       5       -0.000328184435     0.000050634449     0.000599149579
       6       -0.000008909152    -0.000012469778    -0.000001097853
       7        0.000008412454     0.000010274789     0.000009727413
       8       -0.000002302372     0.000004484290    -0.000003716719
       9        0.000006220700    -0.000014224303     0.000001585746
      10       -0.000004618298     0.000013393023    -0.000008830656
      11        0.000005937891     0.000000172692     0.000006922161
      12        0.000006062497     0.000005280621     0.000003730673
      13       -0.000005688058    -0.000004221305     0.000000557150
      14        0.000000350232     0.000002243392    -0.000000487226
      15       -0.000001836241    -0.000004347148     0.000001629484
      16        0.000001410102     0.000003898241     0.000000323883
      17        0.000007136453     0.000003831202    -0.000022327324
      18        0.000007954422     0.000013633484     0.000021463338
      19       -0.000014766319    -0.000019394738     0.000006300400

  **** Optimization is complete! (in 10 steps) ****
    Final optimized geometry and variables:
    Molecular point group: c1

    Geometry (in Angstrom), charge = 0, multiplicity = 1:

    O           -1.536104686189    -2.170874442050    -0.820993605566
    C           -1.233949802556    -1.041900857837    -0.578663939780
    C            0.093394989602    -0.758575992534     0.117355003045
    C           -2.157028704206     0.101707304454    -0.940018113434
    C            0.556133731623     0.695740631293     0.220638197117
    H            0.002630535501    -1.186439705237     1.113768174812
    H            0.838490405502    -1.360326593595    -0.393645871486
    C            1.897386093140     0.823037459669     0.946556846481
    H           -0.187429858926     1.289899410351     0.745916246658
    H            0.650358565057     1.128273249655    -0.773029663819
    C            2.378167654700     2.269189426970     1.056766590618
    H            1.809322519901     0.394197345282     1.942271656969
    H            2.646154145623     0.231571199065     0.424766141251
    H            1.665465281390     2.879346205893     1.604321361584
    H            2.509257042262     2.715111136218     0.074970885457
    H            3.329691048067     2.326998714059     1.575523461944
    H           -3.040247386996    -0.297000203275    -1.418814065488
    H           -1.664725333873     0.799933932292    -1.609161148446
    H           -2.446183932107     0.656065730279    -0.052091940248

  Mulliken Charges: (a.u.)
   Center  Symbol    Alpha    Beta     Spin     Total
       1     O     4.26364  4.26364  0.00000 -0.52728
       2     C     2.73679  2.73679  0.00000  0.52642
       3     C     3.20516  3.20516  0.00000 -0.41033
       4     C     3.29171  3.29171  0.00000 -0.58342
       5     C     3.16067  3.16067  0.00000 -0.32133
       6     H     0.40167  0.40167  0.00000  0.19667
       7     H     0.39916  0.39916  0.00000  0.20168
       8     C     3.15228  3.15228  0.00000 -0.30456
       9     H     0.42009  0.42009  0.00000  0.15981
      10     H     0.41986  0.41986  0.00000  0.16028
      11     C     3.23987  3.23987  0.00000 -0.47973
      12     H     0.42048  0.42048  0.00000  0.15904
      13     H     0.41973  0.41973  0.00000  0.16053
      14     H     0.42094  0.42094  0.00000  0.15812
      15     H     0.42065  0.42065  0.00000  0.15871
      16     H     0.41660  0.41660  0.00000  0.16680
      17     H     0.39546  0.39546  0.00000  0.20909
      18     H     0.40726  0.40726  0.00000  0.18548
      19     H     0.40799  0.40799  0.00000  0.18402

   Total alpha = 28.00000, Total beta = 28.00000, Total charge = -0.00000
