  ==> Input File <==

--------------------------------------------------------------------------
set {
	reference rhf
	basis cc-pvtz
}

set_num_threads( 4 )
memory 2 gb

molecule MOL {
0 1

H	 -1.658748	 2.483952	 0.414223
C	 -0.637689	 2.125926	 0.429275
C	 -0.600949	 0.658697	 -0.000002
H	 -0.247062	 2.245344	 1.430891
H	 -0.049286	 2.739140	 -0.239931
C	 0.763408	 0.112229	 -0.000006
H	 -1.199573	 0.048817	 0.663797
H	 -1.002912	 0.539831	 -0.997614
N	 1.806008	 -0.317179	 0.000007

	symmetry c1
}
set optking {
	frozen_dihedral = ("
		7 3 6 9
	")
}

ee = optimize('scf')
oeprop('DIPOLE', 'QUADRUPOLE', 'MULLIKEN_CHARGES')
f=open( 'psi4out.xyz', 'w' )
f.write( "9  " )
f.write( str(ee) + "\n" )
f.write( MOL.save_string_xyz() )
f.close()
--------------------------------------------------------------------------

    Molecular point group: c1
  Charge       = 0
  Multiplicity = 1
  Basis Set: CC-PVTZ
  Basis Set:
  @DF-RHF Final Energy:  -171.02344277887192
    Total Energy =                       -171.0234427788719245
    Molecular point group: c1
  Basis Set: CC-PVTZ
  Basis Set:
  Basis Set: CC-PVTZ
  Basis Set:
  @DF-RHF Final Energy:  -170.93338102770682
    Total Energy =                       -170.9333810277069006
  Basis Set: CC-PVTZ
  Basis Set:
  Basis Set: CC-PVTZ
  Basis Set:
  @DF-RHF Final Energy:  -170.99598813691529
    Total Energy =                       -170.9959881369153152
  Basis Set: CC-PVTZ
  Basis Set:
  Basis Set: CC-PVTZ
  Basis Set:
  @DF-RHF Final Energy:  -171.02152746761419
    Total Energy =                       -171.0215274676140780
  Basis Set: CC-PVTZ
  Basis Set:
  @DF-RHF Final Energy:  -171.02266712914434
    Total Energy =                       -171.0226671291444518
  @DF-RHF Final Energy:  -171.02341724128109
    Total Energy =                       -171.0234172412811517
  @DF-RHF Final Energy:  -170.95195170886774
    Total Energy =                       -170.9519517088676253
  @DF-RHF Final Energy:  -171.01916673467852
    Total Energy =                       -171.0191667346784925
  @DF-RHF Final Energy:  -171.02055484850803
    Total Energy =                       -171.0205548485081408
  @DF-RHF Final Energy:  -171.02111946202439
    Total Energy =                       -171.0211194620242736
  @DF-RHF Final Energy:  -171.02193825812446
    Total Energy =                       -171.0219382581244361
  @DF-RHF Final Energy:  -171.02245520550264
    Total Energy =                       -171.0224552055026948
  @DF-RHF Final Energy:  -171.02328634602480
    Total Energy =                       -171.0232863460248609
  @DF-RHF Final Energy:  -171.02342915253621
    Total Energy =                       -171.0234291525362096
  @DF-RHF Final Energy:  -170.90399372406131
    Total Energy =                       -170.9039937240613085
  @DF-RHF Final Energy:  -170.93262845409060
    Total Energy =                       -170.9326284540905476
  @DF-RHF Final Energy:  -170.99569916894811
    Total Energy =                       -170.9956991689479651
  @DF-RHF Final Energy:  -171.02115806446591
    Total Energy =                       -171.0211580644659364
  @DF-RHF Final Energy:  -171.02202760413743
    Total Energy =                       -171.0220276041374632
  @DF-RHF Final Energy:  -171.02311891175822
    Total Energy =                       -171.0231189117582460
  @DF-RHF Final Energy:  -171.02334408786427
    Total Energy =                       -171.0233440878643023
  @DF-RHF Final Energy:  -171.02328746181567
    Total Energy =                       -171.0232874618157268
  @DF-RHF Final Energy:  -171.02297285195129
    Total Energy =                       -171.0229728519512662
  @DF-RHF Final Energy:  -171.02323775274886
    Total Energy =                       -171.0232377527489405
  @DF-RHF Final Energy:  -171.02196820701511
    Total Energy =                       -171.0219682070150213
  @DF-RHF Final Energy:  -171.02263559825104
    Total Energy =                       -171.0226355982512132
  @DF-RHF Final Energy:  -171.02253373835049
    Total Energy =                       -171.0225337383505462
  @DF-RHF Final Energy:  -171.02117603161810
    Total Energy =                       -171.0211760316180687
  @DF-RHF Final Energy:  -171.02099809494871
    Total Energy =                       -171.0209980949486521
  @DF-RHF Final Energy:  -171.02289395023956
    Total Energy =                       -171.0228939502395065
  @DF-RHF Final Energy:  -171.02332184473966
    Total Energy =                       -171.0233218447396553
  @DF-RHF Final Energy:  -171.02343595280033
    Total Energy =                       -171.0234359528001846
  @DF-RHF Final Energy:  -171.02340166173758
    Total Energy =                       -171.0234016617374948
  @DF-RHF Final Energy:  -171.02343722363145
    Total Energy =                       -171.0234372236315039
  @DF-RHF Final Energy:  -171.02341694409466
    Total Energy =                       -171.0234169440946062
  @DF-RHF Final Energy:  -171.02345217100392
    Total Energy =                       -171.0234521710040667
  Basis Set: CC-PVTZ
  Basis Set:
  @DF-RHF Final Energy:  -171.02343870638447
    Total Energy =                       -171.0234387063844395
  Basis Set: CC-PVTZ
  Basis Set:
  Basis Set: CC-PVTZ
  Basis Set:
  @DF-RHF Final Energy:  -171.02338096758297
    Total Energy =                       -171.0233809675828809
  Basis Set: CC-PVTZ
  Basis Set:
  Basis Set: CC-PVTZ
  Basis Set:
  @DF-RHF Final Energy:  -171.02338292720646
    Total Energy =                       -171.0233829272063701
  Basis Set: CC-PVTZ
  Basis Set:
  Charge       = 0
  Multiplicity = 1
  Basis Set: CC-PVTZ
  Basis Set:

    Orbital Energies (a.u.)
    -----------------------

    Doubly Occupied:

       1A    -15.556775     2A    -11.282600     3A    -11.261329
       4A    -11.244635     5A     -1.228778     6A     -1.084454
       7A     -0.913562     8A     -0.700217     9A     -0.661429
      10A     -0.590014    11A     -0.563103    12A     -0.545638
      13A     -0.540079    14A     -0.463792    15A     -0.463519

  @DF-RHF Final Energy:  -171.02332210954359

   => Energetics <=

    Nuclear Repulsion Energy =            103.6485440495507504
    One-Electron Energy =                -435.1438845995838278
    Two-Electron Energy =                 160.4720184404895349
    DFT Exchange-Correlation Energy =       0.0000000000000000
    Empirical Dispersion Energy =           0.0000000000000000
    PCM Polarization Energy =               0.0000000000000000
    EFP Energy =                            0.0000000000000000
    Total Energy =                       -171.0233221095435283
    Molecular point group: c1
  Basis Set: CC-PVTZ
  Basis Set:

  -Total Gradient:
     Atom            X                  Y                   Z
    ------   -----------------  -----------------  -----------------
       1       -0.000053695084    -0.000004516383     0.000022517893
       2        0.000050419118    -0.000093551861    -0.000104816398
       3       -0.000663128855    -0.001731671166     0.000921352038
       4        0.000006743594     0.000010692115     0.000073414989
       5       -0.000007879946    -0.000017526617    -0.000002394814
       6       -0.000057667774     0.004799579070    -0.001486722323
       7       -0.000308133481     0.000132910043     0.000036150939
       8        0.000312857154    -0.000137477850    -0.000107959840
       9        0.000720485275    -0.002958437352     0.000648457516

    Molecular point group: c1

    Geometry (in Angstrom), charge = 0, multiplicity = 1:

    H           -1.965433607125     1.771816893793     0.254650415500
    C           -0.939902812277     1.428640316418     0.291934435137
    C           -0.871361612949    -0.036757981687    -0.139563596908
    H           -0.574439950582     1.551570833336     1.302834106481
    H           -0.346015127671     2.052771073801    -0.361976537086
    C            0.497474857744    -0.573965080409    -0.110169326499
    H           -1.477301844271    -0.656268352006     0.507224983747
    H           -1.245409299145    -0.158391740247    -1.147919248050
    N            1.529518597473    -1.029216844052    -0.076095669862

  Mulliken Charges: (a.u.)
   Center  Symbol    Alpha    Beta     Spin     Total
       1     H     0.44605  0.44605  0.00000  0.10790
       2     C     3.13602  3.13602  0.00000 -0.27204
       3     C     3.07914  3.07914  0.00000 -0.15827
       4     H     0.44489  0.44489  0.00000  0.11023
       5     H     0.44504  0.44504  0.00000  0.10992
       6     C     3.04239  3.04239  0.00000 -0.08477
       7     H     0.43150  0.43150  0.00000  0.13700
       8     H     0.43210  0.43210  0.00000  0.13580
       9     N     3.54288  3.54288  0.00000 -0.08577

   Total alpha = 15.00000, Total beta = 15.00000, Total charge =  0.00000
