  ==> Input File <==

--------------------------------------------------------------------------
set {
	reference rhf
	basis 6-31G*
}

set_num_threads( 4 )
memory 2 gb

molecule MOL {
0 1

H	 -2.798360	 -0.862255	 -0.071053
N	 -1.863561	 -0.715187	 0.256814
C	 -1.344686	 0.554728	 -0.219830
H	 -1.300452	 -1.461917	 -0.101532
C	 0.081427	 0.741154	 0.254071
H	 -1.362155	 0.656231	 -1.305829
H	 -1.952773	 1.354456	 0.191809
O	 0.114043	 1.833333	 1.127667
H	 0.429159	 -0.156838	 0.764298
H	 0.730020	 0.921873	 -0.600272
C	 1.387494	 2.172200	 1.576068
H	 1.286865	 3.020899	 2.238850
H	 1.848128	 1.351719	 2.123434
H	 2.040396	 2.445255	 0.749649

	symmetry c1
}
set optking {
	frozen_dihedral = ("
		8 5 3 6
	")
}

ee = optimize('scf')
oeprop('DIPOLE', 'QUADRUPOLE', 'MULLIKEN_CHARGES')
f=open( 'psi4out.xyz', 'w' )
f.write( "14  " )
f.write( str(ee) + "\n" )
f.write( MOL.save_string_xyz() )
f.close()
--------------------------------------------------------------------------

    Molecular point group: c1
  Charge       = 0
  Multiplicity = 1
  Basis Set: 6-31G*
  Basis Set:
  @DF-RHF Final Energy:  -248.11499194972944
    Total Energy =                       -248.1149919497296423
    Molecular point group: c1
  Basis Set: 6-31G*
  Basis Set:
  Basis Set: 6-31G*
  Basis Set:
  @DF-RHF Final Energy:  -248.11581714409809
    Total Energy =                       -248.1158171440979459
  Basis Set: 6-31G*
  Basis Set:
  Basis Set: 6-31G*
  Basis Set:
  @DF-RHF Final Energy:  -248.11610338842081
    Total Energy =                       -248.1161033884206972
  Basis Set: 6-31G*
  Basis Set:
  Basis Set: 6-31G*
  Basis Set:
  @DF-RHF Final Energy:  -248.11613957667780
    Total Energy =                       -248.1161395766775399
  Basis Set: 6-31G*
  Basis Set:
  Charge       = 0
  Multiplicity = 1
  Basis Set: 6-31G*
  Basis Set:

    Orbital Energies (a.u.)
    -----------------------

    Doubly Occupied:

       1A    -20.552023     2A    -15.536390     3A    -11.264303
       4A    -11.261934     5A    -11.241361     6A     -1.376626
       7A     -1.177798     8A     -0.995881     9A     -0.899375
      10A     -0.823339    11A     -0.675688    12A     -0.671533
      13A     -0.642517    14A     -0.618126    15A     -0.607930
      16A     -0.531412    17A     -0.527178    18A     -0.500595
      19A     -0.466979    20A     -0.411464    21A     -0.385057

  @DF-RHF Final Energy:  -248.11614221823876

   => Energetics <=

    Nuclear Repulsion Energy =            191.1914770340084431
    One-Electron Energy =                -716.2802152326323721
    Two-Electron Energy =                 276.9725959803849946
    DFT Exchange-Correlation Energy =       0.0000000000000000
    Empirical Dispersion Energy =           0.0000000000000000
    PCM Polarization Energy =               0.0000000000000000
    EFP Energy =                            0.0000000000000000
    Total Energy =                       -248.1161422182389060
    Molecular point group: c1
  Basis Set: 6-31G*
  Basis Set:

  -Total Gradient:
     Atom            X                  Y                   Z
    ------   -----------------  -----------------  -----------------
       1       -0.000071390033    -0.000044106975    -0.000017029554
       2        0.000026104573    -0.000053062701     0.000053480515
       3        0.000104215282    -0.000293582379    -0.000096043109
       4        0.000000565322    -0.000083061923    -0.000025946018
       5       -0.000043046256    -0.000018411951     0.000353055017
       6       -0.000038403444     0.000370316812     0.000063658970
       7        0.000025245471     0.000043829217    -0.000014774687
       8        0.000044747991     0.000180610917    -0.000224312294
       9       -0.000029374262    -0.000014030639    -0.000012691620
      10        0.000009002441    -0.000032566151    -0.000049643567
      11        0.000011299847    -0.000074935416     0.000000747805
      12       -0.000045457739    -0.000005309915    -0.000030655564
      13        0.000010593101     0.000004702478     0.000013545872
      14       -0.000004102297     0.000019608625    -0.000013391766

  **** Optimization is complete! (in 5 steps) ****
    Final optimized geometry and variables:
    Molecular point group: c1

    Geometry (in Angstrom), charge = 0, multiplicity = 1:

    H           -2.513612547683    -1.739936671233    -0.491813481969
    N           -1.529023927196    -1.661377106464    -0.325196728516
    C           -1.026441344910    -0.388536420545    -0.826028128823
    H           -1.095070074975    -2.428638585392    -0.802595724367
    C            0.412713360662    -0.135069863888    -0.365779393448
    H           -1.086480638624    -0.305508269085    -1.911894053830
    H           -1.639359296643     0.401246308820    -0.412798851294
    O            0.431307470621     0.964263768915     0.496986366191
    H            0.791535515954    -1.017425414914     0.145441290020
    H            1.065364891099     0.061284345051    -1.216341189586
    C            1.689258014334     1.259418608831     1.011317703496
    H            1.584567969724     2.120997226249     1.656507921060
    H            2.087303945416     0.430069961215     1.593155470892
    H            2.399229885585     1.496909492672     0.220262936929

  Mulliken Charges: (a.u.)
   Center  Symbol    Alpha    Beta     Spin     Total
       1     H     0.33114  0.33114  0.00000  0.33772
       2     N     3.92150  3.92150  0.00000 -0.84301
       3     C     3.08068  3.08068  0.00000 -0.16136
       4     H     0.33577  0.33577  0.00000  0.32846
       5     C     2.98580  2.98580  0.00000  0.02840
       6     H     0.43063  0.43063  0.00000  0.13873
       7     H     0.40033  0.40033  0.00000  0.19934
       8     O     4.30504  4.30504  0.00000 -0.61007
       9     H     0.42281  0.42281  0.00000  0.15438
      10     H     0.43363  0.43363  0.00000  0.13274
      11     C     3.07982  3.07982  0.00000 -0.15964
      12     H     0.41224  0.41224  0.00000  0.17552
      13     H     0.42888  0.42888  0.00000  0.14225
      14     H     0.43172  0.43172  0.00000  0.13655

   Total alpha = 21.00000, Total beta = 21.00000, Total charge =  0.00000
