                              Psi4 1.0.54 Driver

  ==> Input File <==

--------------------------------------------------------------------------
set {
	reference rhf
	basis cc-pvtz
}

set_num_threads( 4 )
memory 2 gb

molecule MOL {
0 1

O	 -2.817697	 1.304178	 0.001046
C	 -2.664672	 0.129869	 0.003507
C	 -3.797908	 -0.860100	 -0.001145
O	 -1.481217	 -0.452708	 0.001092
H	 -4.408836	 -0.679689	 -0.875387
H	 -3.443486	 -1.878443	 -0.002770
H	 -4.412123	 -0.683688	 0.871605
C	 -0.332055	 0.384012	 -0.000250
C	 0.892252	 -0.506059	 -0.000295
H	 -0.360822	 1.020205	 -0.874146
H	 -0.359817	 1.021310	 0.872861
C	 2.188199	 0.299473	 -0.001416
H	 0.857046	 -1.152781	 -0.871031
H	 0.857910	 -1.151798	 0.871202
C	 1.986065	 1.757488	 0.401649
H	 2.902722	 -0.162297	 0.675490
H	 2.637760	 0.261564	 -0.990573
C	 3.280671	 2.563092	 0.399510
H	 1.538489	 1.796706	 1.390686
H	 1.272344	 2.220033	 -0.274177
H	 4.003177	 2.144754	 1.092203
H	 3.102562	 3.592038	 0.689431
H	 3.735140	 2.571084	 -0.585501

	symmetry c1
}
set optking {
	frozen_dihedral = ("
		16 12 9 13
	")
}

ee,wfn = optimize('scf', return_wfn=True)
oeprop( wfn, 'DIPOLE', 'QUADRUPOLE', 'MULLIKEN_CHARGES')
f=open( 'psi4out.xyz', 'w' )
f.write( "23  " )
f.write( str(ee) + "\n" )
f.write( MOL.save_string_xyz() )
f.close()
--------------------------------------------------------------------------

    Molecular point group: c1
  Charge       = 0
  Multiplicity = 1
  Basis Set: CC-PVTZ
  Basis Set:
  @DF-RHF Final Energy:  -423.12262737389733
    Total Energy =                       -423.1226273738977852
    Molecular point group: c1
  Basis Set: CC-PVTZ
  Basis Set:
  Basis Set: CC-PVTZ
  Basis Set:
  @DF-RHF Final Energy:  -423.06995620458639
    Total Energy =                       -423.0699562045863331
  Basis Set: CC-PVTZ
  Basis Set:
  Basis Set: CC-PVTZ
  Basis Set:
  @DF-RHF Final Energy:  -423.12269201095484
    Total Energy =                       -423.1226920109550065
  Basis Set: CC-PVTZ
  Basis Set:
  Basis Set: CC-PVTZ
  Basis Set:
  @DF-RHF Final Energy:  -423.12611796591426
    Total Energy =                       -423.1261179659144318
  Basis Set: CC-PVTZ
  Basis Set:
  @DF-RHF Final Energy:  -423.12540824527537
    Total Energy =                       -423.1254082452753664
  Basis Set: CC-PVTZ
  Basis Set:
  @DF-RHF Final Energy:  -423.12598969879809
    Total Energy =                       -423.1259896987980937
  Basis Set: CC-PVTZ
  Basis Set:
  Basis Set: CC-PVTZ
  Basis Set:
  @DF-RHF Final Energy:  -423.12640881701611
    Total Energy =                       -423.1264088170163404
  Basis Set: CC-PVTZ
  Basis Set:
  Basis Set: CC-PVTZ
  Basis Set:
  @DF-RHF Final Energy:  -423.12641289195301
    Total Energy =                       -423.1264128919535779
  Basis Set: CC-PVTZ
  Basis Set:
  Charge       = 0
  Multiplicity = 1
  Basis Set: CC-PVTZ
  Basis Set:

    Orbital Energies (a.u.)
    -----------------------

    Doubly Occupied:

       1A    -20.595313     2A    -20.529189     3A    -11.366080
       4A    -11.278514     5A    -11.230442     6A    -11.222667
       7A    -11.221631     8A    -11.219387     9A    -11.210625
      10A     -1.470657    11A     -1.363564    12A     -1.092263
      13A     -1.040809    14A     -1.002103    15A     -0.931622
      16A     -0.854009    17A     -0.789286    18A     -0.778331
      19A     -0.694212    20A     -0.687949    21A     -0.668607
      22A     -0.645721    23A     -0.607157    24A     -0.588893
      25A     -0.577526    26A     -0.570543    27A     -0.567640
      28A     -0.528547    29A     -0.526392    30A     -0.513629
      31A     -0.499725    32A     -0.474850    33A     -0.466825
      34A     -0.458797    35A     -0.450614    36A     -0.439159

  @DF-RHF Final Energy:  -423.12641303471526

   => Energetics <=

    Nuclear Repulsion Energy =            458.2645256227068558
    One-Electron Energy =               -1484.4553298674936741
    Two-Electron Energy =                 603.0643912100715625
    DFT Exchange-Correlation Energy =       0.0000000000000000
    Empirical Dispersion Energy =           0.0000000000000000
    PCM Polarization Energy =               0.0000000000000000
    EFP Energy =                            0.0000000000000000
    Total Energy =                       -423.1264130347151422
    Molecular point group: c1
  Basis Set: CC-PVTZ
  Basis Set:

  -Total Gradient:
     Atom            X                  Y                   Z
    ------   -----------------  -----------------  -----------------
       1        0.000031995805     0.000016147602    -0.000005306338
       2        0.000041023971    -0.000062499992     0.000039189040
       3       -0.000004433728    -0.000008891927    -0.000012899704
       4       -0.000069912289     0.000038253021    -0.000045553244
       5       -0.000002526155    -0.000000433295     0.000003797581
       6       -0.000008635027    -0.000002763103    -0.000003109166
       7       -0.000000378248    -0.000002232477     0.000003962612
       8        0.000017771015     0.000014643843     0.000052522431
       9        0.001179737775    -0.003795654136     0.005260136527
      10       -0.000003360615    -0.000002461161    -0.000011371216
      11        0.000007354571     0.000000893950    -0.000000287065
      12        0.003082334451    -0.003310856953    -0.004638390277
      13       -0.001454296705     0.003692797890    -0.003733714448
      14       -0.000008660611     0.000000833941    -0.000001002333
      15        0.000005016340     0.000008685144    -0.000035775172
      16       -0.002810500305     0.003414299040     0.003109095565
      17       -0.000003399310     0.000006361867     0.000001098480
      18        0.000000207060     0.000003223545     0.000013728862
      19       -0.000001604127    -0.000005325198    -0.000005311487
      20        0.000009993985     0.000000408275     0.000012065691
      21       -0.000004460923     0.000006856039    -0.000008608269
      22        0.000001934087    -0.000010714046     0.000004464604
      23       -0.000005201019    -0.000001571873     0.000001267324

  **** Optimization is complete! (in 9 steps) ****
    Final optimized geometry and variables:
    Molecular point group: c1

    Geometry (in Angstrom), charge = 0, multiplicity = 1:

    O           -2.447230448132     0.659222201716    -0.971506270778
    C           -2.262338113381    -0.496502514266    -0.789914830664
    C           -3.303037299541    -1.556462968008    -1.031828807619
    O           -1.121577153481    -0.994416299838    -0.354339563243
    H           -3.609245095717    -1.507540908804    -2.068211083785
    H           -2.934069389490    -2.543425100896    -0.802728193799
    H           -4.168510001212    -1.334256225364    -0.422099386389
    C           -0.061038428769    -0.084092335100    -0.088506769608
    C            1.119102697785    -0.911749239554     0.389825570562
    H            0.167496851426     0.457340515837    -0.995654296971
    H           -0.394525216007     0.630221215314     0.648369005851
    C            2.410162588840    -0.111804826690     0.677556553671
    H            1.314205227999    -1.630000365302    -0.397749879317
    H            0.810488576464    -1.464870740594     1.268180019029
    C            2.244858728955     1.386146177333     0.953852643299
    H            2.876327258533    -0.533268502160     1.561726138082
    H            3.107285954246    -0.236979155932    -0.143348071333
    C            3.577081162557     2.058045291436     1.270442900907
    H            1.567205514775     1.532783914359     1.789679740856
    H            1.794313099366     1.883649450798     0.101800462970
    H            4.041577076490     1.615244142001     2.145164616869
    H            3.444941225815     3.115783939638     1.465667593736
    H            4.271623049194     1.958557864079     0.442921132406

  Mulliken Charges: (a.u.)
   Center  Symbol    Alpha    Beta     Spin     Total
       1     O     4.20233  4.20233  0.00000 -0.40467
       2     C     2.81837  2.81837  0.00000  0.36327
       3     C     3.14028  3.14028  0.00000 -0.28056
       4     O     4.14562  4.14562  0.00000 -0.29123
       5     H     0.44218  0.44218  0.00000  0.11563
       6     H     0.44176  0.44176  0.00000  0.11648
       7     H     0.44221  0.44221  0.00000  0.11558
       8     C     2.97846  2.97846  0.00000  0.04308
       9     C     3.08871  3.08871  0.00000 -0.17742
      10     H     0.45277  0.45277  0.00000  0.09446
      11     H     0.45158  0.45158  0.00000  0.09685
      12     C     3.09926  3.09926  0.00000 -0.19853
      13     H     0.44749  0.44749  0.00000  0.10502
      14     H     0.44798  0.44798  0.00000  0.10405
      15     C     3.09492  3.09492  0.00000 -0.18985
      16     H     0.44971  0.44971  0.00000  0.10057
      17     H     0.44936  0.44936  0.00000  0.10127
      18     C     3.15050  3.15050  0.00000 -0.30100
      19     H     0.45091  0.45091  0.00000  0.09818
      20     H     0.44960  0.44960  0.00000  0.10081
      21     H     0.45470  0.45470  0.00000  0.09059
      22     H     0.44656  0.44656  0.00000  0.10688
      23     H     0.45474  0.45474  0.00000  0.09053

   Total alpha = 36.00000, Total beta = 36.00000, Total charge = -0.00000

*** Psi4 exiting successfully. Buy a developer a beer!
