  ==> Input File <==

--------------------------------------------------------------------------
set {
	reference rhf
	basis 6-31G*
}

set_num_threads( 4 )
memory 2 gb

molecule MOL {
0 1

O	 1.846825	 1.296220	 0.000415
C	 1.705091	 0.115954	 0.001797
C	 0.381791	 -0.609817	 0.001258
O	 2.721346	 -0.737485	 -0.000216
C	 -0.823008	 0.326187	 0.001381
H	 0.371250	 -1.265087	 -0.865474
H	 0.370908	 -1.265746	 0.867490
C	 -0.891516	 1.184216	 -1.262800
H	 -0.780043	 0.964198	 0.878470
H	 -1.731329	 -0.260070	 0.099177
C	 -2.093748	 2.129857	 -1.278970
H	 0.023637	 1.766970	 -1.357080
H	 -0.932002	 0.538690	 -2.138893
C	 -2.162338	 2.986039	 -2.542892
H	 -2.053405	 2.777152	 -0.405744
H	 -3.008743	 1.549139	 -1.185750
H	 -1.275459	 3.604895	 -2.646222
H	 -3.024748	 3.645106	 -2.524736
H	 -2.237932	 2.367045	 -3.432523
C	 4.024888	 -0.184556	 -0.001949
H	 4.179030	 0.422472	 -0.882452
H	 4.701782	 -1.024608	 -0.003642
H	 4.181981	 0.421185	 0.878906

	symmetry c1
}
set optking {
	frozen_dihedral = ("
		9 5 3 6
	")
}

ee = optimize('scf')
oeprop('DIPOLE', 'QUADRUPOLE', 'MULLIKEN_CHARGES')
f=open( 'psi4out.xyz', 'w' )
f.write( "23  " )
f.write( str(ee) + "\n" )
f.write( MOL.save_string_xyz() )
f.close()
--------------------------------------------------------------------------

    Molecular point group: c1
  Charge       = 0
  Multiplicity = 1
  Basis Set: 6-31G*
  Basis Set:
  @DF-RHF Final Energy:  -422.97415714404445
    Total Energy =                       -422.9741571440439429
    Molecular point group: c1
  Basis Set: 6-31G*
  Basis Set:
  Basis Set: 6-31G*
  Basis Set:
  @DF-RHF Final Energy:  -422.97532831309115
    Total Energy =                       -422.9753283130912678
  Basis Set: 6-31G*
  Basis Set:
  Basis Set: 6-31G*
  Basis Set:
  @DF-RHF Final Energy:  -422.97239486590939
    Total Energy =                       -422.9723948659087682
  Basis Set: 6-31G*
  Basis Set:
  Basis Set: 6-31G*
  Basis Set:
  @DF-RHF Final Energy:  -422.97566284719244
    Total Energy =                       -422.9756628471919839
  Basis Set: 6-31G*
  Basis Set:
  Basis Set: 6-31G*
  Basis Set:
  @DF-RHF Final Energy:  -422.97578759606074
    Total Energy =                       -422.9757875960602860
  Basis Set: 6-31G*
  Basis Set:
  Basis Set: 6-31G*
  Basis Set:
  @DF-RHF Final Energy:  -422.97583442494386
    Total Energy =                       -422.9758344249435140
  Basis Set: 6-31G*
  Basis Set:
  Basis Set: 6-31G*
  Basis Set:
  @DF-RHF Final Energy:  -422.97585528175318
    Total Energy =                       -422.9758552817528425
  Basis Set: 6-31G*
  Basis Set:
  Charge       = 0
  Multiplicity = 1
  Basis Set: 6-31G*
  Basis Set:

    Orbital Energies (a.u.)
    -----------------------

    Doubly Occupied:

       1A    -20.604875     2A    -20.545765     3A    -11.373169
       4A    -11.281405     5A    -11.235780     6A    -11.220344
       7A    -11.213138     8A    -11.211340     9A    -11.206273
      10A     -1.470293    11A     -1.363325    12A     -1.090737
      13A     -1.041391    14A     -0.986041    15A     -0.930658
      16A     -0.843640    17A     -0.794014    18A     -0.766159
      19A     -0.701242    20A     -0.680802    21A     -0.671715
      22A     -0.640533    23A     -0.612553    24A     -0.599274
      25A     -0.568360    26A     -0.558724    27A     -0.552837
      28A     -0.529089    29A     -0.522690    30A     -0.500639
      31A     -0.491394    32A     -0.467143    33A     -0.464148
      34A     -0.455189    35A     -0.451044    36A     -0.435509

  @DF-RHF Final Energy:  -422.97585466578448

   => Energetics <=

    Nuclear Repulsion Energy =            463.0566923723584978
    One-Electron Energy =               -1493.9026326812622756
    Two-Electron Energy =                 607.8700856431197508
    DFT Exchange-Correlation Energy =       0.0000000000000000
    Empirical Dispersion Energy =           0.0000000000000000
    PCM Polarization Energy =               0.0000000000000000
    EFP Energy =                            0.0000000000000000
    Total Energy =                       -422.9758546657839133
    Molecular point group: c1
  Basis Set: 6-31G*
  Basis Set:

  -Total Gradient:
     Atom            X                  Y                   Z
    ------   -----------------  -----------------  -----------------
       1       -0.000044310990     0.000026254898    -0.000018387091
       2       -0.000001174730     0.000113167157     0.000089520712
       3        0.000682609059     0.000954361805    -0.000717756094
       4        0.000151953866    -0.000142496366    -0.000065463603
       5        0.000594288137     0.000634624339    -0.000673726920
       6       -0.000684979661    -0.000811629108     0.000676878274
       7        0.000002468037    -0.000050216846     0.000027634845
       8       -0.000066654027    -0.000074408156     0.000017138773
       9       -0.000615319911    -0.000843017479     0.000555061481
      10       -0.000091255765     0.000033481783     0.000034283563
      11        0.000057406478     0.000093670922     0.000061861804
      12        0.000048929053     0.000067209857     0.000064708969
      13        0.000078147206     0.000008549886    -0.000015074899
      14       -0.000047057769    -0.000066809912    -0.000056754745
      15        0.000000899408     0.000059090451    -0.000003477470
      16        0.000033764163     0.000004899807     0.000055699291
      17       -0.000021137065    -0.000000247587     0.000026328145
      18       -0.000016404812    -0.000027464691    -0.000016571003
      19        0.000018239800     0.000010733813    -0.000034810305
      20       -0.000060355593     0.000023873409    -0.000007326733
      21        0.000007763245     0.000002495619    -0.000002052608
      22       -0.000021789263    -0.000013506563    -0.000001405604
      23       -0.000006028875    -0.000002617040     0.000003691216

  **** Optimization is complete! (in 8 steps) ****
    Final optimized geometry and variables:
    Molecular point group: c1

    Geometry (in Angstrom), charge = 0, multiplicity = 1:

    O            1.339120918523     0.517441967755     0.971489511579
    C            1.159911711934    -0.616651190338     0.661068439541
    C           -0.183823138178    -1.300397175305     0.574312825421
    O            2.147795917289    -1.455981794801     0.380349686203
    C           -1.374036048194    -0.343405018631     0.533619094814
    H           -0.180736161610    -1.970161456104    -0.278847060992
    H           -0.248406109502    -1.941821291886     1.450901637425
    C           -1.458307119870     0.492868458031    -0.744650378886
    H           -1.338312336020     0.305960779994     1.401903261098
    H           -2.279621123349    -0.938119861032     0.629590511710
    C           -2.685687741268     1.405343545524    -0.775675180589
    H           -0.561652502770     1.096872069667    -0.842751307424
    H           -1.485326139787    -0.172595571581    -1.607036531802
    C           -2.786352591110     2.223679600725    -2.062419846437
    H           -2.653027700867     2.078408055347     0.078049398450
    H           -3.585973419960     0.805398111175    -0.658523217307
    H           -1.917420726469     2.863174320567    -2.188038758030
    H           -3.666685748952     2.858996931548    -2.056733250127
    H           -2.850092818502     1.578322385150    -2.934199135684
    C            3.467280855053    -0.950632912745     0.475482168113
    H            3.609467212712    -0.128893927854    -0.211452331394
    H            4.116857118403    -1.771944101355     0.215933758351
    H            3.673462975395    -0.613091064594     1.481000773759

  Mulliken Charges: (a.u.)
   Center  Symbol    Alpha    Beta     Spin     Total
       1     O     4.28758  4.28758  0.00000 -0.57516
       2     C     2.60520  2.60520  0.00000  0.78960
       3     C     3.20965  3.20965  0.00000 -0.41929
       4     O     4.30607  4.30607  0.00000 -0.61215
       5     C     3.15400  3.15400  0.00000 -0.30800
       6     H     0.40072  0.40072  0.00000  0.19855
       7     H     0.39808  0.39808  0.00000  0.20383
       8     C     3.15738  3.15738  0.00000 -0.31475
       9     H     0.40842  0.40842  0.00000  0.18317
      10     H     0.41963  0.41963  0.00000  0.16075
      11     C     3.15217  3.15217  0.00000 -0.30434
      12     H     0.40870  0.40870  0.00000  0.18260
      13     H     0.42705  0.42705  0.00000  0.14590
      14     C     3.23949  3.23949  0.00000 -0.47898
      15     H     0.42002  0.42002  0.00000  0.15997
      16     H     0.42471  0.42471  0.00000  0.15058
      17     H     0.42007  0.42007  0.00000  0.15985
      18     H     0.41960  0.41960  0.00000  0.16080
      19     H     0.42276  0.42276  0.00000  0.15448
      20     C     3.09255  3.09255  0.00000 -0.18510
      21     H     0.40876  0.40876  0.00000  0.18248
      22     H     0.40830  0.40830  0.00000  0.18341
      23     H     0.40910  0.40910  0.00000  0.18181

   Total alpha = 36.00000, Total beta = 36.00000, Total charge =  0.00000
