  ==> Input File <==

--------------------------------------------------------------------------
set {
	reference rhf
	basis 6-31G*
}

set_num_threads( 4 )
memory 2 gb

molecule MOL {
0 1

H	 -3.344005	 2.964900	 0.210061
C	 -3.628819	 1.911519	 0.323601
C	 -2.660244	 0.921717	 -0.272021
O	 -4.636857	 1.622269	 0.882122
C	 -1.220012	 1.144545	 0.209990
H	 -3.007715	 -0.078519	 -0.040717
H	 -2.699377	 1.047037	 -1.353418
C	 -0.252658	 0.041456	 -0.226725
H	 -0.873521	 2.100229	 -0.171974
H	 -1.211708	 1.231594	 1.295398
C	 1.180775	 0.282413	 0.250794
H	 -0.266029	 -0.034465	 -1.312038
H	 -0.597733	 -0.921000	 0.146291
C	 2.148627	 -0.814315	 -0.201312
H	 1.516199	 1.249228	 -0.115937
H	 1.192670	 0.346017	 1.338083
C	 3.580890	 -0.659131	 0.322722
H	 2.166869	 -0.852443	 -1.289387
H	 1.762857	 -1.776509	 0.128956
C	 4.324889	 0.564933	 -0.213704
H	 4.142010	 -1.551473	 0.056605
H	 3.564836	 -0.624694	 1.410140
H	 4.342616	 0.565491	 -1.300421
H	 3.866655	 1.493402	 0.110242
H	 5.353900	 0.572371	 0.132816

	symmetry c1
}
set optking {
	frozen_dihedral = ("
		6 3 5 8
	")
}

ee = optimize('scf')
oeprop('DIPOLE', 'QUADRUPOLE', 'MULLIKEN_CHARGES')
f=open( 'psi4out.xyz', 'w' )
f.write( "25  " )
f.write( str(ee) + "\n" )
f.write( MOL.save_string_xyz() )
f.close()
--------------------------------------------------------------------------

    Molecular point group: c1
  Charge       = 0
  Multiplicity = 1
  Basis Set: 6-31G*
  Basis Set:
  @DF-RHF Final Energy:  -387.12193829073397
    Total Energy =                       -387.1219382907347608
    Molecular point group: c1
  Basis Set: 6-31G*
  Basis Set:
  Basis Set: 6-31G*
  Basis Set:
  @DF-RHF Final Energy:  -387.12204460494576
    Total Energy =                       -387.1220446049458133
  Basis Set: 6-31G*
  Basis Set:
  Basis Set: 6-31G*
  Basis Set:
  @DF-RHF Final Energy:  -387.12183360111669
    Total Energy =                       -387.1218336011165775
  Basis Set: 6-31G*
  Basis Set:
  Basis Set: 6-31G*
  Basis Set:
  @DF-RHF Final Energy:  -387.12209301931654
    Total Energy =                       -387.1220930193167078
  Basis Set: 6-31G*
  Basis Set:
  Basis Set: 6-31G*
  Basis Set:
  @DF-RHF Final Energy:  -387.12209703502640
    Total Energy =                       -387.1220970350263997
  Basis Set: 6-31G*
  Basis Set:
  Basis Set: 6-31G*
  Basis Set:
  @DF-RHF Final Energy:  -387.12209879312934
    Total Energy =                       -387.1220987931291120
  Basis Set: 6-31G*
  Basis Set:
  Charge       = 0
  Multiplicity = 1
  Basis Set: 6-31G*
  Basis Set:

    Orbital Energies (a.u.)
    -----------------------

    Doubly Occupied:

       1A    -20.561775     2A    -11.326130     3A    -11.235854
       4A    -11.234579     5A    -11.226335     6A    -11.220994
       7A    -11.219422     8A    -11.218714     9A    -11.211855
      10A     -1.401584    11A     -1.104801    12A     -1.070699
      13A     -1.015150    14A     -0.944811    15A     -0.875278
      16A     -0.813066    17A     -0.795354    18A     -0.781206
      19A     -0.678069    20A     -0.655635    21A     -0.633928
      22A     -0.621490    23A     -0.615241    24A     -0.589304
      25A     -0.566936    26A     -0.558096    27A     -0.530290
      28A     -0.523082    29A     -0.515374    30A     -0.494187
      31A     -0.487765    32A     -0.480027    33A     -0.466191
      34A     -0.460259    35A     -0.451163    36A     -0.407152

  @DF-RHF Final Energy:  -387.12209895482255

   => Energetics <=

    Nuclear Repulsion Energy =            431.6472031851291717
    One-Electron Energy =               -1379.5550146215400673
    Two-Electron Energy =                 560.7857124815886891
    DFT Exchange-Correlation Energy =       0.0000000000000000
    Empirical Dispersion Energy =           0.0000000000000000
    PCM Polarization Energy =               0.0000000000000000
    EFP Energy =                            0.0000000000000000
    Total Energy =                       -387.1220989548221496
    Molecular point group: c1
  Basis Set: 6-31G*
  Basis Set:

  -Total Gradient:
     Atom            X                  Y                   Z
    ------   -----------------  -----------------  -----------------
       1        0.000007485913    -0.000002383301     0.000026862645
       2       -0.000023315225    -0.000006384328    -0.000061994426
       3       -0.000924727792     0.000509605055     0.002611083746
       4       -0.000015103961     0.000004874477     0.000015060372
       5        0.000545256820     0.000828661780    -0.002047976722
       6        0.000682419923    -0.000609372916    -0.001691702463
       7       -0.000006966161     0.000000440443     0.000005532654
       8       -0.000251757560    -0.000718536402     0.001129909654
       9       -0.000007657407     0.000000076928     0.000002875528
      10       -0.000001631658     0.000003306768    -0.000005234634
      11        0.000003483143    -0.000009035799     0.000011310719
      12       -0.000004623938     0.000006356423    -0.000001058498
      13        0.000005622656    -0.000000518098    -0.000003605531
      14       -0.000003331984    -0.000010058523     0.000012969605
      15        0.000010217036     0.000008124993    -0.000001285447
      16       -0.000002183532     0.000001079581     0.000003779530
      17        0.000004563821     0.000003323738    -0.000015767857
      18       -0.000009306958    -0.000002668558     0.000003275116
      19        0.000011068697    -0.000006610988     0.000006124564
      20       -0.000004403415    -0.000001247541     0.000004868009
      21        0.000001064095    -0.000002145539    -0.000003536218
      22       -0.000004314685     0.000000433794    -0.000004299159
      23       -0.000002305663    -0.000000970655     0.000000809984
      24       -0.000010957364     0.000004472736     0.000001647260
      25        0.000001405207    -0.000000824070     0.000000351569

  **** Optimization is complete! (in 7 steps) ****
    Final optimized geometry and variables:
    Molecular point group: c1

    Geometry (in Angstrom), charge = 0, multiplicity = 1:

    H           -3.236614693258     2.390745727580     0.076822602102
    C           -3.504059885082     1.333857762135     0.195181911973
    C           -2.524488847832     0.354115942674    -0.395015347189
    O           -4.506069516262     1.031647450733     0.758277464507
    C           -1.090969306215     0.594919133180     0.098644643452
    H           -2.858724911314    -0.652030905612    -0.170383745986
    H           -2.553454729554     0.470855370010    -1.478137223103
    C           -0.124942791958    -0.503786730619    -0.347605632273
    H           -0.740227071024     1.561120479192    -0.257186604419
    H           -1.088225054816     0.647438983664     1.185501800018
    C            1.311216121062    -0.267853143497     0.124211732433
    H           -0.140575503921    -0.578451543659    -1.433666630247
    H           -0.477435409207    -1.461178721805     0.029659744960
    C            2.270786864268    -1.374567846649    -0.321414699888
    H            1.652575663223     0.693987770822    -0.249791822521
    H            1.325173523828    -0.197174094550     1.210725298959
    C            3.704419753644    -1.226971184910     0.200980331248
    H            2.288953552432    -1.418890614160    -1.409288254569
    H            1.878096306426    -2.332069987015     0.014440152987
    C            4.455856620214    -0.009021008361    -0.339524568413
    H            4.259605252016    -2.123890167013    -0.062053187901
    H            3.688478132516    -1.188771529231     1.288270884408
    H            4.476465994711    -0.013779208786    -1.426097633251
    H            4.001843329314     0.923508732926    -0.021046987473
    H            5.483904151339    -0.005152958349     0.009220743561

  Mulliken Charges: (a.u.)
   Center  Symbol    Alpha    Beta     Spin     Total
       1     H     0.43209  0.43209  0.00000  0.13583
       2     C     2.82903  2.82903  0.00000  0.34194
       3     C     3.20898  3.20898  0.00000 -0.41796
       4     O     4.23787  4.23787  0.00000 -0.47573
       5     C     3.16509  3.16509  0.00000 -0.33018
       6     H     0.39936  0.39936  0.00000  0.20128
       7     H     0.40896  0.40896  0.00000  0.18208
       8     C     3.15159  3.15159  0.00000 -0.30317
       9     H     0.41854  0.41854  0.00000  0.16293
      10     H     0.41407  0.41407  0.00000  0.17186
      11     C     3.15458  3.15458  0.00000 -0.30917
      12     H     0.42160  0.42160  0.00000  0.15680
      13     H     0.41895  0.41895  0.00000  0.16209
      14     C     3.15311  3.15311  0.00000 -0.30621
      15     H     0.42091  0.42091  0.00000  0.15817
      16     H     0.42234  0.42234  0.00000  0.15531
      17     C     3.15271  3.15271  0.00000 -0.30542
      18     H     0.42379  0.42379  0.00000  0.15241
      19     H     0.42131  0.42131  0.00000  0.15737
      20     C     3.24144  3.24144  0.00000 -0.48288
      21     H     0.42008  0.42008  0.00000  0.15984
      22     H     0.42269  0.42269  0.00000  0.15462
      23     H     0.42216  0.42216  0.00000  0.15569
      24     H     0.42038  0.42038  0.00000  0.15924
      25     H     0.41836  0.41836  0.00000  0.16327

   Total alpha = 36.00000, Total beta = 36.00000, Total charge =  0.00000
