                              Psi4 1.0.54 Driver

  ==> Input File <==

--------------------------------------------------------------------------
set {
	reference rhf
	basis cc-pvtz
}

set_num_threads( 4 )
memory 2 gb

molecule MOL {
0 1

O	 2.115978	 2.533105	 -1.789505
C	 1.689168	 1.972475	 -2.745349
C	 0.407541	 1.165166	 -2.706398
C	 2.404169	 2.028661	 -4.076454
C	 -0.277127	 1.134083	 -1.347321
H	 -0.258443	 1.571515	 -3.464299
H	 0.644726	 0.158003	 -3.041617
C	 -1.561844	 0.310352	 -1.356351
H	 -0.492612	 2.149388	 -1.034535
H	 0.411456	 0.734729	 -0.611452
C	 -2.258482	 0.271340	 0.000669
H	 -2.246648	 0.715102	 -2.098306
H	 -1.338403	 -0.706084	 -1.672885
C	 -3.544441	 -0.550271	 -0.000253
H	 -2.482459	 1.286903	 0.317812
H	 -1.575014	 -0.133836	 0.742849
C	 -4.804551	 0.308747	 0.000556
H	 -3.553737	 -1.201524	 -0.870151
H	 -3.553831	 -1.203282	 0.868313
H	 -4.842050	 0.949078	 -0.874436
H	 -5.698404	 -0.304480	 -0.000254
H	 -4.842277	 0.947103	 0.876982
H	 1.753521	 2.453413	 -4.832953
H	 3.297284	 2.627658	 -3.987349
H	 2.666637	 1.028176	 -4.402312

	symmetry c1
}
set optking {
	frozen_dihedral = ("
		15 11 14 18
	")
}

ee,wfn = optimize('scf', return_wfn=True)
oeprop( wfn, 'DIPOLE', 'QUADRUPOLE', 'MULLIKEN_CHARGES')
f=open( 'psi4out.xyz', 'w' )
f.write( "25  " )
f.write( str(ee) + "\n" )
f.write( MOL.save_string_xyz() )
f.close()
--------------------------------------------------------------------------

    Molecular point group: c1
  Charge       = 0
  Multiplicity = 1
  Basis Set: CC-PVTZ
  Basis Set:
  @DF-RHF Final Energy:  -387.26956791568881
    Total Energy =                       -387.2695679156890947
    Molecular point group: c1
  Basis Set: CC-PVTZ
  Basis Set:
  Basis Set: CC-PVTZ
  Basis Set:
  @DF-RHF Final Energy:  -387.26985433151276
    Total Energy =                       -387.2698543315125335
  Basis Set: CC-PVTZ
  Basis Set:
  Basis Set: CC-PVTZ
  Basis Set:
  @DF-RHF Final Energy:  -387.26995508570064
    Total Energy =                       -387.2699550857009854
  Basis Set: CC-PVTZ
  Basis Set:
  Basis Set: CC-PVTZ
  Basis Set:
  @DF-RHF Final Energy:  -387.26987927588391
    Total Energy =                       -387.2698792758839090
  Basis Set: CC-PVTZ
  Basis Set:
  Basis Set: CC-PVTZ
  Basis Set:
  @DF-RHF Final Energy:  -387.26995705545090
    Total Energy =                       -387.2699570554511865
  Basis Set: CC-PVTZ
  Basis Set:
  Charge       = 0
  Multiplicity = 1
  Basis Set: CC-PVTZ
  Basis Set:

    Orbital Energies (a.u.)
    -----------------------

    Doubly Occupied:

       1A    -20.538918     2A    -11.320550     3A    -11.230258
       4A    -11.226622     5A    -11.215471     6A    -11.214613
       7A    -11.213483     8A    -11.211455     9A    -11.207220
      10A     -1.398960    11A     -1.094651    12A     -1.056451
      13A     -1.014985    14A     -0.969253    15A     -0.892373
      16A     -0.818845    17A     -0.788188    18A     -0.730900
      19A     -0.659692    20A     -0.655308    21A     -0.627298
      22A     -0.623094    23A     -0.608492    24A     -0.588664
      25A     -0.570285    26A     -0.558044    27A     -0.534391
      28A     -0.527510    29A     -0.516971    30A     -0.494774
      31A     -0.485704    32A     -0.479286    33A     -0.463705
      34A     -0.456031    35A     -0.451604    36A     -0.401360

  @DF-RHF Final Energy:  -387.26995720290898

   => Energetics <=

    Nuclear Repulsion Energy =            441.4237948312330104
    One-Electron Energy =               -1399.6966871507788710
    Two-Electron Energy =                 571.0029351166373317
    DFT Exchange-Correlation Energy =       0.0000000000000000
    Empirical Dispersion Energy =           0.0000000000000000
    PCM Polarization Energy =               0.0000000000000000
    EFP Energy =                            0.0000000000000000
    Total Energy =                       -387.2699572029085857
    Molecular point group: c1
  Basis Set: CC-PVTZ
  Basis Set:

  -Total Gradient:
     Atom            X                  Y                   Z
    ------   -----------------  -----------------  -----------------
       1        0.000011653690    -0.000008592260     0.000017741378
       2       -0.000030529036     0.000035620064    -0.000024377442
       3        0.000019346475    -0.000010619912     0.000006334149
       4        0.000009157137    -0.000015129743     0.000004057917
       5        0.000004481190     0.000013918810    -0.000009497035
       6        0.000001455192     0.000001305206     0.000002241038
       7       -0.000001128250    -0.000003191731    -0.000002050286
       8       -0.000008345834    -0.000009398509     0.000015706529
       9        0.000002262263     0.000000886824    -0.000000218209
      10       -0.000000016147     0.000000139655    -0.000000253544
      11        0.000239783479    -0.000444763908     0.003061927653
      12        0.000000618262     0.000001109339     0.000002870140
      13       -0.000002125125    -0.000003321170    -0.000004353317
      14        0.001438096203    -0.002445470702     0.001299978325
      15       -0.000434857732     0.000762983361    -0.002789310051
      16       -0.000007898446    -0.000007929683    -0.000001953798
      17        0.000008007362    -0.000009256161    -0.000006966672
      18       -0.001245192377     0.002132491588    -0.001571769111
      19        0.000010828778     0.000006135177     0.000002177066
      20        0.000000128495     0.000007626859     0.000001197561
      21       -0.000012118224    -0.000001114562    -0.000002864493
      22       -0.000001635153    -0.000001266739     0.000002859795
      23       -0.000001410007     0.000001095314    -0.000000632795
      24       -0.000002987840    -0.000001364010     0.000003360665
      25        0.000002425644    -0.000001893109    -0.000006205465

  **** Optimization is complete! (in 6 steps) ****
    Final optimized geometry and variables:
    Molecular point group: c1

    Geometry (in Angstrom), charge = 0, multiplicity = 1:

    O            2.754191456917     1.526098593556    -0.242733606097
    C            2.335142233797     0.947244819318    -1.191044467740
    C            1.064575162986     0.123035883780    -1.141475769879
    C            3.049601740296     0.995157482493    -2.522844013777
    C            0.379933904188     0.100830361152     0.217831560330
    H            0.393454312602     0.510310473758    -1.904823296917
    H            1.315638953956    -0.885124526981    -1.463292686314
    C           -0.893758009934    -0.739168569264     0.220044978436
    H            0.151885095943     1.117315617145     0.517698381256
    H            1.073394824868    -0.280303349932     0.958990984969
    C           -1.583701259708    -0.780786994961     1.583360883313
    H           -1.587581406505    -0.347671729733    -0.521117452708
    H           -0.659850877968    -1.754704412848    -0.091094671874
    C           -2.907670818865    -1.566701959721     1.571047987937
    H           -1.774676081807     0.242128436732     1.894424483552
    H           -0.899389780042    -1.205799054585     2.309808495457
    C           -4.140531146155    -0.666273406987     1.519055424976
    H           -2.930525873002    -2.220149246986     0.704290742368
    H           -2.973289445021    -2.204583233349     2.445082195834
    H           -4.113151152259    -0.013390376706     0.652476583597
    H           -5.052451518244    -1.250091083890     1.462724625995
    H           -4.202312296764    -0.038310181893     2.401302611594
    H            2.393253104166     1.400645011676    -3.284957202997
    H            3.934422406725     1.607547505699    -2.442026177532
    H            3.325833064655    -0.005994802885    -2.834998467999

  Mulliken Charges: (a.u.)
   Center  Symbol    Alpha    Beta     Spin     Total
       1     O     4.17076  4.17076  0.00000 -0.34152
       2     C     2.86215  2.86215  0.00000  0.27570
       3     C     3.11342  3.11342  0.00000 -0.22684
       4     C     3.15124  3.15124  0.00000 -0.30248
       5     C     3.08406  3.08406  0.00000 -0.16811
       6     H     0.44564  0.44564  0.00000  0.10873
       7     H     0.44560  0.44560  0.00000  0.10880
       8     C     3.09121  3.09121  0.00000 -0.18241
       9     H     0.44568  0.44568  0.00000  0.10865
      10     H     0.44602  0.44602  0.00000  0.10796
      11     C     3.09516  3.09516  0.00000 -0.19032
      12     H     0.45552  0.45552  0.00000  0.08895
      13     H     0.45516  0.45516  0.00000  0.08968
      14     C     3.09104  3.09104  0.00000 -0.18208
      15     H     0.45420  0.45420  0.00000  0.09160
      16     H     0.44662  0.44662  0.00000  0.10676
      17     C     3.14752  3.14752  0.00000 -0.29504
      18     H     0.45591  0.45591  0.00000  0.08819
      19     H     0.44747  0.44747  0.00000  0.10505
      20     H     0.45591  0.45591  0.00000  0.08818
      21     H     0.44936  0.44936  0.00000  0.10129
      22     H     0.45422  0.45422  0.00000  0.09155
      23     H     0.45040  0.45040  0.00000  0.09920
      24     H     0.43535  0.43535  0.00000  0.12929
      25     H     0.45038  0.45038  0.00000  0.09925

   Total alpha = 36.00000, Total beta = 36.00000, Total charge = -0.00000

*** Psi4 exiting successfully. Buy a developer a beer!
