  ==> Input File <==

--------------------------------------------------------------------------
set {
	reference rhf
	basis 6-31G*
}

set_num_threads( 4 )
memory 2 gb

molecule MOL {
0 1

H	 -3.931469	 1.100820	 -0.974822
O	 -3.452007	 0.283848	 -0.965577
C	 -3.181085	 -0.079926	 0.364119
C	 -1.765924	 0.277073	 0.805136
H	 -3.327791	 -1.152017	 0.410903
H	 -3.905698	 0.375695	 1.036898
C	 -0.677594	 -0.417312	 -0.014550
H	 -1.637766	 1.358238	 0.744969
H	 -1.659588	 0.017670	 1.857098
C	 0.738335	 -0.034840	 0.421385
H	 -0.814977	 -0.178223	 -1.064632
H	 -0.802730	 -1.495410	 0.071702
C	 1.822265	 -0.738362	 -0.399735
H	 0.853533	 1.043532	 0.342250
H	 0.871597	 -0.279636	 1.474438
C	 3.258060	 -0.455774	 0.057203
H	 1.718003	 -0.459167	 -1.447053
H	 1.651028	 -1.811884	 -0.354513
C	 3.709143	 0.994797	 -0.123830
H	 3.930637	 -1.101717	 -0.501982
H	 3.365259	 -0.739518	 1.102287
H	 3.601178	 1.310569	 -1.158127
H	 4.753787	 1.110486	 0.148516
H	 3.135362	 1.678896	 0.492569

	symmetry c1
}
set optking {
	frozen_dihedral = ("
		1 2 3 5
	")
}

ee = optimize('scf')
oeprop('DIPOLE', 'QUADRUPOLE', 'MULLIKEN_CHARGES')
f=open( 'psi4out.xyz', 'w' )
f.write( "24  " )
f.write( str(ee) + "\n" )
f.write( MOL.save_string_xyz() )
f.close()
--------------------------------------------------------------------------

    Molecular point group: c1
  Charge       = 0
  Multiplicity = 1
  Basis Set: 6-31G*
  Basis Set:
  @DF-RHF Final Energy:  -349.24613394728323
    Total Energy =                       -349.2461339472832265
    Molecular point group: c1
  Basis Set: 6-31G*
  Basis Set:
  Basis Set: 6-31G*
  Basis Set:
  @DF-RHF Final Energy:  -349.24625527043042
    Total Energy =                       -349.2462552704298560
  Basis Set: 6-31G*
  Basis Set:
  Basis Set: 6-31G*
  Basis Set:
  @DF-RHF Final Energy:  -349.24630518730089
    Total Energy =                       -349.2463051873007771
  Basis Set: 6-31G*
  Basis Set:
  Charge       = 0
  Multiplicity = 1
  Basis Set: 6-31G*
  Basis Set:

    Orbital Energies (a.u.)
    -----------------------

    Doubly Occupied:

       1A    -20.552302     2A    -11.268153     3A    -11.212914
       4A    -11.212173     5A    -11.209575     6A    -11.208991
       7A    -11.207128     8A    -11.205577     9A     -1.358659
      10A     -1.085789    11A     -1.046207    12A     -0.984009
      13A     -0.912896    14A     -0.846645    15A     -0.795246
      16A     -0.773782    17A     -0.692054    18A     -0.650759
      19A     -0.624024    20A     -0.613553    21A     -0.586431
      22A     -0.581511    23A     -0.556984    24A     -0.537883
      25A     -0.517532    26A     -0.504445    27A     -0.495614
      28A     -0.476101    29A     -0.467424    30A     -0.454209
      31A     -0.452434    32A     -0.443271    33A     -0.419436

  @DF-RHF Final Energy:  -349.24630518468956

   => Energetics <=

    Nuclear Repulsion Energy =            384.3451060573677864
    One-Electron Energy =               -1235.2753944985679482
    Two-Electron Energy =                 501.6839832565107145
    DFT Exchange-Correlation Energy =       0.0000000000000000
    Empirical Dispersion Energy =           0.0000000000000000
    PCM Polarization Energy =               0.0000000000000000
    EFP Energy =                            0.0000000000000000
    Total Energy =                       -349.2463051846895041
    Molecular point group: c1
  Basis Set: 6-31G*
  Basis Set:

  -Total Gradient:
     Atom            X                  Y                   Z
    ------   -----------------  -----------------  -----------------
       1       -0.001543332519    -0.000887824543     0.000026702990
       2        0.001540073467     0.001151325739     0.000125781719
       3        0.001475642633    -0.000499756270    -0.000506834082
       4        0.000034352761     0.000030424789    -0.000007335811
       5       -0.001481760979     0.000218848240     0.000352116025
       6       -0.000009283333     0.000023273979    -0.000041341661
       7       -0.000014062709     0.000016433863     0.000022314822
       8        0.000016206538    -0.000017368297     0.000004143613
       9        0.000000626607    -0.000019112137     0.000027713127
      10       -0.000004105641     0.000014295436     0.000007025661
      11       -0.000001378866    -0.000033687078    -0.000011654027
      12        0.000002286466     0.000000507287     0.000010753756
      13       -0.000003631634    -0.000000986550    -0.000013556247
      14        0.000020599290     0.000027113107     0.000023209807
      15       -0.000007111893    -0.000019105872    -0.000009115672
      16        0.000002132229     0.000008056630    -0.000021742836
      17        0.000002023141    -0.000019977351    -0.000008704958
      18       -0.000000359616     0.000005166645     0.000015475736
      19       -0.000009009620    -0.000000961746     0.000006397972
      20       -0.000001021192     0.000006717547    -0.000006759436
      21        0.000000391017    -0.000008805266    -0.000004214187
      22        0.000002203189    -0.000003474026     0.000002629210
      23        0.000000174628     0.000003418386     0.000003742583
      24       -0.000021653959     0.000005477490     0.000003251894

  **** Optimization is complete! (in 4 steps) ****
    Final optimized geometry and variables:
    Molecular point group: c1

    Geometry (in Angstrom), charge = 0, multiplicity = 1:

    H           -3.879663706211     1.123051540829    -0.995255164809
    O           -3.418406084597     0.298384753981    -0.973525568457
    C           -3.176824555412    -0.079680827986     0.361452890117
    C           -1.764744118162     0.271787286279     0.811251287023
    H           -3.341232522880    -1.149959882716     0.422836804565
    H           -3.902360307637     0.386860055021     1.024088084650
    C           -0.677853027366    -0.425556172125    -0.007289675604
    H           -1.635833565225     1.350950129138     0.748043245644
    H           -1.662744727560     0.006855494850     1.862815736293
    C            0.738239467428    -0.041434051408     0.426573092273
    H           -0.817448423334    -0.185717114953    -1.056643384700
    H           -0.801952346826    -1.503866222976     0.081517481783
    C            1.821888720126    -0.740419770976    -0.398758716220
    H            0.850499133594     1.037253033997     0.349338228193
    H            0.874688792707    -0.288410240174     1.478839783251
    C            3.258356637336    -0.451150755649     0.051813809167
    H            1.711817547293    -0.462138563523    -1.445660475387
    H            1.655829810113    -1.814798248677    -0.352482724669
    C            3.701063452525     1.001958837139    -0.129494902016
    H            3.931769045867    -1.092940232339    -0.511170894453
    H            3.371790682288    -0.735488214763     1.096125612504
    H            3.587116135783     1.318207088286    -1.162977537928
    H            4.746234602637     1.122970754773     0.138721580156
    H            3.125936097306     1.682255848842     0.489784505047

  Mulliken Charges: (a.u.)
   Center  Symbol    Alpha    Beta     Spin     Total
       1     H     0.28042  0.28042  0.00000  0.43917
       2     O     4.37073  4.37073  0.00000 -0.74146
       3     C     3.00165  3.00165  0.00000 -0.00330
       4     C     3.15845  3.15845  0.00000 -0.31690
       5     H     0.41911  0.41911  0.00000  0.16179
       6     H     0.42891  0.42891  0.00000  0.14219
       7     C     3.15398  3.15398  0.00000 -0.30796
       8     H     0.42547  0.42547  0.00000  0.14906
       9     H     0.42554  0.42554  0.00000  0.14891
      10     C     3.15359  3.15359  0.00000 -0.30719
      11     H     0.40868  0.40868  0.00000  0.18264
      12     H     0.42526  0.42526  0.00000  0.14949
      13     C     3.15216  3.15216  0.00000 -0.30431
      14     H     0.42249  0.42249  0.00000  0.15503
      15     H     0.42623  0.42623  0.00000  0.14755
      16     C     3.15216  3.15216  0.00000 -0.30433
      17     H     0.42348  0.42348  0.00000  0.15305
      18     H     0.42256  0.42256  0.00000  0.15487
      19     C     3.24093  3.24093  0.00000 -0.48187
      20     H     0.42146  0.42146  0.00000  0.15708
      21     H     0.42409  0.42409  0.00000  0.15182
      22     H     0.42224  0.42224  0.00000  0.15553
      23     H     0.41997  0.41997  0.00000  0.16005
      24     H     0.42045  0.42045  0.00000  0.15909

   Total alpha = 33.00000, Total beta = 33.00000, Total charge =  0.00000
