  ==> Input File <==

--------------------------------------------------------------------------
set {
	reference rhf
	basis 6-31G*
}

set_num_threads( 4 )
memory 2 gb

molecule MOL {
0 1

H	 -0.249968	 1.123983	 -2.399567
C	 -1.013037	 1.049002	 -1.630629
O	 -0.774054	 0.001095	 -0.743181
H	 -1.958559	 0.835777	 -2.111100
H	 -1.095483	 2.007967	 -1.127855
C	 0.406953	 0.000033	 0.038965
C	 1.527284	 -0.003667	 -0.998752
C	 0.498933	 1.262172	 0.902524
C	 0.494271	 -1.259566	 0.906664
H	 1.452513	 0.873252	 -1.631882
H	 1.448863	 -0.881882	 -1.629595
H	 2.502020	 -0.005104	 -0.521731
H	 0.364280	 2.147110	 0.289513
H	 1.472180	 1.321775	 1.378800
H	 -0.247853	 1.275162	 1.689097
H	 0.356778	 -2.146106	 0.296587
H	 1.467182	 -1.320941	 1.383330
H	 -0.252763	 -1.267328	 1.693119

	symmetry c1
}
set optking {
	frozen_dihedral = ("
		2 3 6 7
	")
}

ee = optimize('scf')
oeprop('DIPOLE', 'QUADRUPOLE', 'MULLIKEN_CHARGES')
f=open( 'psi4out.xyz', 'w' )
f.write( "18  " )
f.write( str(ee) + "\n" )
f.write( MOL.save_string_xyz() )
f.close()
--------------------------------------------------------------------------

    Molecular point group: c1
  Charge       = 0
  Multiplicity = 1
  Basis Set: 6-31G*
  Basis Set:
  @DF-RHF Final Energy:  -271.16617723657390
    Total Energy =                       -271.1661772365740148
    Molecular point group: c1
  Basis Set: 6-31G*
  Basis Set:
  Basis Set: 6-31G*
  Basis Set:
  @DF-RHF Final Energy:  -271.17126346733704
    Total Energy =                       -271.1712634673370985
  Basis Set: 6-31G*
  Basis Set:
  Basis Set: 6-31G*
  Basis Set:
  @DF-RHF Final Energy:  -271.17454324561373
    Total Energy =                       -271.1745432456136200
  Basis Set: 6-31G*
  Basis Set:
  Basis Set: 6-31G*
  Basis Set:
  @DF-RHF Final Energy:  -271.17513662993053
    Total Energy =                       -271.1751366299305346
  Basis Set: 6-31G*
  Basis Set:
  @DF-RHF Final Energy:  -271.17533277716052
    Total Energy =                       -271.1753327771605200
  @DF-RHF Final Energy:  -271.17543718801971
    Total Energy =                       -271.1754371880194867
  Basis Set: 6-31G*
  Basis Set:
  @DF-RHF Final Energy:  -271.17549189711161
    Total Energy =                       -271.1754918971116126
  Basis Set: 6-31G*
  Basis Set:
  Basis Set: 6-31G*
  Basis Set:
  @DF-RHF Final Energy:  -271.17547761211034
    Total Energy =                       -271.1754776121101145
  Basis Set: 6-31G*
  Basis Set:
  Basis Set: 6-31G*
  Basis Set:
  @DF-RHF Final Energy:  -271.17549430231111
    Total Energy =                       -271.1754943023112219
  Basis Set: 6-31G*
  Basis Set:
  Charge       = 0
  Multiplicity = 1
  Basis Set: 6-31G*
  Basis Set:

    Orbital Energies (a.u.)
    -----------------------

    Doubly Occupied:

       1A    -20.546931     2A    -11.281276     3A    -11.260512
       4A    -11.208926     5A    -11.208395     6A    -11.203222
       7A     -1.370124     8A     -1.073049     9A     -0.945788
      10A     -0.939743    11A     -0.912440    12A     -0.752332
      13A     -0.655215    14A     -0.644278    15A     -0.637315
      16A     -0.593065    17A     -0.574903    18A     -0.552660
      19A     -0.534050    20A     -0.523752    21A     -0.514587
      22A     -0.487084    23A     -0.486539    24A     -0.438854
      25A     -0.404659

  @DF-RHF Final Energy:  -271.17549433904264

   => Energetics <=

    Nuclear Repulsion Energy =            272.2874774077583879
    One-Electron Energy =                -907.4265438660495420
    Two-Electron Energy =                 363.9635721192484539
    DFT Exchange-Correlation Energy =       0.0000000000000000
    Empirical Dispersion Energy =           0.0000000000000000
    PCM Polarization Energy =               0.0000000000000000
    EFP Energy =                            0.0000000000000000
    Total Energy =                       -271.1754943390427002
    Molecular point group: c1
  Basis Set: 6-31G*
  Basis Set:

  -Total Gradient:
     Atom            X                  Y                   Z
    ------   -----------------  -----------------  -----------------
       1       -0.000009227200     0.000003718292     0.000002934283
       2        0.000013272107    -0.000032607368    -0.000037570523
       3       -0.000033679428     0.000067108207     0.000029659640
       4       -0.000001223736     0.000001873058    -0.000003231841
       5        0.000004015818     0.000004107730     0.000009070643
       6        0.000004508921    -0.000085546984    -0.000020660802
       7        0.000000568292     0.000039902002     0.000003685837
       8        0.000006985341     0.000002316417    -0.000005463141
       9        0.000009596414     0.000002624318     0.000011136929
      10        0.000003642278    -0.000004214385     0.000007089046
      11       -0.000002491584     0.000002078552     0.000000212370
      12        0.000002485447    -0.000002137909     0.000001731030
      13       -0.000006498672     0.000003219517    -0.000006300683
      14        0.000001285778     0.000002035948     0.000001669136
      15        0.000004033712    -0.000004872514    -0.000001399442
      16        0.000003563022     0.000009011324    -0.000001613442
      17        0.000000516875    -0.000003051979     0.000008056773
      18       -0.000001353385    -0.000005564224     0.000000994185

  **** Optimization is complete! (in 10 steps) ****
    Final optimized geometry and variables:
    Molecular point group: c1

    Geometry (in Angstrom), charge = 0, multiplicity = 1:

    H           -0.634011392214     0.819935724154    -2.172953835137
    C           -1.307172432410     0.794317329667    -1.321294148619
    O           -0.971383491312    -0.203747579207    -0.408148161081
    H           -2.300350051432     0.560743088421    -1.680971266391
    H           -1.332712128666     1.780991114108    -0.868486920799
    C            0.274162619907    -0.148685278741     0.264332177645
    C            1.442333306403    -0.179949545099    -0.726275346697
    C            0.358433607033     1.088172090240     1.164561917844
    C            0.280556297890    -1.415049720991     1.117682102040
    H            1.507876474972     0.731661440373    -1.310484095248
    H            1.334186823325    -1.016083198998    -1.409165173407
    H            2.381883518759    -0.292853967521    -0.195246789219
    H            0.407055350449     2.008195548947     0.592098776800
    H            1.249062023939     1.043976554262     1.783019245690
    H           -0.507594235063     1.137283968150     1.816072222734
    H            0.197557386529    -2.291842100905     0.485415683866
    H            1.194451035518    -1.490913783557     1.697954890739
    H           -0.562931929961    -1.410198317450     1.798767447286

  Mulliken Charges: (a.u.)
   Center  Symbol    Alpha    Beta     Spin     Total
       1     H     0.42912  0.42912  0.00000  0.14176
       2     C     3.07972  3.07972  0.00000 -0.15943
       3     O     4.31844  4.31844  0.00000 -0.63687
       4     H     0.41283  0.41283  0.00000  0.17435
       5     H     0.42975  0.42975  0.00000  0.14051
       6     C     2.84226  2.84226  0.00000  0.31549
       7     C     3.24833  3.24833  0.00000 -0.49667
       8     C     3.24680  3.24680  0.00000 -0.49359
       9     C     3.23302  3.23302  0.00000 -0.46603
      10     H     0.42010  0.42010  0.00000  0.15980
      11     H     0.41333  0.41333  0.00000  0.17333
      12     H     0.41934  0.41934  0.00000  0.16132
      13     H     0.42037  0.42037  0.00000  0.15927
      14     H     0.41996  0.41996  0.00000  0.16008
      15     H     0.41329  0.41329  0.00000  0.17342
      16     H     0.41427  0.41427  0.00000  0.17147
      17     H     0.42512  0.42512  0.00000  0.14976
      18     H     0.41397  0.41397  0.00000  0.17206

   Total alpha = 25.00000, Total beta = 25.00000, Total charge =  0.00000
