  ==> Input File <==

--------------------------------------------------------------------------
set {
	reference rhf
	basis cc-pvtz
}

set_num_threads( 4 )
memory 2 gb

molecule MOL {
0 1

H	 -0.290013	 -1.105768	 -0.819863
N	 -0.625934	 -0.663929	 -0.000707
C	 -1.978635	 -0.158664	 0.001017
C	 0.209207	 -0.568735	 1.057621
H	 -2.519057	 -0.493535	 -0.876362
H	 -1.938890	 0.917202	 -0.004137
H	 -2.514266	 -0.485137	 0.884506
C	 1.579364	 -1.170386	 0.835116
O	 -0.100082	 -0.058325	 2.093429
H	 2.079823	 -0.676554	 0.010332
H	 2.163600	 -1.051221	 1.732631
H	 1.496293	 -2.224082	 0.595446

	symmetry c1
}
set optking {
	frozen_dihedral = ("
		4 2 3 5
	")
}

ee = optimize('scf')
oeprop('DIPOLE', 'QUADRUPOLE', 'MULLIKEN_CHARGES')
f=open( 'psi4out.xyz', 'w' )
f.write( "12  " )
f.write( str(ee) + "\n" )
f.write( MOL.save_string_xyz() )
f.close()
--------------------------------------------------------------------------

    Molecular point group: c1
  Charge       = 0
  Multiplicity = 1
  Basis Set: CC-PVTZ
  Basis Set:
  @DF-RHF Final Energy:  -247.10045471255083
    Total Energy =                       -247.1004547125508566
    Molecular point group: c1
  Basis Set: CC-PVTZ
  Basis Set:
  Basis Set: CC-PVTZ
  Basis Set:
  @DF-RHF Final Energy:  -247.10109948982264
    Total Energy =                       -247.1010994898223316
  Basis Set: CC-PVTZ
  Basis Set:
  Basis Set: CC-PVTZ
  Basis Set:
  @DF-RHF Final Energy:  -247.10091973008420
    Total Energy =                       -247.1009197300841151
  Basis Set: CC-PVTZ
  Basis Set:
  Basis Set: CC-PVTZ
  Basis Set:
  @DF-RHF Final Energy:  -247.10125663072637
    Total Energy =                       -247.1012566307263683
  Basis Set: CC-PVTZ
  Basis Set:
  @DF-RHF Final Energy:  -247.10126155801908
    Total Energy =                       -247.1012615580192460
  @DF-RHF Final Energy:  -247.10126979600636
    Total Energy =                       -247.1012697960062496
  @DF-RHF Final Energy:  -247.10128023276070
    Total Energy =                       -247.1012802327607005
  @DF-RHF Final Energy:  -247.10128764009201
    Total Energy =                       -247.1012876400918117
  @DF-RHF Final Energy:  -247.10128964822886
    Total Energy =                       -247.1012896482287147
  @DF-RHF Final Energy:  -247.10129329775307
    Total Energy =                       -247.1012932977529886
  @DF-RHF Final Energy:  -247.10131311991935
    Total Energy =                       -247.1013131199193822
  @DF-RHF Final Energy:  -247.10131272892897
    Total Energy =                       -247.1013127289289173
  @DF-RHF Final Energy:  -247.10130891440792
    Total Energy =                       -247.1013089144079800
  @DF-RHF Final Energy:  -247.10089928538611
    Total Energy =                       -247.1008992853862196
  @DF-RHF Final Energy:  -247.10132327962779
    Total Energy =                       -247.1013232796277066
  @DF-RHF Final Energy:  -247.10132406627631
    Total Energy =                       -247.1013240662762200
  @DF-RHF Final Energy:  -247.10132374807716
    Total Energy =                       -247.1013237480772773
  @DF-RHF Final Energy:  -247.10132432363500
    Total Energy =                       -247.1013243236350831
  @DF-RHF Final Energy:  -247.10132480600450
    Total Energy =                       -247.1013248060045271
  @DF-RHF Final Energy:  -247.10132635048956
    Total Energy =                       -247.1013263504895576
  @DF-RHF Final Energy:  -247.10132941301023
    Total Energy =                       -247.1013294130101485
  @DF-RHF Final Energy:  -247.10133020130664
    Total Energy =                       -247.1013302013066664
  @DF-RHF Final Energy:  -247.10133108235866
    Total Energy =                       -247.1013310823587403
  @DF-RHF Final Energy:  -247.10133151879992
    Total Energy =                       -247.1013315188001798
  @DF-RHF Final Energy:  -247.10133174355184
    Total Energy =                       -247.1013317435517820
  @DF-RHF Final Energy:  -247.10133241903478
    Total Energy =                       -247.1013324190348612
  @DF-RHF Final Energy:  -247.10133198683249
    Total Energy =                       -247.1013319868325198
  @DF-RHF Final Energy:  -247.10133089414532
    Total Energy =                       -247.1013308941454625
  @DF-RHF Final Energy:  -247.10133490946995
    Total Energy =                       -247.1013349094702107
  @DF-RHF Final Energy:  -247.10133690420002
    Total Energy =                       -247.1013369041999681
  @DF-RHF Final Energy:  -247.10133822686581
    Total Energy =                       -247.1013382268658347
  @DF-RHF Final Energy:  -247.10133930710563
    Total Energy =                       -247.1013393071057749
  @DF-RHF Final Energy:  -247.10133999361406
    Total Energy =                       -247.1013399936139763
  @DF-RHF Final Energy:  -247.10133982886748
    Total Energy =                       -247.1013398288675376
  @DF-RHF Final Energy:  -247.10133968432189
    Total Energy =                       -247.1013396843220562
  @DF-RHF Final Energy:  -247.10133959968894
    Total Energy =                       -247.1013395996889699
  Basis Set: CC-PVTZ
  Basis Set:
  @DF-RHF Final Energy:  -247.10133951019924
    Total Energy =                       -247.1013395101994661
  Basis Set: CC-PVTZ
  Basis Set:
  Basis Set: CC-PVTZ
  Basis Set:
  @DF-RHF Final Energy:  -247.10133886491369
    Total Energy =                       -247.1013388649137141
  Basis Set: CC-PVTZ
  Basis Set:
  Basis Set: CC-PVTZ
  Basis Set:
  @DF-RHF Final Energy:  -247.10133954703372
    Total Energy =                       -247.1013395470337741
  Basis Set: CC-PVTZ
  Basis Set:
  Charge       = 0
  Multiplicity = 1
  Basis Set: CC-PVTZ
  Basis Set:

    Orbital Energies (a.u.)
    -----------------------

    Doubly Occupied:

       1A    -20.506749     2A    -15.574859     3A    -11.335112
       4A    -11.253879     5A    -11.228008     6A     -1.388886
       7A     -1.230581     8A     -1.016268     9A     -0.933046
      10A     -0.789667    11A     -0.690569    12A     -0.650891
      13A     -0.636280    14A     -0.584965    15A     -0.582385
      16A     -0.557818    17A     -0.547224    18A     -0.507085
      19A     -0.417399    20A     -0.390736

  @DF-RHF Final Energy:  -247.10133946402061

   => Energetics <=

    Nuclear Repulsion Energy =            181.9025566790757580
    One-Electron Energy =                -696.3629760032964668
    Two-Electron Energy =                 267.3590798602000973
    DFT Exchange-Correlation Energy =       0.0000000000000000
    Empirical Dispersion Energy =           0.0000000000000000
    PCM Polarization Energy =               0.0000000000000000
    EFP Energy =                            0.0000000000000000
    Total Energy =                       -247.1013394640206684
    Molecular point group: c1
  Basis Set: CC-PVTZ
  Basis Set:

  -Total Gradient:
     Atom            X                  Y                   Z
    ------   -----------------  -----------------  -----------------
       1       -0.000131943768     0.000174298961     0.000064904724
       2        0.001673405046    -0.000410346544    -0.000748457790
       3       -0.001493961492    -0.000667893078     0.000182592077
       4       -0.000881782132     0.000947544232     0.000066922997
       5        0.000061783007     0.000059644609    -0.000012418642
       6        0.000292972456    -0.000030339580     0.000337296120
       7        0.000323143520     0.000493522641    -0.000131162996
       8       -0.001087033242     0.000044107197    -0.000419330913
       9        0.000451095589    -0.000441585294    -0.000217323634
      10        0.000108001793     0.000149971050     0.000260536636
      11        0.000724279174    -0.000308866298     0.000067682817
      12       -0.000039959950    -0.000010057893     0.000548758602

    Molecular point group: c1

    Geometry (in Angstrom), charge = 0, multiplicity = 1:

    H           -0.130918024051    -0.663785784396    -1.593749171000
    N           -0.454073667755    -0.223381662362    -0.770063668998
    C           -1.778412849194     0.357452533550    -0.760005788283
    C            0.404512717543    -0.047644856636     0.256361454283
    H           -2.345783415517    -0.052029924811    -1.583608450704
    H           -1.742610041679     1.435764543405    -0.857452495716
    H           -2.279659916442     0.123207237097     0.166426768648
    C            1.775677564902    -0.653540446390     0.061170228671
    O            0.105376026665     0.549874383783     1.247458528522
    H            2.357634501906    -0.021778029066    -0.600408055144
    H            2.278221743545    -0.709551388037     1.014349783785
    H            1.715884660275    -1.642221899330    -0.375632770768

  Mulliken Charges: (a.u.)
   Center  Symbol    Alpha    Beta     Spin     Total
       1     H     0.41142  0.41142  0.00000  0.17717
       2     N     3.61744  3.61744  0.00000 -0.23487
       3     C     3.07725  3.07725  0.00000 -0.15449
       4     C     2.83841  2.83841  0.00000  0.32317
       5     H     0.45558  0.45558  0.00000  0.08885
       6     H     0.45452  0.45452  0.00000  0.09096
       7     H     0.44292  0.44292  0.00000  0.11417
       8     C     3.15179  3.15179  0.00000 -0.30359
       9     O     4.21590  4.21590  0.00000 -0.43180
      10     H     0.44653  0.44653  0.00000  0.10693
      11     H     0.43432  0.43432  0.00000  0.13135
      12     H     0.45393  0.45393  0.00000  0.09214

   Total alpha = 20.00000, Total beta = 20.00000, Total charge = -0.00000
