                              Psi4 1.0.54 Driver

  ==> Input File <==

--------------------------------------------------------------------------
set {
	reference rhf
	basis cc-pvtz
}

set_num_threads( 4 )
memory 2 gb

molecule MOL {
0 1

O	 2.431453	 2.039040	 -1.527712
C	 2.172633	 1.215321	 -2.342948
C	 0.883984	 0.419009	 -2.309726
C	 3.121758	 0.904843	 -3.478285
C	 -0.039797	 0.762400	 -1.149752
H	 0.380384	 0.571417	 -3.261686
H	 1.150974	 -0.635203	 -2.290784
C	 -1.323102	 -0.063544	 -1.157453
H	 -0.281113	 1.818529	 -1.188123
H	 0.490256	 0.610951	 -0.216349
C	 -2.258482	 0.271340	 0.000669
H	 -1.848172	 0.091419	 -2.097433
H	 -1.073310	 -1.121619	 -1.120812
C	 -3.544441	 -0.550271	 -0.000253
H	 -2.508936	 1.328740	 -0.035247
H	 -1.734777	 0.115998	 0.940738
C	 -4.804551	 0.308747	 0.000556
H	 -3.553737	 -1.201524	 -0.870151
H	 -3.553831	 -1.203282	 0.868313
H	 -4.842050	 0.949078	 -0.874436
H	 -5.698404	 -0.304480	 -0.000254
H	 -4.842277	 0.947103	 0.876982
H	 2.633475	 1.075686	 -4.431406
H	 3.999367	 1.528124	 -3.402693
H	 3.412050	 -0.139591	 -3.447815

	symmetry c1
}
set optking {
	frozen_dihedral = ("
		15 11 14 18
	")
}

ee,wfn = optimize('scf', return_wfn=True)
oeprop( wfn, 'DIPOLE', 'QUADRUPOLE', 'MULLIKEN_CHARGES')
f=open( 'psi4out.xyz', 'w' )
f.write( "25  " )
f.write( str(ee) + "\n" )
f.write( MOL.save_string_xyz() )
f.close()
--------------------------------------------------------------------------

    Molecular point group: c1
  Charge       = 0
  Multiplicity = 1
  Basis Set: CC-PVTZ
  Basis Set:
  @DF-RHF Final Energy:  -387.26887855884416
    Total Energy =                       -387.2688785588434257
    Molecular point group: c1
  Basis Set: CC-PVTZ
  Basis Set:
  Basis Set: CC-PVTZ
  Basis Set:
  @DF-RHF Final Energy:  -387.26911343850941
    Total Energy =                       -387.2691134385094074
  Basis Set: CC-PVTZ
  Basis Set:
  Basis Set: CC-PVTZ
  Basis Set:
  @DF-RHF Final Energy:  -387.26917270520619
    Total Energy =                       -387.2691727052060742
  Basis Set: CC-PVTZ
  Basis Set:
  Basis Set: CC-PVTZ
  Basis Set:
  @DF-RHF Final Energy:  -387.26902200040462
    Total Energy =                       -387.2690220004045614
  Basis Set: CC-PVTZ
  Basis Set:
  Charge       = 0
  Multiplicity = 1
  Basis Set: CC-PVTZ
  Basis Set:

    Orbital Energies (a.u.)
    -----------------------

    Doubly Occupied:

       1A    -20.538900     2A    -11.320536     3A    -11.230274
       4A    -11.226600     5A    -11.215695     6A    -11.214631
       7A    -11.213293     8A    -11.211277     9A    -11.207227
      10A     -1.398954    11A     -1.094224    12A     -1.055987
      13A     -1.015295    14A     -0.970079    15A     -0.891567
      16A     -0.817164    17A     -0.790801    18A     -0.730988
      19A     -0.659936    20A     -0.654969    21A     -0.627959
      22A     -0.625063    23A     -0.602516    24A     -0.587834
      25A     -0.570074    26A     -0.558961    27A     -0.533778
      28A     -0.530883    29A     -0.516107    30A     -0.494179
      31A     -0.485973    32A     -0.478294    33A     -0.464421
      34A     -0.455186    35A     -0.451181    36A     -0.401363

  @DF-RHF Final Energy:  -387.26917456327982

   => Energetics <=

    Nuclear Repulsion Energy =            439.8080323958245685
    One-Electron Energy =               -1396.4700887204967330
    Two-Electron Energy =                 569.3928817613923457
    DFT Exchange-Correlation Energy =       0.0000000000000000
    Empirical Dispersion Energy =           0.0000000000000000
    PCM Polarization Energy =               0.0000000000000000
    EFP Energy =                            0.0000000000000000
    Total Energy =                       -387.2691745632798757
    Molecular point group: c1
  Basis Set: CC-PVTZ
  Basis Set:

  -Total Gradient:
     Atom            X                  Y                   Z
    ------   -----------------  -----------------  -----------------
       1        0.000082032915    -0.000015885963    -0.000025713829
       2       -0.000153613456     0.000003628304    -0.000043523000
       3       -0.000034322837    -0.000046200448     0.000036930947
       4        0.000054361844     0.000027503406     0.000050115233
       5       -0.000004769535     0.000006441542     0.000008501028
       6       -0.000000869013     0.000001302339    -0.000002986282
       7       -0.000004433919    -0.000002773133    -0.000003667311
       8        0.000068869282    -0.000021065249    -0.000075837811
       9       -0.000004707304     0.000005188467    -0.000000227411
      10        0.000003113536    -0.000003954120     0.000008471134
      11        0.000065366423    -0.000222851817    -0.001189320548
      12        0.000010968436     0.000002520174    -0.000033298947
      13        0.000026435506    -0.000005812550    -0.000022038607
      14       -0.000531269297     0.000928846570    -0.000452514302
      15        0.000021229562     0.000048245576     0.001165696142
      16        0.000015319660     0.000044831964    -0.000008279201
      17       -0.000082913414     0.000068229011     0.000012395570
      18        0.000510319622    -0.000850201609     0.000623762326
      19       -0.000020285725    -0.000020987267    -0.000042134519
      20       -0.000019282431     0.000021861595    -0.000024601107
      21        0.000027135881     0.000001603255    -0.000000452199
      22       -0.000032187762     0.000017474822     0.000010814145
      23       -0.000007123421     0.000013812897     0.000009800554
      24        0.000009937691    -0.000005922409    -0.000014855426
      25        0.000000687755     0.000004164642     0.000012963421

  **** Optimization is complete! (in 5 steps) ****
    Final optimized geometry and variables:
    Molecular point group: c1

    Geometry (in Angstrom), charge = 0, multiplicity = 1:

    O            2.818196298820     1.442072788597    -0.198597874928
    C            2.558283677300     0.619539291679    -1.014596185411
    C            1.268378409442    -0.174930442571    -0.982746972275
    C            3.508028822132     0.308133866188    -2.149237491863
    C            0.344092519078     0.169780009163     0.176404630723
    H            0.766049409710    -0.021526986545    -1.935208984533
    H            1.533894903002    -1.229516915012    -0.963710603328
    C           -0.939806970983    -0.654121801495     0.167593038306
    H            0.104167418465     1.226314114211     0.138057968009
    H            0.873026257154     0.017591833347     1.110404095870
    C           -1.877632943835    -0.317319004924     1.324308354817
    H           -1.464953423226    -0.499966143208    -0.772808731774
    H           -0.692617259323    -1.712855148197     0.205775846619
    C           -3.178132306989    -1.146707435730     1.331807305935
    H           -2.119423199376     0.740822009305     1.288436144107
    H           -1.345109530782    -0.461244784840     2.259190320795
    C           -4.445717878595    -0.297566174886     1.348088553284
    H           -3.198194742156    -1.800638844955     0.465492182666
    H           -3.185929117055    -1.806230193702     2.193116915879
    H           -4.495635878741     0.345557537495     0.475371497743
    H           -5.335138503869    -0.917551917839     1.354777775098
    H           -4.478267062234     0.338261245323     2.226566529280
    H            3.020778745793     0.480287280019    -3.102642033762
    H            4.386659746831     0.929920952326    -2.072763231915
    H            3.796565545298    -0.736788003766    -2.118832783190

  Mulliken Charges: (a.u.)
   Center  Symbol    Alpha    Beta     Spin     Total
       1     O     4.17076  4.17076  0.00000 -0.34152
       2     C     2.86218  2.86218  0.00000  0.27563
       3     C     3.11358  3.11358  0.00000 -0.22717
       4     C     3.15124  3.15124  0.00000 -0.30249
       5     C     3.08384  3.08384  0.00000 -0.16768
       6     H     0.44558  0.44558  0.00000  0.10883
       7     H     0.44558  0.44558  0.00000  0.10884
       8     C     3.09147  3.09147  0.00000 -0.18294
       9     H     0.44572  0.44572  0.00000  0.10856
      10     H     0.44608  0.44608  0.00000  0.10784
      11     C     3.09387  3.09387  0.00000 -0.18773
      12     H     0.45539  0.45539  0.00000  0.08923
      13     H     0.45459  0.45459  0.00000  0.09082
      14     C     3.08908  3.08908  0.00000 -0.17815
      15     H     0.45304  0.45304  0.00000  0.09392
      16     H     0.44943  0.44943  0.00000  0.10114
      17     C     3.14711  3.14711  0.00000 -0.29423
      18     H     0.45528  0.45528  0.00000  0.08943
      19     H     0.45044  0.45044  0.00000  0.09911
      20     H     0.45584  0.45584  0.00000  0.08832
      21     H     0.44985  0.44985  0.00000  0.10029
      22     H     0.45388  0.45388  0.00000  0.09224
      23     H     0.45041  0.45041  0.00000  0.09919
      24     H     0.43536  0.43536  0.00000  0.12927
      25     H     0.45038  0.45038  0.00000  0.09924

   Total alpha = 36.00000, Total beta = 36.00000, Total charge = -0.00000

*** Psi4 exiting successfully. Buy a developer a beer!
