  ==> Input File <==

--------------------------------------------------------------------------
set {
	reference rhf
	basis 6-31G*
}

set_num_threads( 4 )
memory 2 gb

molecule MOL {
0 1

H	 -2.800472	 -0.846503	 -0.064366
N	 -1.865166	 -0.699063	 0.261885
C	 -1.341901	 0.563708	 -0.228735
H	 -1.304650	 -1.451649	 -0.088179
C	 0.084854	 0.750415	 0.243120
H	 -1.359028	 0.653275	 -1.315789
H	 -1.947211	 1.370033	 0.174032
O	 0.874168	 -0.245412	 -0.342030
H	 0.450886	 1.735661	 -0.044886
H	 0.124298	 0.674515	 1.327518
C	 2.202317	 -0.244239	 0.074611
H	 2.711377	 -1.041390	 -0.449894
H	 2.692099	 0.699270	 -0.159667
H	 2.283185	 -0.418429	 1.145558

	symmetry c1
}
set optking {
	frozen_dihedral = ("
		5 8 11 13
	")
}

ee = optimize('scf')
oeprop('DIPOLE', 'QUADRUPOLE', 'MULLIKEN_CHARGES')
f=open( 'psi4out.xyz', 'w' )
f.write( "14  " )
f.write( str(ee) + "\n" )
f.write( MOL.save_string_xyz() )
f.close()
--------------------------------------------------------------------------

    Molecular point group: c1
  Charge       = 0
  Multiplicity = 1
  Basis Set: 6-31G*
  Basis Set:

    Orbital Energies (a.u.)
    -----------------------

    Doubly Occupied:

       1A    -20.557519     2A    -15.528470     3A    -11.266258
       4A    -11.265651     5A    -11.240832     6A     -1.381502
       7A     -1.173666     8A     -0.999044     9A     -0.907208
      10A     -0.815211    11A     -0.683861    12A     -0.674036
      13A     -0.645387    14A     -0.610105    15A     -0.605280
      16A     -0.540717    17A     -0.530104    18A     -0.496948
      19A     -0.472741    20A     -0.417645    21A     -0.380131

  @DF-RHF Final Energy:  -248.12526985010078

   => Energetics <=

    Nuclear Repulsion Energy =            194.6754625630921396
    One-Electron Energy =                -723.2168323124753897
    Two-Electron Energy =                 280.4160998992824148
    DFT Exchange-Correlation Energy =       0.0000000000000000
    Empirical Dispersion Energy =           0.0000000000000000
    PCM Polarization Energy =               0.0000000000000000
    EFP Energy =                            0.0000000000000000
    Total Energy =                       -248.1252698501007785
    Molecular point group: c1
  Basis Set: 6-31G*
  Basis Set:

  -Total Gradient:
     Atom            X                  Y                   Z
    ------   -----------------  -----------------  -----------------
       1       -0.000025779008     0.000039776758    -0.000017536234
       2        0.000086461210     0.000033644072     0.000039218655
       3       -0.000036059018     0.000035150697    -0.000030702044
       4        0.000028952713     0.000006817714    -0.000003633882
       5       -0.000068130451    -0.000027298741    -0.000074950069
       6       -0.000003953583    -0.000003179905    -0.000010408906
       7       -0.000041312662     0.000010003918     0.000009950810
       8        0.000067685050    -0.000122133285     0.000147104267
       9       -0.000038577870     0.000001922053    -0.000008980294
      10        0.000018953237    -0.000014444865     0.000018059303
      11       -0.000071045689     0.000052034556    -0.000088783895
      12        0.000024032565     0.000004747806    -0.000023239612
      13        0.000049744911     0.000019724338     0.000055365679
      14        0.000009028591    -0.000036765116    -0.000011463778

  **** Optimization is complete! (in 1 steps) ****
    Final optimized geometry and variables:
    Molecular point group: c1

    Geometry (in Angstrom), charge = 0, multiplicity = 1:

    H           -2.801332069571    -0.853293789693    -0.061606334181
    N           -1.866026069571    -0.705853789693     0.264644665819
    C           -1.342761069571     0.556917210307    -0.225975334181
    H           -1.305510069571    -1.458439789693    -0.085419334181
    C            0.083993930429     0.743624210307     0.245879665819
    H           -1.359888069571     0.646484210307    -1.313029334181
    H           -1.948071069571     1.363242210307     0.176791665819
    O            0.873307930429    -0.252202789693    -0.339270334181
    H            0.450025930429     1.728870210307    -0.042126334181
    H            0.123437930429     0.667724210307     1.330277665819
    C            2.201456930429    -0.251029789693     0.077370665819
    H            2.710516930429    -1.048180789693    -0.447134334181
    H            2.691238930429     0.692479210307    -0.156907334181
    H            2.282324930429    -0.425219789693     1.148317665819

  Mulliken Charges: (a.u.)
   Center  Symbol    Alpha    Beta     Spin     Total
       1     H     0.33283  0.33283  0.00000  0.33435
       2     N     3.92525  3.92525  0.00000 -0.85049
       3     C     3.06895  3.06895  0.00000 -0.13790
       4     H     0.32373  0.32373  0.00000  0.35253
       5     C     2.99014  2.99014  0.00000  0.01972
       6     H     0.42660  0.42660  0.00000  0.14681
       7     H     0.42043  0.42043  0.00000  0.15914
       8     O     4.30967  4.30967  0.00000 -0.61934
       9     H     0.43097  0.43097  0.00000  0.13806
      10     H     0.42255  0.42255  0.00000  0.15489
      11     C     3.07904  3.07904  0.00000 -0.15808
      12     H     0.41251  0.41251  0.00000  0.17499
      13     H     0.42996  0.42996  0.00000  0.14009
      14     H     0.42738  0.42738  0.00000  0.14524

   Total alpha = 21.00000, Total beta = 21.00000, Total charge = -0.00000
