  ==> Input File <==

--------------------------------------------------------------------------
set {
	reference rhf
	basis 6-31G*
}

set_num_threads( 4 )
memory 2 gb

molecule MOL {
0 1

H	 -0.386705	 2.466144	 0.602075
C	 0.447177	 1.846835	 0.954067
C	 0.692068	 0.589600	 0.160137
O	 1.083900	 2.184410	 1.898925
C	 -0.558097	 -0.297372	 0.091132
H	 1.526632	 0.062398	 0.607398
H	 0.981046	 0.884557	 -0.847991
C	 -1.850991	 0.512573	 -0.019058
H	 -0.476753	 -0.965681	 -0.762987
H	 -0.604799	 -0.930658	 0.975228
C	 -3.096943	 -0.368295	 -0.099594
H	 -1.800724	 1.150330	 -0.898172
H	 -1.931651	 1.177355	 0.838044
H	 -3.060452	 -1.020287	 -0.967456
H	 -3.996858	 0.233488	 -0.175704
H	 -3.191959	 -0.995686	 0.782074

	symmetry c1
}
set optking {
	frozen_dihedral = ("
		6 3 5 9
	")
}

ee = optimize('scf')
oeprop('DIPOLE', 'QUADRUPOLE', 'MULLIKEN_CHARGES')
f=open( 'psi4out.xyz', 'w' )
f.write( "16  " )
f.write( str(ee) + "\n" )
f.write( MOL.save_string_xyz() )
f.close()
--------------------------------------------------------------------------

    Molecular point group: c1
  Charge       = 0
  Multiplicity = 1
  Basis Set: 6-31G*
  Basis Set:
  @DF-RHF Final Energy:  -270.01209809723508
    Total Energy =                       -270.0120980972351390
    Molecular point group: c1
  Basis Set: 6-31G*
  Basis Set:
  Basis Set: 6-31G*
  Basis Set:
  @DF-RHF Final Energy:  -270.01256682905779
    Total Energy =                       -270.0125668290579597
  Basis Set: 6-31G*
  Basis Set:
  Basis Set: 6-31G*
  Basis Set:
  @DF-RHF Final Energy:  -270.01471617401143
    Total Energy =                       -270.0147161740113688
  Basis Set: 6-31G*
  Basis Set:
  Basis Set: 6-31G*
  Basis Set:
  @DF-RHF Final Energy:  -270.01514501625877
    Total Energy =                       -270.0151450162589413
  Basis Set: 6-31G*
  Basis Set:
  @DF-RHF Final Energy:  -270.01500487357555
    Total Energy =                       -270.0150048735754353
  @DF-RHF Final Energy:  -270.01541861362989
    Total Energy =                       -270.0154186136298904
  @DF-RHF Final Energy:  -270.01548742477780
    Total Energy =                       -270.0154874247778594
  @DF-RHF Final Energy:  -270.01553868423309
    Total Energy =                       -270.0155386842328653
  Basis Set: 6-31G*
  Basis Set:
  @DF-RHF Final Energy:  -270.01559087486930
    Total Energy =                       -270.0155908748692468
  Basis Set: 6-31G*
  Basis Set:
  Basis Set: 6-31G*
  Basis Set:
  @DF-RHF Final Energy:  -270.01559230838456
    Total Energy =                       -270.0155923083846119
  Basis Set: 6-31G*
  Basis Set:
  Basis Set: 6-31G*
  Basis Set:
  @DF-RHF Final Energy:  -270.01559350702490
    Total Energy =                       -270.0155935070251871
  Basis Set: 6-31G*
  Basis Set:
  Charge       = 0
  Multiplicity = 1
  Basis Set: 6-31G*
  Basis Set:

    Orbital Energies (a.u.)
    -----------------------

    Doubly Occupied:

       1A    -20.561546     2A    -11.325223     3A    -11.235981
       4A    -11.234544     5A    -11.230271     6A    -11.218736
       7A     -1.401289     8A     -1.094276     9A     -1.015652
      10A     -0.904828    11A     -0.832332    12A     -0.771219
      13A     -0.682557    14A     -0.645566    15A     -0.621617
      16A     -0.602434    17A     -0.582273    18A     -0.558222
      19A     -0.525516    20A     -0.515628    21A     -0.491186
      22A     -0.478422    23A     -0.468867    24A     -0.407243

  @DF-RHF Final Energy:  -270.01559361673151

   => Energetics <=

    Nuclear Repulsion Energy =            234.0601505891431486
    One-Electron Energy =                -829.3406351918094970
    Two-Electron Energy =                 325.2648909859349260
    DFT Exchange-Correlation Energy =       0.0000000000000000
    Empirical Dispersion Energy =           0.0000000000000000
    PCM Polarization Energy =               0.0000000000000000
    EFP Energy =                            0.0000000000000000
    Total Energy =                       -270.0155936167313939
    Molecular point group: c1
  Basis Set: 6-31G*
  Basis Set:

  -Total Gradient:
     Atom            X                  Y                   Z
    ------   -----------------  -----------------  -----------------
       1       -0.000001220422    -0.000000045559     0.000000972227
       2        0.000018902141    -0.000007232231     0.000000532401
       3        0.000879962486    -0.001353244997    -0.005633485904
       4       -0.000003500655     0.000005287071     0.000005808409
       5        0.002281762902    -0.003266815947     0.004115127366
       6       -0.001094549518     0.001625335513     0.004108597297
       7        0.000004134075    -0.000001680661    -0.000006677155
       8        0.000009592370     0.000002309900     0.000026260867
       9       -0.002087528002     0.002989976516    -0.002605219041
      10       -0.000003832038     0.000010421292    -0.000006436260
      11       -0.000003279668    -0.000007451525    -0.000009937179
      12       -0.000000350658    -0.000006387841     0.000000645020
      13       -0.000000571067     0.000010685446     0.000003633469
      14       -0.000000912512    -0.000004364600     0.000001239919
      15        0.000001800493     0.000000253721    -0.000002359183
      16       -0.000000409926     0.000002953896     0.000001297747

  **** Optimization is complete! (in 12 steps) ****
    Final optimized geometry and variables:
    Molecular point group: c1

    Geometry (in Angstrom), charge = 0, multiplicity = 1:

    H            0.587177095386     1.988070069476    -0.058553535646
    C            1.120778757610     1.157199307044     0.413786113223
    C            1.267144165033    -0.100042660798    -0.412128133560
    O            1.543187408681     1.274887769822     1.519200140065
    C           -0.003395121047    -0.978513157297    -0.402632376078
    H            2.093567817334    -0.648206787306     0.024246647867
    H            1.517207704739     0.182322481718    -1.431115825978
    C           -1.324886760002    -0.210547504374    -0.533444984445
    H            0.060191260731    -1.664063732256    -1.242775275530
    H           -0.020743351541    -1.570731729915     0.506413816249
    C           -2.526956674144    -1.147481407259    -0.644922206160
    H           -1.288675084315     0.433848200912    -1.409920153072
    H           -1.465359411246     0.442091200110     0.324523721286
    H           -2.446620648348    -1.786595554560    -1.519467456674
    H           -3.452954788120    -0.587715983569    -0.727227621040
    H           -2.604218772223    -1.788989186638     0.228016713011

  Mulliken Charges: (a.u.)
   Center  Symbol    Alpha    Beta     Spin     Total
       1     H     0.42904  0.42904  0.00000  0.14191
       2     C     2.83879  2.83879  0.00000  0.32242
       3     C     3.20544  3.20544  0.00000 -0.41088
       4     O     4.23746  4.23746  0.00000 -0.47493
       5     C     3.15619  3.15619  0.00000 -0.31237
       6     H     0.39838  0.39838  0.00000  0.20323
       7     H     0.41342  0.41342  0.00000  0.17315
       8     C     3.16345  3.16345  0.00000 -0.32690
       9     H     0.41530  0.41530  0.00000  0.16941
      10     H     0.41001  0.41001  0.00000  0.17998
      11     C     3.23966  3.23966  0.00000 -0.47931
      12     H     0.42173  0.42173  0.00000  0.15654
      13     H     0.41631  0.41631  0.00000  0.16738
      14     H     0.42030  0.42030  0.00000  0.15940
      15     H     0.41614  0.41614  0.00000  0.16773
      16     H     0.41838  0.41838  0.00000  0.16325

   Total alpha = 24.00000, Total beta = 24.00000, Total charge = -0.00000
