  ==> Input File <==

--------------------------------------------------------------------------
set {
	reference rhf
	basis 6-31G*
}

set_num_threads( 4 )
memory 2 gb

molecule MOL {
0 1

H	 -3.892951	 0.981613	 -0.358725
C	 -3.196921	 0.361773	 0.172313
C	 -2.076860	 -0.007332	 -0.404944
H	 -3.439953	 0.057760	 1.173024
O	 -1.180634	 -0.819263	 0.215062
H	 -1.811520	 0.292194	 -1.403480
C	 0.051604	 -1.018856	 -0.387932
C	 1.043764	 0.054862	 -0.001873
H	 -0.017620	 -1.041351	 -1.469781
H	 0.437898	 -1.966374	 -0.042284
F	 0.454433	 1.240338	 -0.057920
F	 1.492900	 -0.112364	 1.231067
F	 2.084436	 0.080302	 -0.808561

	symmetry c1
}
set optking {
	frozen_dihedral = ("
		11 8 7 9
	")
}

ee = optimize('scf')
oeprop('DIPOLE', 'QUADRUPOLE', 'MULLIKEN_CHARGES')
f=open( 'psi4out.xyz', 'w' )
f.write( "13  " )
f.write( str(ee) + "\n" )
f.write( MOL.save_string_xyz() )
f.close()
--------------------------------------------------------------------------

    Molecular point group: c1
  Charge       = 0
  Multiplicity = 1
  Basis Set: 6-31G*
  Basis Set:
  @DF-RHF Final Energy:  -527.53387191639285
    Total Energy =                       -527.5338719163923997
    Molecular point group: c1
  Basis Set: 6-31G*
  Basis Set:
  Basis Set: 6-31G*
  Basis Set:
  @DF-RHF Final Energy:  -527.53440064038352
    Total Energy =                       -527.5344006403838648
  Basis Set: 6-31G*
  Basis Set:
  Basis Set: 6-31G*
  Basis Set:
  @DF-RHF Final Energy:  -527.53452337969020
    Total Energy =                       -527.5345233796903130
  Basis Set: 6-31G*
  Basis Set:
  Basis Set: 6-31G*
  Basis Set:
  @DF-RHF Final Energy:  -527.53455123937101
    Total Energy =                       -527.5345512393712397
  Basis Set: 6-31G*
  Basis Set:
  @DF-RHF Final Energy:  -527.53455934273757
    Total Energy =                       -527.5345593427375661
  Basis Set: 6-31G*
  Basis Set:
  @DF-RHF Final Energy:  -527.53456340958371
    Total Energy =                       -527.5345634095838250
  Basis Set: 6-31G*
  Basis Set:
  Basis Set: 6-31G*
  Basis Set:
  @DF-RHF Final Energy:  -527.53456484610660
    Total Energy =                       -527.5345648461066048
  Basis Set: 6-31G*
  Basis Set:
  Basis Set: 6-31G*
  Basis Set:
  @DF-RHF Final Energy:  -527.53456628658955
    Total Energy =                       -527.5345662865901204
  Basis Set: 6-31G*
  Basis Set:
  Charge       = 0
  Multiplicity = 1
  Basis Set: 6-31G*
  Basis Set:

    Orbital Energies (a.u.)
    -----------------------

    Doubly Occupied:

       1A    -26.345876     2A    -26.344045     3A    -26.339189
       4A    -20.608864     5A    -11.503664     6A    -11.318834
       7A    -11.299641     8A    -11.215582     9A     -1.742039
      10A     -1.641496    11A     -1.636756    12A     -1.438863
      13A     -1.083919    14A     -1.016184    15A     -0.925605
      16A     -0.836956    17A     -0.831250    18A     -0.821543
      19A     -0.790464    20A     -0.724907    21A     -0.711976
      22A     -0.697239    23A     -0.674867    24A     -0.661300
      25A     -0.654062    26A     -0.642947    27A     -0.631662
      28A     -0.584601    29A     -0.562542    30A     -0.525298
      31A     -0.513497    32A     -0.351252

  @DF-RHF Final Energy:  -527.53456671608342

   => Energetics <=

    Nuclear Repulsion Energy =            412.9166468343341876
    One-Electron Energy =               -1549.5485821092802325
    Two-Electron Energy =                 609.0973685588622857
    DFT Exchange-Correlation Energy =       0.0000000000000000
    Empirical Dispersion Energy =           0.0000000000000000
    PCM Polarization Energy =               0.0000000000000000
    EFP Energy =                            0.0000000000000000
    Total Energy =                       -527.5345667160837593
    Molecular point group: c1
  Basis Set: 6-31G*
  Basis Set:

  -Total Gradient:
     Atom            X                  Y                   Z
    ------   -----------------  -----------------  -----------------
       1        0.000002782607     0.000002233665     0.000001262780
       2       -0.000020710051     0.000016706773    -0.000006982080
       3        0.000035357864    -0.000068526849     0.000040556454
       4        0.000001013582     0.000000294049     0.000001833948
       5       -0.000048717884     0.000041568239    -0.000051807950
       6       -0.000008500762     0.000008491995    -0.000005825820
       7       -0.003845607285     0.003369883409     0.001142514319
       8        0.002063546054    -0.000426046875    -0.004400270640
       9        0.002902216573    -0.002790487550    -0.000036829958
      10        0.000005213356    -0.000007696338     0.000000691331
      11       -0.000973878698    -0.000129644931     0.003249842428
      12       -0.000006818367    -0.000013994437    -0.000012772603
      13       -0.000105896978    -0.000002781144     0.000077787790

  **** Optimization is complete! (in 9 steps) ****
    Final optimized geometry and variables:
    Molecular point group: c1

    Geometry (in Angstrom), charge = 0, multiplicity = 1:

    H           -3.939471096398     0.941083549763    -0.366320616132
    C           -3.245887318579     0.317003719194     0.162918355893
    C           -2.089114369619     0.016986544157    -0.380923718370
    H           -3.520059837513    -0.045050286629     1.135985605101
    O           -1.187379689370    -0.785658121940     0.242964575838
    H           -1.793082881640     0.375154462079    -1.350871860777
    C            0.031847184615    -1.005401227820    -0.374357393245
    C            1.055030988627     0.053828061182    -0.014312031091
    H           -0.038109610894    -1.063127910575    -1.454778125828
    H            0.412196078052    -1.952150634296    -0.018404191847
    F            0.554694661861     1.273418935134    -0.091272570284
    F            1.509503920731    -0.106170667302     1.215317059433
    F            2.089704253930    -0.023190656777    -0.836422177841

  Mulliken Charges: (a.u.)
   Center  Symbol    Alpha    Beta     Spin     Total
       1     H     0.40712  0.40712  0.00000  0.18576
       2     C     3.23680  3.23680  0.00000 -0.47359
       3     C     2.89303  2.89303  0.00000  0.21395
       4     H     0.40202  0.40202  0.00000  0.19596
       5     O     4.30078  4.30078  0.00000 -0.60156
       6     H     0.40698  0.40698  0.00000  0.18605
       7     C     3.06970  3.06970  0.00000 -0.13940
       8     C     2.45260  2.45260  0.00000  1.09480
       9     H     0.40473  0.40473  0.00000  0.19054
      10     H     0.38883  0.38883  0.00000  0.22235
      11     F     4.67771  4.67771  0.00000 -0.35541
      12     F     4.67731  4.67731  0.00000 -0.35462
      13     F     4.68241  4.68241  0.00000 -0.36482

   Total alpha = 32.00000, Total beta = 32.00000, Total charge = -0.00000
