                              Psi4 1.0.54 Driver

  ==> Input File <==

--------------------------------------------------------------------------
set {
	reference rhf
	basis cc-pvtz
}

set_num_threads( 4 )
memory 2 gb

molecule MOL {
0 1

H	 -2.598156	 -3.205683	 -0.760835
O	 -2.532969	 -2.271570	 -0.687493
C	 -1.241042	 -1.908326	 -0.278353
C	 -1.175688	 -0.398187	 -0.171891
H	 -1.005929	 -2.358149	 0.684016
H	 -0.501647	 -2.261461	 -0.994188
C	 0.196029	 0.106276	 0.266738
H	 -1.935295	 -0.070000	 0.530612
H	 -1.438674	 0.026060	 -1.135618
C	 1.330220	 -0.826136	 -0.155230
H	 0.359542	 1.097229	 -0.145561
H	 0.212134	 0.218135	 1.348778
C	 2.719700	 -0.407669	 0.328325
H	 1.339388	 -0.911200	 -1.239363
H	 1.119001	 -1.821953	 0.224128
C	 3.241564	 0.893452	 -0.276737
H	 3.418299	 -1.204729	 0.093035
H	 2.711776	 -0.323368	 1.411960
H	 3.254204	 0.841071	 -1.360784
H	 2.634460	 1.745075	 0.005842
H	 4.254264	 1.092401	 0.054971

	symmetry c1
}
set optking {
	frozen_dihedral = ("
		8 4 7 10
	")
}

ee,wfn = optimize('scf', return_wfn=True)
oeprop( wfn, 'DIPOLE', 'QUADRUPOLE', 'MULLIKEN_CHARGES')
f=open( 'psi4out.xyz', 'w' )
f.write( "21  " )
f.write( str(ee) + "\n" )
f.write( MOL.save_string_xyz() )
f.close()
--------------------------------------------------------------------------

    Molecular point group: c1
  Charge       = 0
  Multiplicity = 1
  Basis Set: CC-PVTZ
  Basis Set:
  @DF-RHF Final Energy:  -310.32346783744521
    Total Energy =                       -310.3234678374453779
    Molecular point group: c1
  Basis Set: CC-PVTZ
  Basis Set:
  Basis Set: CC-PVTZ
  Basis Set:
  @DF-RHF Final Energy:  -309.33458029170890
    Total Energy =                       -309.3345802917091305
  Basis Set: CC-PVTZ
  Basis Set:
  Basis Set: CC-PVTZ
  Basis Set:
  @DF-RHF Final Energy:  -309.55042047543378
    Total Energy =                       -309.5504204754338957
  Basis Set: CC-PVTZ
  Basis Set:
  Basis Set: CC-PVTZ
  Basis Set:
  @DF-RHF Final Energy:  -309.92474050474965
    Total Energy =                       -309.9247405047494794
  Basis Set: CC-PVTZ
  Basis Set:
  @DF-RHF Final Energy:  -310.19657400758626
    Total Energy =                       -310.1965740075866051
  @DF-RHF Final Energy:  -310.31091809440727
    Total Energy =                       -310.3109180944076115
  @DF-RHF Final Energy:  -309.56545807011923
    Total Energy =                       -309.5654580701188365
  @DF-RHF Final Energy:  -309.92152256785357
    Total Energy =                       -309.9215225678539127
  @DF-RHF Final Energy:  -310.17803628351407
    Total Energy =                       -310.1780362835140750
  @DF-RHF Final Energy:  -310.29854451428378
    Total Energy =                       -310.2985445142839467
  @DF-RHF Final Energy:  -310.31943936975750
    Total Energy =                       -310.3194393697577311
  @DF-RHF Final Energy:  -310.32249949069200
    Total Energy =                       -310.3224994906918255
  @DF-RHF Final Energy:  -310.32660753192494
    Total Energy =                       -310.3266075319253332
  Basis Set: CC-PVTZ
  Basis Set:
  @DF-RHF Final Energy:  -310.32670983480057
    Total Energy =                       -310.3267098348002264
  Basis Set: CC-PVTZ
  Basis Set:
  Basis Set: CC-PVTZ
  Basis Set:
  @DF-RHF Final Energy:  -310.32668107164488
    Total Energy =                       -310.3266810716447708
  Basis Set: CC-PVTZ
  Basis Set:
  Basis Set: CC-PVTZ
  Basis Set:
  @DF-RHF Final Energy:  -310.32673711558823
    Total Energy =                       -310.3267371155880028
  Basis Set: CC-PVTZ
  Basis Set:
  Charge       = 0
  Multiplicity = 1
  Basis Set: CC-PVTZ
  Basis Set:

    Orbital Energies (a.u.)
    -----------------------

    Doubly Occupied:

       1A    -20.544758     2A    -11.264027     3A    -11.214524
       4A    -11.213646     5A    -11.213061     6A    -11.209335
       7A    -11.206645     8A     -1.362569     9A     -1.086695
      10A     -1.031774    11A     -0.951817    12A     -0.886859
      13A     -0.814405    14A     -0.765582    15A     -0.699039
      16A     -0.658200    17A     -0.626204    18A     -0.609682
      19A     -0.580666    20A     -0.573770    21A     -0.537718
      22A     -0.530497    23A     -0.514261    24A     -0.485810
      25A     -0.483031    26A     -0.460640    27A     -0.452225
      28A     -0.442596    29A     -0.433938

  @DF-RHF Final Energy:  -310.32673771159887

   => Energetics <=

    Nuclear Repulsion Energy =            317.1151237586822162
    One-Electron Energy =               -1049.1757696324757489
    Two-Electron Energy =                 421.7339081621947798
    DFT Exchange-Correlation Energy =       0.0000000000000000
    Empirical Dispersion Energy =           0.0000000000000000
    PCM Polarization Energy =               0.0000000000000000
    EFP Energy =                            0.0000000000000000
    Total Energy =                       -310.3267377115987529
    Molecular point group: c1
  Basis Set: CC-PVTZ
  Basis Set:

  -Total Gradient:
     Atom            X                  Y                   Z
    ------   -----------------  -----------------  -----------------
       1       -0.000014525082    -0.000005278985     0.000016438482
       2        0.000042684095     0.000003605257    -0.000003314695
       3       -0.000101829508    -0.000020899068    -0.000016435181
       4       -0.000626850974     0.005484539299    -0.001842300787
       5        0.000016804872     0.000017785257    -0.000006778002
       6        0.000020451741    -0.000011785546     0.000002708819
       7       -0.004209536241     0.002693766758    -0.002189845183
       8        0.001690771805    -0.005439709860     0.002178962865
       9       -0.000011498390    -0.000008558889    -0.000009906834
      10        0.003178459438    -0.002736807656     0.001875071482
      11        0.000011295103     0.000003336411    -0.000011503324
      12       -0.000001778430    -0.000005737959    -0.000024297803
      13       -0.000014895018    -0.000038848125    -0.000003001036
      14        0.000000477530     0.000003072966    -0.000006312838
      15       -0.000007396964     0.000009451704     0.000024939592
      16        0.000047023272     0.000033285648     0.000020425497
      17       -0.000000190467     0.000028197400     0.000013117239
      18        0.000021352155    -0.000010045798    -0.000004294799
      19       -0.000019650116     0.000000816422    -0.000007815412
      20       -0.000023466044    -0.000011633669    -0.000006081320
      21        0.000002297223     0.000011448435     0.000000223239

  **** Optimization is complete! (in 17 steps) ****
    Final optimized geometry and variables:
    Molecular point group: c1

    Geometry (in Angstrom), charge = 0, multiplicity = 1:

    H           -0.899836291692    -0.278374706458     3.873016480953
    O           -0.585148366940     0.387854713892     3.290587592324
    C           -0.326083154653    -0.161842288602     2.024684095689
    C            0.131045176932     0.969900901258     1.119162612001
    H            0.449570116132    -0.921879076013     2.095284200953
    H           -1.219298437245    -0.638234794581     1.633125862243
    C            0.590300881031     0.547177545003    -0.288500210881
    H            0.964528128369     1.430792654658     1.636499258724
    H           -0.668886091622     1.698935737713     1.062692327526
    C           -0.105532070684    -0.673959257112    -0.894157211503
    H            0.486686905306     1.399540045599    -0.948347766600
    H            1.654435626714     0.327101350342    -0.252539652768
    C            0.388734333834    -1.038565992867    -2.296150588406
    H           -1.180735265859    -0.511080656485    -0.931212578514
    H            0.050840702212    -1.531344158913    -0.249126307106
    C            0.028032421842    -0.031128340153    -3.385289815456
    H           -0.029974715456    -2.003275950241    -2.565778595505
    H            1.467014814033    -1.173522710552    -2.271890002613
    H           -1.045180024076     0.124080460699    -3.431140211440
    H            0.494538890354     0.932322161763    -3.220744306501
    H            0.350879108527    -0.385776300021    -4.357458991147

  Mulliken Charges: (a.u.)
   Center  Symbol    Alpha    Beta     Spin     Total
       1     H     0.39732  0.39732  0.00000  0.20536
       2     O     4.19616  4.19616  0.00000 -0.39231
       3     C     2.96875  2.96875  0.00000  0.06250
       4     C     3.08739  3.08739  0.00000 -0.17478
       5     H     0.47305  0.47305  0.00000  0.05389
       6     H     0.47074  0.47074  0.00000  0.05852
       7     C     3.10774  3.10774  0.00000 -0.21549
       8     H     0.44747  0.44747  0.00000  0.10506
       9     H     0.44913  0.44913  0.00000  0.10174
      10     C     3.10324  3.10324  0.00000 -0.20647
      11     H     0.44610  0.44610  0.00000  0.10780
      12     H     0.45308  0.45308  0.00000  0.09383
      13     C     3.09038  3.09038  0.00000 -0.18076
      14     H     0.45255  0.45255  0.00000  0.09489
      15     H     0.44695  0.44695  0.00000  0.10611
      16     C     3.15153  3.15153  0.00000 -0.30306
      17     H     0.44853  0.44853  0.00000  0.10294
      18     H     0.45467  0.45467  0.00000  0.09066
      19     H     0.45496  0.45496  0.00000  0.09008
      20     H     0.45361  0.45361  0.00000  0.09279
      21     H     0.44666  0.44666  0.00000  0.10667

   Total alpha = 29.00000, Total beta = 29.00000, Total charge = -0.00000

*** Psi4 exiting successfully. Buy a developer a beer!
