  ==> Input File <==

--------------------------------------------------------------------------
set {
	reference rhf
	basis 6-31G*
}

set_num_threads( 4 )
memory 2 gb

molecule MOL {
0 1

O	 3.356557	 0.544600	 1.007330
C	 2.843464	 0.164689	 -0.000222
C	 1.546494	 -0.624492	 -0.000609
C	 3.459435	 0.448364	 -1.354941
C	 0.291004	 0.242674	 0.000989
H	 1.557904	 -1.283758	 -0.867573
H	 1.558622	 -1.285963	 0.864672
C	 -0.994322	 -0.586602	 0.000262
H	 0.309117	 0.896430	 -0.865270
H	 0.309661	 0.894078	 0.869017
C	 -2.259874	 0.272531	 0.000494
H	 -1.004862	 -1.240012	 -0.870939
H	 -1.005220	 -1.241071	 0.870675
C	 -3.549786	 -0.549746	 -0.000374
H	 -2.250389	 0.926680	 -0.869574
H	 -2.250838	 0.925513	 0.871430
C	 -4.809590	 0.315458	 -0.000369
H	 -3.560515	 -1.202009	 -0.871156
H	 -3.561123	 -1.202955	 0.869711
H	 -4.844746	 0.956611	 -0.876632
H	 -5.706986	 -0.295590	 -0.001609
H	 -4.845960	 0.954827	 0.877144
H	 2.767315	 1.009537	 -1.975968
H	 4.372071	 1.014212	 -1.229462
H	 3.677364	 -0.480563	 -1.873820

	symmetry c1
}
set optking {
	frozen_dihedral = ("
		1 2 3 6
	")
}

ee = optimize('scf')
oeprop('DIPOLE', 'QUADRUPOLE', 'MULLIKEN_CHARGES')
f=open( 'psi4out.xyz', 'w' )
f.write( "25  " )
f.write( str(ee) + "\n" )
f.write( MOL.save_string_xyz() )
f.close()
--------------------------------------------------------------------------

    Molecular point group: c1
  Charge       = 0
  Multiplicity = 1
  Basis Set: 6-31G*
  Basis Set:
  @DF-RHF Final Energy:  -387.13360425584244
    Total Energy =                       -387.1336042558424424
    Molecular point group: c1
  Basis Set: 6-31G*
  Basis Set:
  Basis Set: 6-31G*
  Basis Set:
  @DF-RHF Final Energy:  -387.13417557844633
    Total Energy =                       -387.1341755784466159
  Basis Set: 6-31G*
  Basis Set:
  Basis Set: 6-31G*
  Basis Set:
  @DF-RHF Final Energy:  -387.13182344468657
    Total Energy =                       -387.1318234446865745
  Basis Set: 6-31G*
  Basis Set:
  Basis Set: 6-31G*
  Basis Set:
  @DF-RHF Final Energy:  -387.13449811743158
    Total Energy =                       -387.1344981174319173
  Basis Set: 6-31G*
  Basis Set:
  @DF-RHF Final Energy:  -387.13453884957130
    Total Energy =                       -387.1345388495714133
  Basis Set: 6-31G*
  Basis Set:
  @DF-RHF Final Energy:  -387.13454500465167
    Total Energy =                       -387.1345450046508176
  Basis Set: 6-31G*
  Basis Set:
  Basis Set: 6-31G*
  Basis Set:
  @DF-RHF Final Energy:  -387.13454745786481
    Total Energy =                       -387.1345474578643007
  Basis Set: 6-31G*
  Basis Set:
  Basis Set: 6-31G*
  Basis Set:
  @DF-RHF Final Energy:  -387.13454891320680
    Total Energy =                       -387.1345489132067996
  Basis Set: 6-31G*
  Basis Set:
  Charge       = 0
  Multiplicity = 1
  Basis Set: 6-31G*
  Basis Set:

    Orbital Energies (a.u.)
    -----------------------

    Doubly Occupied:

       1A    -20.547289     2A    -11.324140     3A    -11.230993
       4A    -11.229025     5A    -11.227845     6A    -11.222696
       7A    -11.219095     8A    -11.218481     9A    -11.211287
      10A     -1.392882    11A     -1.099509    12A     -1.059628
      13A     -1.012588    14A     -0.970849    15A     -0.894485
      16A     -0.818509    17A     -0.795997    18A     -0.732541
      19A     -0.668074    20A     -0.647069    21A     -0.638135
      22A     -0.609444    23A     -0.605523    24A     -0.587633
      25A     -0.567820    26A     -0.557402    27A     -0.541903
      28A     -0.539932    29A     -0.509261    30A     -0.500387
      31A     -0.488757    32A     -0.477788    33A     -0.468440
      34A     -0.467360    35A     -0.453293    36A     -0.395539

  @DF-RHF Final Energy:  -387.13454904364562

   => Energetics <=

    Nuclear Repulsion Energy =            438.9922182870401457
    One-Electron Energy =               -1394.3903297494912294
    Two-Electron Energy =                 568.2635624188055772
    DFT Exchange-Correlation Energy =       0.0000000000000000
    Empirical Dispersion Energy =           0.0000000000000000
    PCM Polarization Energy =               0.0000000000000000
    EFP Energy =                            0.0000000000000000
    Total Energy =                       -387.1345490436455066
    Molecular point group: c1
  Basis Set: 6-31G*
  Basis Set:

  -Total Gradient:
     Atom            X                  Y                   Z
    ------   -----------------  -----------------  -----------------
       1        0.000102657123    -0.000239469194    -0.000008527539
       2       -0.000159109947     0.000271196210     0.000010036547
       3       -0.000077833332     0.000134018176    -0.000117230160
       4        0.000003766714     0.000003817089    -0.000006763665
       5       -0.000013809701     0.000017106547    -0.000024675215
       6        0.000125514020    -0.000148293394     0.000140146345
       7       -0.000006417980    -0.000023036352     0.000015914512
       8        0.000008058322    -0.000011845055    -0.000012904119
       9        0.000003985873     0.000006943014    -0.000009160989
      10        0.000007308858    -0.000002184456    -0.000000155706
      11        0.000006418739     0.000004971864     0.000014456696
      12       -0.000011226330    -0.000006407193    -0.000002630867
      13        0.000001040959    -0.000001047916     0.000000514903
      14        0.000004788071    -0.000005048800     0.000003162784
      15        0.000000603249     0.000002313307     0.000005921608
      16       -0.000000901587    -0.000001284745     0.000007427769
      17        0.000003159001     0.000002833432    -0.000011278859
      18        0.000001975105    -0.000005077082     0.000002893737
      19       -0.000001472890     0.000005206336     0.000002278403
      20       -0.000001787281     0.000003143465     0.000000063982
      21        0.000001460846    -0.000000950779    -0.000002966219
      22        0.000001282011    -0.000003003862     0.000000135022
      23       -0.000003633550     0.000001044519    -0.000005267254
      24        0.000001493703    -0.000000590874    -0.000002347231
      25        0.000002679992    -0.000004354259     0.000000955515

  **** Optimization is complete! (in 9 steps) ****
    Final optimized geometry and variables:
    Molecular point group: c1

    Geometry (in Angstrom), charge = 0, multiplicity = 1:

    O            3.331516204681     0.486632174474     1.066268503956
    C            2.848575020158     0.118389123259     0.039001801734
    C            1.580407206448    -0.715638904256     0.025076084669
    C            3.462920538430     0.474168863118    -1.297497862241
    C            0.328967103990     0.177016516779     0.013828877423
    H            1.571716081926    -1.374479350683    -0.839181336355
    H            1.581643208731    -1.328953187844     0.918906719872
    C           -0.968905448918    -0.632133845231     0.030786099520
    H            0.340711794998     0.818310862861    -0.865289416232
    H            0.363733398406     0.833470402744     0.878488542379
    C           -2.221648206639     0.245609967079     0.032788058954
    H           -0.992980320131    -1.293485811184    -0.833571251920
    H           -0.977478497337    -1.275241739550     0.908522105113
    C           -3.522395582062    -0.559355976384     0.052213622437
    H           -2.211994142985     0.890153954011    -0.844709850315
    H           -2.195945932862     0.907132328149     0.896830824388
    C           -4.770145650351     0.323049978751     0.051939200723
    H           -3.548875854205    -1.221814989406    -0.810428633895
    H           -3.534908487496    -1.201429156599     0.930276151151
    H           -4.804467638208     0.953580881554    -0.832070324048
    H           -5.675365522953    -0.275959105686     0.065944187846
    H           -4.790457539491     0.973472623694     0.921749994607
    H            2.715057161183     0.865211620482    -1.980430692354
    H            4.250889761016     1.201361080892    -1.159233259105
    H            3.877897167603    -0.420809468605    -1.753892853860

  Mulliken Charges: (a.u.)
   Center  Symbol    Alpha    Beta     Spin     Total
       1     O     4.26155  4.26155  0.00000 -0.52309
       2     C     2.73728  2.73728  0.00000  0.52545
       3     C     3.20017  3.20017  0.00000 -0.40035
       4     C     3.28959  3.28959  0.00000 -0.57918
       5     C     3.16306  3.16306  0.00000 -0.32613
       6     H     0.41671  0.41671  0.00000  0.16657
       7     H     0.40074  0.40074  0.00000  0.19852
       8     C     3.15184  3.15184  0.00000 -0.30369
       9     H     0.42047  0.42047  0.00000  0.15905
      10     H     0.40740  0.40740  0.00000  0.18520
      11     C     3.15169  3.15169  0.00000 -0.30338
      12     H     0.42301  0.42301  0.00000  0.15397
      13     H     0.41979  0.41979  0.00000  0.16043
      14     C     3.15194  3.15194  0.00000 -0.30388
      15     H     0.42379  0.42379  0.00000  0.15241
      16     H     0.42146  0.42146  0.00000  0.15708
      17     C     3.23955  3.23955  0.00000 -0.47910
      18     H     0.42308  0.42308  0.00000  0.15384
      19     H     0.42205  0.42205  0.00000  0.15591
      20     H     0.42169  0.42169  0.00000  0.15662
      21     H     0.41867  0.41867  0.00000  0.16265
      22     H     0.42091  0.42091  0.00000  0.15817
      23     H     0.41004  0.41004  0.00000  0.17992
      24     H     0.39699  0.39699  0.00000  0.20603
      25     H     0.40652  0.40652  0.00000  0.18696

   Total alpha = 36.00000, Total beta = 36.00000, Total charge = -0.00000
