  ==> Input File <==

--------------------------------------------------------------------------
set {
	reference rhf
	basis 6-31G*
}

set_num_threads( 4 )
memory 2 gb

molecule MOL {
0 1

H	 -3.261111	 -0.295142	 1.469456
C	 -3.306842	 -0.277400	 0.373456
C	 -2.660244	 0.921717	 -0.272021
O	 -3.838538	 -1.161155	 -0.216482
C	 -3.625435	 1.690815	 -1.184792
H	 -2.259727	 1.556645	 0.509747
H	 -1.823588	 0.553660	 -0.864639
C	 -4.770741	 2.369000	 -0.428724
H	 -3.059489	 2.440241	 -1.730091
H	 -4.030937	 1.013155	 -1.934526
C	 -5.717929	 3.141018	 -1.349397
H	 -4.354826	 3.045960	 0.314638
H	 -5.338229	 1.624604	 0.126588
C	 -6.852919	 3.831272	 -0.588281
H	 -5.144162	 3.875623	 -1.908754
H	 -6.141781	 2.458443	 -2.084805
C	 -7.874911	 4.549333	 -1.477094
H	 -6.431107	 4.542561	 0.120124
H	 -7.376590	 3.085857	 0.006562
C	 -7.319338	 5.753313	 -2.239585
H	 -8.698578	 4.883826	 -0.851285
H	 -8.300232	 3.839044	 -2.183149
H	 -6.872537	 6.473652	 -1.559329
H	 -6.561290	 5.463910	 -2.959713
H	 -8.108849	 6.261016	 -2.785391

	symmetry c1
}
set optking {
	frozen_dihedral = ("
		6 3 2 4
	")
}

ee = optimize('scf')
oeprop('DIPOLE', 'QUADRUPOLE', 'MULLIKEN_CHARGES')
f=open( 'psi4out.xyz', 'w' )
f.write( "25  " )
f.write( str(ee) + "\n" )
f.write( MOL.save_string_xyz() )
f.close()
--------------------------------------------------------------------------

    Molecular point group: c1
  Charge       = 0
  Multiplicity = 1
  Basis Set: 6-31G*
  Basis Set:
  @DF-RHF Final Energy:  -387.12029570866332
    Total Energy =                       -387.1202957086634342
    Molecular point group: c1
  Basis Set: 6-31G*
  Basis Set:
  Basis Set: 6-31G*
  Basis Set:
  @DF-RHF Final Energy:  -387.12029241590926
    Total Energy =                       -387.1202924159088070
  Basis Set: 6-31G*
  Basis Set:
  Basis Set: 6-31G*
  Basis Set:
  @DF-RHF Final Energy:  -387.11991098815594
    Total Energy =                       -387.1199109881556524
  Basis Set: 6-31G*
  Basis Set:
  Basis Set: 6-31G*
  Basis Set:
  @DF-RHF Final Energy:  -387.12067858969795
    Total Energy =                       -387.1206785896980591
  Basis Set: 6-31G*
  Basis Set:
  @DF-RHF Final Energy:  -387.12067415983995
    Total Energy =                       -387.1206741598405188
  Basis Set: 6-31G*
  Basis Set:
  @DF-RHF Final Energy:  -387.12067905108637
    Total Energy =                       -387.1206790510861993
  Basis Set: 6-31G*
  Basis Set:
  Basis Set: 6-31G*
  Basis Set:
  @DF-RHF Final Energy:  -387.12067933605101
    Total Energy =                       -387.1206793360507845
  Basis Set: 6-31G*
  Basis Set:
  Basis Set: 6-31G*
  Basis Set:
  @DF-RHF Final Energy:  -387.12068113175917
    Total Energy =                       -387.1206811317590564
  Basis Set: 6-31G*
  Basis Set:
  Charge       = 0
  Multiplicity = 1
  Basis Set: 6-31G*
  Basis Set:

    Orbital Energies (a.u.)
    -----------------------

    Doubly Occupied:

       1A    -20.562311     2A    -11.327316     3A    -11.234696
       4A    -11.227685     5A    -11.221302     6A    -11.216695
       7A    -11.216322     8A    -11.215297     9A    -11.209215
      10A     -1.402776    11A     -1.099443    12A     -1.065842
      13A     -1.010618    14A     -0.941428    15A     -0.876456
      16A     -0.822861    17A     -0.780057    18A     -0.768079
      19A     -0.686499    20A     -0.650269    21A     -0.630519
      22A     -0.622674    23A     -0.598390    24A     -0.593113
      25A     -0.574702    26A     -0.547346    27A     -0.533229
      28A     -0.523513    29A     -0.503528    30A     -0.493200
      31A     -0.488049    32A     -0.475977    33A     -0.462479
      34A     -0.456754    35A     -0.438584    36A     -0.409519

  @DF-RHF Final Energy:  -387.12068175473803

   => Energetics <=

    Nuclear Repulsion Energy =            441.4143983149946280
    One-Electron Energy =               -1399.2966716562063993
    Two-Electron Energy =                 570.7615915864737417
    DFT Exchange-Correlation Energy =       0.0000000000000000
    Empirical Dispersion Energy =           0.0000000000000000
    PCM Polarization Energy =               0.0000000000000000
    EFP Energy =                            0.0000000000000000
    Total Energy =                       -387.1206817547380297
    Molecular point group: c1
  Basis Set: 6-31G*
  Basis Set:

  -Total Gradient:
     Atom            X                  Y                   Z
    ------   -----------------  -----------------  -----------------
       1       -0.000004581945    -0.000030663549     0.000020235058
       2       -0.001540020283     0.000811141342     0.000086988041
       3       -0.000929308749     0.000536333134     0.000048603800
       4        0.001264850055    -0.000688652984    -0.000059873347
       5       -0.000005594972     0.000009394354    -0.000003913583
       6        0.001205958813    -0.000662902074    -0.000097641394
       7       -0.000005677756     0.000025334744    -0.000007832100
       8        0.000000288345    -0.000000153626    -0.000003215576
       9        0.000006943187     0.000005942487     0.000001840285
      10       -0.000002054824    -0.000013218898     0.000017283531
      11       -0.000001297820    -0.000017726842    -0.000000477643
      12        0.000015350286     0.000010241896     0.000000882739
      13       -0.000005149127     0.000000306733    -0.000005311418
      14        0.000004319032     0.000011884325    -0.000000537395
      15       -0.000002740023    -0.000002394127     0.000020265957
      16        0.000007547226     0.000000520265    -0.000013227862
      17        0.000002520790    -0.000013208474    -0.000011199378
      18       -0.000003837969     0.000004880447     0.000004724514
      19        0.000003904000    -0.000000744262    -0.000004836891
      20       -0.000003041744     0.000004705388    -0.000001008984
      21        0.000005786535     0.000004713480     0.000001897869
      22       -0.000006201352    -0.000001245141     0.000002298412
      23       -0.000000861678     0.000003883088     0.000000402088
      24       -0.000008220744     0.000002515219     0.000004383247
      25        0.000001120714    -0.000000886927    -0.000000729972

  **** Optimization is complete! (in 9 steps) ****
    Final optimized geometry and variables:
    Molecular point group: c1

    Geometry (in Angstrom), charge = 0, multiplicity = 1:

    H            1.887409416857    -2.667899507807     2.302526395809
    C            1.817058655222    -2.601655175493     1.211797548750
    C            2.452520562470    -1.393059984405     0.556198288984
    O            1.281469258596    -3.467702749496     0.597850394659
    C            1.483121220648    -0.627258319868    -0.353802021030
    H            2.876366234035    -0.743609102820     1.316421606113
    H            3.282964860346    -1.767310623426    -0.037988944164
    C            0.342356104178     0.057706470687     0.402578428951
    H            2.048328414472     0.118487571542    -0.906334415578
    H            1.077716362763    -1.320521039478    -1.083229174038
    C           -0.599496284129     0.834961023530    -0.519299493663
    H            0.758427485154     0.735361698704     1.146700537834
    H           -0.231835306169    -0.687152414365     0.950271334832
    C           -1.739881223384     1.520919444816     0.237657568523
    H           -0.022631424730     1.572178785221    -1.072006271787
    H           -1.017665942461     0.154355365105    -1.258882369105
    C           -2.761346238450     2.235683694141    -0.654412092262
    H           -1.323653785818     2.234238030541     0.947597406996
    H           -2.263269898031     0.773428029640     0.830181351291
    C           -2.206612568573     3.439880498118    -1.417599434095
    H           -3.587812207770     2.568745474847    -0.031471406844
    H           -3.182440587461     1.522887947860    -1.360387881711
    H           -1.767203563438     4.164538576383    -0.737160926407
    H           -1.443133407498     3.151738598151    -2.132546363764
    H           -2.995006161381     3.942401381637    -1.969457950600

  Mulliken Charges: (a.u.)
   Center  Symbol    Alpha    Beta     Spin     Total
       1     H     0.42593  0.42593  0.00000  0.14814
       2     C     2.84462  2.84462  0.00000  0.31076
       3     C     3.20387  3.20387  0.00000 -0.40774
       4     O     4.23770  4.23770  0.00000 -0.47541
       5     C     3.15658  3.15658  0.00000 -0.31316
       6     H     0.41630  0.41630  0.00000  0.16740
       7     H     0.39922  0.39922  0.00000  0.20157
       8     C     3.15700  3.15700  0.00000 -0.31400
       9     H     0.41722  0.41722  0.00000  0.16556
      10     H     0.40469  0.40469  0.00000  0.19062
      11     C     3.15429  3.15429  0.00000 -0.30858
      12     H     0.42415  0.42415  0.00000  0.15170
      13     H     0.41904  0.41904  0.00000  0.16192
      14     C     3.15298  3.15298  0.00000 -0.30596
      15     H     0.42140  0.42140  0.00000  0.15720
      16     H     0.42057  0.42057  0.00000  0.15886
      17     C     3.15264  3.15264  0.00000 -0.30529
      18     H     0.42478  0.42478  0.00000  0.15045
      19     H     0.42114  0.42114  0.00000  0.15771
      20     C     3.24132  3.24132  0.00000 -0.48264
      21     H     0.42067  0.42067  0.00000  0.15866
      22     H     0.42230  0.42230  0.00000  0.15539
      23     H     0.42262  0.42262  0.00000  0.15477
      24     H     0.42014  0.42014  0.00000  0.15972
      25     H     0.41882  0.41882  0.00000  0.16236

   Total alpha = 36.00000, Total beta = 36.00000, Total charge =  0.00000
