  ==> Input File <==

--------------------------------------------------------------------------
set {
	reference rhf
	basis 6-31G*
}

set_num_threads( 4 )
memory 2 gb

molecule MOL {
0 1

H	 1.843055	 0.069849	 -1.064089
C	 1.049282	 -0.484033	 -0.605803
C	 1.042359	 -1.867295	 -0.601806
C	 0.000000	 0.183220	 0.000000
H	 1.848008	 -2.404452	 -1.066948
C	 0.000000	 -2.555744	 0.000000
N	 0.000000	 1.642018	 0.000000
C	 -1.049282	 -0.484034	 0.605803
H	 0.000000	 -3.630640	 0.000000
C	 -1.042359	 -1.867295	 0.601806
O	 1.057097	 2.196749	 0.000000
O	 -1.057097	 2.196749	 0.000000
H	 -1.843055	 0.069849	 1.064089
H	 -1.848008	 -2.404452	 1.066948

	symmetry c1
}
set optking {
	frozen_dihedral = ("
		2 4 7 11
	")
}

ee = optimize('scf')
oeprop('DIPOLE', 'QUADRUPOLE', 'MULLIKEN_CHARGES')
f=open( 'psi4out.xyz', 'w' )
f.write( "14  " )
f.write( str(ee) + "\n" )
f.write( MOL.save_string_xyz() )
f.close()
--------------------------------------------------------------------------

    Molecular point group: c1
  Charge       = 0
  Multiplicity = 1
  Basis Set: 6-31G*
  Basis Set:
  @DF-RHF Final Energy:  -434.17239041048555
    Total Energy =                       -434.1723904104853773
    Molecular point group: c1
  Basis Set: 6-31G*
  Basis Set:
  Basis Set: 6-31G*
  Basis Set:
  @DF-RHF Final Energy:  -434.16531784428452
    Total Energy =                       -434.1653178442843455
  Basis Set: 6-31G*
  Basis Set:
  Basis Set: 6-31G*
  Basis Set:
  @DF-RHF Final Energy:  -434.17240652599361
    Total Energy =                       -434.1724065259936651
  Basis Set: 6-31G*
  Basis Set:
  Basis Set: 6-31G*
  Basis Set:
  @DF-RHF Final Energy:  -434.17260328153156
    Total Energy =                       -434.1726032815319058
  Basis Set: 6-31G*
  Basis Set:
  Basis Set: 6-31G*
  Basis Set:
  @DF-RHF Final Energy:  -434.17260411109481
    Total Energy =                       -434.1726041110948699
  Basis Set: 6-31G*
  Basis Set:
  Charge       = 0
  Multiplicity = 1
  Basis Set: 6-31G*
  Basis Set:

    Orbital Energies (a.u.)
    -----------------------

    Doubly Occupied:

       1A    -20.602307     2A    -20.602219     3A    -15.855390
       4A    -11.304698     5A    -11.271267     6A    -11.271101
       7A    -11.267286     8A    -11.261742     9A    -11.261601
      10A     -1.634679    11A     -1.418259    12A     -1.202052
      13A     -1.094936    14A     -1.053172    15A     -0.957961
      16A     -0.866580    17A     -0.825488    18A     -0.783127
      19A     -0.733314    20A     -0.728898    21A     -0.710873
      22A     -0.652985    23A     -0.649899    24A     -0.624492
      25A     -0.554864    26A     -0.538473    27A     -0.530264
      28A     -0.489145    29A     -0.488181    30A     -0.450826
      31A     -0.372463    32A     -0.366006

  @DF-RHF Final Energy:  -434.17260587163457

   => Energetics <=

    Nuclear Repulsion Energy =            417.1132639011501624
    One-Electron Energy =               -1417.7226412606573831
    Two-Electron Energy =                 566.4367714878725337
    DFT Exchange-Correlation Energy =       0.0000000000000000
    Empirical Dispersion Energy =           0.0000000000000000
    PCM Polarization Energy =               0.0000000000000000
    EFP Energy =                            0.0000000000000000
    Total Energy =                       -434.1726058716346870
    Molecular point group: c1
  Basis Set: 6-31G*
  Basis Set:

  -Total Gradient:
     Atom            X                  Y                   Z
    ------   -----------------  -----------------  -----------------
       1        0.000000650044    -0.000001872157     0.000001838957
       2       -0.001633457793    -0.000074301901    -0.002737678570
       3        0.000010861547     0.000013064246     0.000004214235
       4        0.002377945256     0.000117362844     0.005342802834
       5       -0.000000425113     0.000000028737    -0.000001139626
       6       -0.000009796156    -0.000000726123     0.000011890325
       7       -0.000807454387    -0.000125661614    -0.006247850656
       8        0.000015234514     0.000007674246     0.000004203290
       9        0.000001027031     0.000000569346    -0.000001733478
      10        0.000000086643    -0.000011156914    -0.000015996625
      11        0.000068421823     0.000065007120     0.003637396813
      12       -0.000022621211     0.000008753077    -0.000000702828
      13       -0.000000451813    -0.000001822466     0.000000696977
      14       -0.000000020383     0.000003081556     0.000002058352

  **** Optimization is complete! (in 6 steps) ****
    Final optimized geometry and variables:
    Molecular point group: c1

    Geometry (in Angstrom), charge = 0, multiplicity = 1:

    H            1.853493805995     0.074259713877    -1.046256037789
    C            1.055098049624    -0.481301484056    -0.595993467607
    C            1.041109491364    -1.864801061542    -0.604220364609
    C            0.009972293305     0.183243769130     0.016796619689
    H            1.840309708546    -2.402288326205    -1.079912965026
    C           -0.000668830165    -2.552478563147    -0.000377496248
    N           -0.000914794458     1.639686313152    -0.008051625706
    C           -1.051206121461    -0.480285843560     0.602666041679
    H           -0.003385241052    -3.627343228616    -0.004140938096
    C           -1.041543780104    -1.863774115327     0.604224278581
    O            1.054311334484     2.197686171045    -0.035329361463
    O           -1.062388484805     2.184816994700     0.026110436697
    H           -1.854004114108     0.075372273843     1.044548418724
    H           -1.847457709768    -2.400847699183     1.068949166728

  Mulliken Charges: (a.u.)
   Center  Symbol    Alpha    Beta     Spin     Total
       1     H     0.36769  0.36769  0.00000  0.26461
       2     C     3.08605  3.08605  0.00000 -0.17210
       3     C     3.10786  3.10786  0.00000 -0.21573
       4     C     2.91421  2.91421  0.00000  0.17158
       5     H     0.38846  0.38846  0.00000  0.22308
       6     C     3.08740  3.08740  0.00000 -0.17480
       7     N     3.24991  3.24991  0.00000  0.50017
       8     C     3.08477  3.08477  0.00000 -0.16954
       9     H     0.38913  0.38913  0.00000  0.22174
      10     C     3.10806  3.10806  0.00000 -0.21611
      11     O     4.22961  4.22961  0.00000 -0.45922
      12     O     4.23079  4.23079  0.00000 -0.46157
      13     H     0.36762  0.36762  0.00000  0.26477
      14     H     0.38845  0.38845  0.00000  0.22311

   Total alpha = 32.00000, Total beta = 32.00000, Total charge =  0.00000
