                              Psi4 1.0.54 Driver

  ==> Input File <==

--------------------------------------------------------------------------
set {
	reference rhf
	basis cc-pvtz
}

set_num_threads( 4 )
memory 2 gb

molecule MOL {
0 1

O	 -3.631118	 -0.346189	 -0.488200
C	 -2.664672	 0.129869	 0.003507
C	 -2.654652	 1.459386	 0.708183
O	 -1.481217	 -0.452708	 0.001092
H	 -3.368442	 1.423852	 1.520169
H	 -1.676294	 1.706935	 1.087886
H	 -2.984733	 2.219493	 0.012943
C	 -0.332055	 0.384012	 -0.000250
C	 0.892252	 -0.506059	 -0.000295
H	 -0.360822	 1.020205	 -0.874146
H	 -0.359817	 1.021310	 0.872861
C	 2.188199	 0.299473	 -0.001416
H	 0.857046	 -1.152781	 -0.871031
H	 0.857910	 -1.151798	 0.871202
C	 3.437151	 -0.577593	 -0.000991
H	 2.209565	 0.950707	 -0.871712
H	 2.210062	 0.952234	 0.867721
C	 4.732399	 0.226982	 -0.000914
H	 3.417321	 -1.229122	 -0.869998
H	 3.416993	 -1.228707	 0.868337
H	 4.797903	 0.863451	 -0.876963
H	 5.598517	 -0.424436	 -0.000420
H	 4.797415	 0.864118	 0.874691

	symmetry c1
}
set optking {
	frozen_dihedral = ("
		1 2 4 8
	")
}

ee,wfn = optimize('scf', return_wfn=True)
oeprop( wfn, 'DIPOLE', 'QUADRUPOLE', 'MULLIKEN_CHARGES')
f=open( 'psi4out.xyz', 'w' )
f.write( "23  " )
f.write( str(ee) + "\n" )
f.write( MOL.save_string_xyz() )
f.close()
--------------------------------------------------------------------------

    Molecular point group: c1
  Charge       = 0
  Multiplicity = 1
  Basis Set: CC-PVTZ
  Basis Set:
  @DF-RHF Final Energy:  -423.10422758632762
    Total Energy =                       -423.1042275863278519
    Molecular point group: c1
  Basis Set: CC-PVTZ
  Basis Set:
  Basis Set: CC-PVTZ
  Basis Set:
  @DF-RHF Final Energy:  -423.05705382371070
    Total Energy =                       -423.0570538237103619
  Basis Set: CC-PVTZ
  Basis Set:
  Basis Set: CC-PVTZ
  Basis Set:
  @DF-RHF Final Energy:  -423.10710890325868
    Total Energy =                       -423.1071089032591317
  Basis Set: CC-PVTZ
  Basis Set:
  Basis Set: CC-PVTZ
  Basis Set:
  @DF-RHF Final Energy:  -423.11644948345929
    Total Energy =                       -423.1164494834598599
  Basis Set: CC-PVTZ
  Basis Set:
  @DF-RHF Final Energy:  -423.11691055494168
    Total Energy =                       -423.1169105549417964
  @DF-RHF Final Energy:  -423.11845984182742
    Total Energy =                       -423.1184598418276437
  @DF-RHF Final Energy:  -423.11863007034924
    Total Energy =                       -423.1186300703494680
  @DF-RHF Final Energy:  -423.11878272146021
    Total Energy =                       -423.1187827214603203
  @DF-RHF Final Energy:  -423.11858083650191
    Total Energy =                       -423.1185808365023604
  @DF-RHF Final Energy:  -423.11902389413723
    Total Energy =                       -423.1190238941373991
  @DF-RHF Final Energy:  -423.11947109298018
    Total Energy =                       -423.1194710929801204
  @DF-RHF Final Energy:  -423.11936819642000
    Total Energy =                       -423.1193681964200550
  @DF-RHF Final Energy:  -423.12042118105973
    Total Energy =                       -423.1204211810595552
  @DF-RHF Final Energy:  -423.12011932085892
    Total Energy =                       -423.1201193208588620
  Basis Set: CC-PVTZ
  Basis Set:
  @DF-RHF Final Energy:  -423.12054374109783
    Total Energy =                       -423.1205437410974355
  Basis Set: CC-PVTZ
  Basis Set:
  Basis Set: CC-PVTZ
  Basis Set:
  @DF-RHF Final Energy:  -423.12057030902884
    Total Energy =                       -423.1205703090289489
  Basis Set: CC-PVTZ
  Basis Set:
  Basis Set: CC-PVTZ
  Basis Set:
  @DF-RHF Final Energy:  -423.12057862177181
    Total Energy =                       -423.1205786217716422
  Basis Set: CC-PVTZ
  Basis Set:
  Charge       = 0
  Multiplicity = 1
  Basis Set: CC-PVTZ
  Basis Set:

    Orbital Energies (a.u.)
    -----------------------

    Doubly Occupied:

       1A    -20.588540     2A    -20.530370     3A    -11.367811
       4A    -11.293836     5A    -11.239165     6A    -11.227077
       7A    -11.226456     8A    -11.222867     9A    -11.214111
      10A     -1.463439    11A     -1.367476    12A     -1.098583
      13A     -1.037231    14A     -1.015171    15A     -0.943245
      16A     -0.848258    17A     -0.807697    18A     -0.779376
      19A     -0.701243    20A     -0.695971    21A     -0.662771
      22A     -0.651568    23A     -0.614273    24A     -0.595957
      25A     -0.582504    26A     -0.575071    27A     -0.569597
      28A     -0.543924    29A     -0.528336    30A     -0.504812
      31A     -0.498344    32A     -0.482574    33A     -0.475756
      34A     -0.474628    35A     -0.449787    36A     -0.433658

  @DF-RHF Final Energy:  -423.12059113261250

   => Energetics <=

    Nuclear Repulsion Energy =            450.4087611209627084
    One-Electron Energy =               -1468.4357396655079810
    Two-Electron Energy =                 594.9063874119327693
    DFT Exchange-Correlation Energy =       0.0000000000000000
    Empirical Dispersion Energy =           0.0000000000000000
    PCM Polarization Energy =               0.0000000000000000
    EFP Energy =                            0.0000000000000000
    Total Energy =                       -423.1205911326125033
    Molecular point group: c1
  Basis Set: CC-PVTZ
  Basis Set:

  -Total Gradient:
     Atom            X                  Y                   Z
    ------   -----------------  -----------------  -----------------
       1        0.000560845571     0.001982092314    -0.002396097732
       2       -0.000907262240    -0.002531760709     0.001941423359
       3        0.000059595653    -0.000050501124    -0.000023936577
       4        0.000316356981    -0.000029481806     0.003061330074
       5       -0.000085578627     0.000012303184    -0.000005265227
       6        0.000030587403    -0.000014545434     0.000083987495
       7        0.000027707560     0.000066536918    -0.000033963747
       8        0.000006987646     0.000592075399    -0.002609667482
       9        0.000004004113    -0.000012207375    -0.000003381431
      10       -0.000009496235    -0.000001386754    -0.000003670545
      11        0.000000616441    -0.000013020865    -0.000013200774
      12       -0.000006392036     0.000009326802    -0.000000669760
      13       -0.000000663288     0.000001903611     0.000001279954
      14        0.000003054357     0.000000759807     0.000001164911
      15        0.000001356483    -0.000010522486     0.000003908433
      16       -0.000001227757    -0.000002834659     0.000002084234
      17       -0.000002004715    -0.000002321604    -0.000003819527
      18       -0.000005558061     0.000003294344     0.000000523579
      19        0.000002052992     0.000004259188     0.000005253574
      20        0.000003590737     0.000002900010    -0.000003063013
      21        0.000000411828    -0.000003271876     0.000001982409
      22        0.000002373584    -0.000000321009    -0.000000609293
      23       -0.000001358396    -0.000003275879    -0.000005592914

  **** Optimization is complete! (in 18 steps) ****
    Final optimized geometry and variables:
    Molecular point group: c1

    Geometry (in Angstrom), charge = 0, multiplicity = 1:

    O           -3.572004974702    -0.585758869952    -0.569819422479
    C           -2.716940800402    -0.076195838549     0.060645937367
    C           -2.972532229044     1.065432158625     1.013494776604
    O           -1.466053734400    -0.525273062770    -0.036402260513
    H           -4.035899452779     1.228549533550     1.070421020047
    H           -2.581386426766     0.835374791969     1.996611975930
    H           -2.491369726045     1.971453088724     0.666712164874
    C           -0.348106749250     0.320752704110     0.142591306872
    C            0.896792127402    -0.485408398836    -0.164243090924
    H           -0.423581560421     1.169592918121    -0.528328684861
    H           -0.314050869654     0.693311228375     1.159757736762
    C            2.173165316374     0.335078315912    -0.005059947087
    H            0.820138453675    -0.867516153621    -1.176023273772
    H            0.921196264069    -1.346755500488     0.494743182493
    C            3.436887458633    -0.463637010068    -0.312272213737
    H            2.132259421586     1.202402209948    -0.659884703785
    H            2.234053791422     0.721528974388     1.009739020974
    C            4.713770371408     0.354554720916    -0.154526267166
    H            3.378189446831    -0.849521260019    -1.325819932288
    H            3.480123563097    -1.330009285839     0.341455152587
    H            4.715609532072     1.210350554526    -0.821330492609
    H            5.590523038347    -0.241184713897    -0.379715965340
    H            4.818326565217     0.726270426792     0.859372917303

  Mulliken Charges: (a.u.)
   Center  Symbol    Alpha    Beta     Spin     Total
       1     O     4.17779  4.17779  0.00000 -0.35559
       2     C     2.82052  2.82052  0.00000  0.35895
       3     C     3.16692  3.16692  0.00000 -0.33384
       4     O     4.13280  4.13280  0.00000 -0.26560
       5     H     0.42694  0.42694  0.00000  0.14613
       6     H     0.44406  0.44406  0.00000  0.11188
       7     H     0.44743  0.44743  0.00000  0.10514
       8     C     2.98473  2.98473  0.00000  0.03054
       9     C     3.08225  3.08225  0.00000 -0.16451
      10     H     0.45933  0.45933  0.00000  0.08134
      11     H     0.46144  0.46144  0.00000  0.07713
      12     C     3.09928  3.09928  0.00000 -0.19856
      13     H     0.44466  0.44466  0.00000  0.11069
      14     H     0.44729  0.44729  0.00000  0.10543
      15     C     3.08591  3.08591  0.00000 -0.17181
      16     H     0.45383  0.45383  0.00000  0.09233
      17     H     0.45469  0.45469  0.00000  0.09062
      18     C     3.14943  3.14943  0.00000 -0.29885
      19     H     0.45176  0.45176  0.00000  0.09649
      20     H     0.45240  0.45240  0.00000  0.09520
      21     H     0.45473  0.45473  0.00000  0.09054
      22     H     0.44675  0.44675  0.00000  0.10650
      23     H     0.45507  0.45507  0.00000  0.08985

   Total alpha = 36.00000, Total beta = 36.00000, Total charge =  0.00000

*** Psi4 exiting successfully. Buy a developer a beer!
