  ==> Input File <==

--------------------------------------------------------------------------
set {
	reference rhf
	basis cc-pvtz
}

set_num_threads( 4 )
memory 2 gb

molecule MOL {
0 1

H	 -2.816458	 -0.841657	 -0.064679
N	 -1.878861	 -0.711874	 0.250184
C	 -1.341419	 0.551458	 -0.220231
H	 -1.333674	 -1.468530	 -0.105118
C	 -1.200673	 1.527090	 0.925623
H	 -0.373315	 0.454983	 -0.710141
H	 -2.030741	 0.974486	 -0.942681
O	 -0.249362	 1.035838	 1.820825
H	 -0.890469	 2.499908	 0.546713
H	 -2.159787	 1.645606	 1.424604
C	 -0.075436	 1.811521	 2.959810
H	 0.679847	 1.339407	 3.571399
H	 0.256413	 2.816936	 2.709388
H	 -0.995569	 1.886329	 3.534546

	symmetry c1
}
set optking {
	frozen_dihedral = ("
		6 3 2 4
	")
}

ee = optimize('scf')
oeprop('DIPOLE', 'QUADRUPOLE', 'MULLIKEN_CHARGES')
f=open( 'psi4out.xyz', 'w' )
f.write( "14  " )
f.write( str(ee) + "\n" )
f.write( MOL.save_string_xyz() )
f.close()
--------------------------------------------------------------------------

    Molecular point group: c1
  Charge       = 0
  Multiplicity = 1
  Basis Set: CC-PVTZ
  Basis Set:
  @DF-RHF Final Energy:  -248.21915163125087
    Total Energy =                       -248.2191516312510657
    Molecular point group: c1
  Basis Set: CC-PVTZ
  Basis Set:
  Basis Set: CC-PVTZ
  Basis Set:
  @DF-RHF Final Energy:  -248.22048236556083
    Total Energy =                       -248.2204823655608266
  Basis Set: CC-PVTZ
  Basis Set:
  Basis Set: CC-PVTZ
  Basis Set:
  @DF-RHF Final Energy:  -248.22069270266823
    Total Energy =                       -248.2206927026682024
  Basis Set: CC-PVTZ
  Basis Set:
  Basis Set: CC-PVTZ
  Basis Set:
  @DF-RHF Final Energy:  -248.22070616927169
    Total Energy =                       -248.2207061692717502
  Basis Set: CC-PVTZ
  Basis Set:
  Basis Set: CC-PVTZ
  Basis Set:
  @DF-RHF Final Energy:  -248.22071146535302
    Total Energy =                       -248.2207114653527924
  Basis Set: CC-PVTZ
  Basis Set:
  Charge       = 0
  Multiplicity = 1
  Basis Set: CC-PVTZ
  Basis Set:

    Orbital Energies (a.u.)
    -----------------------

    Doubly Occupied:

       1A    -20.541899     2A    -15.524896     3A    -11.258368
       4A    -11.257283     5A    -11.241553     6A     -1.377433
       7A     -1.174933     8A     -0.998508     9A     -0.902103
      10A     -0.814972    11A     -0.682526    12A     -0.670753
      13A     -0.637982    14A     -0.628788    15A     -0.600602
      16A     -0.531964    17A     -0.519392    18A     -0.507698
      19A     -0.467725    20A     -0.412167    21A     -0.382073

  @DF-RHF Final Energy:  -248.22071164393887

   => Energetics <=

    Nuclear Repulsion Energy =            193.3234520956044378
    One-Electron Energy =                -720.8210903071092162
    Two-Electron Energy =                 279.2769265675662496
    DFT Exchange-Correlation Energy =       0.0000000000000000
    Empirical Dispersion Energy =           0.0000000000000000
    PCM Polarization Energy =               0.0000000000000000
    EFP Energy =                            0.0000000000000000
    Total Energy =                       -248.2207116439385004
    Molecular point group: c1
  Basis Set: CC-PVTZ
  Basis Set:

  -Total Gradient:
     Atom            X                  Y                   Z
    ------   -----------------  -----------------  -----------------
       1       -0.000004235154    -0.000012383274     0.000003543681
       2        0.000133507937    -0.000006132348     0.000223627178
       3       -0.000094654908    -0.000013005189    -0.000233305008
       4       -0.000105405682     0.000003424607    -0.000148399639
       5        0.000076798093     0.000006424959     0.000020456379
       6        0.000058743012     0.000022753457     0.000145587488
       7        0.000002359822    -0.000003281997    -0.000000769775
       8       -0.000025598159     0.000002441654     0.000009505924
       9       -0.000027590250     0.000015275704    -0.000019517477
      10       -0.000006167255    -0.000000586262     0.000006995096
      11       -0.000004673966    -0.000017112559    -0.000000672652
      12       -0.000001218010    -0.000001006051    -0.000002815735
      13       -0.000002134593    -0.000001079707    -0.000008085239
      14        0.000000269115     0.000004267008     0.000003849784

  **** Optimization is complete! (in 6 steps) ****
    Final optimized geometry and variables:
    Molecular point group: c1

    Geometry (in Angstrom), charge = 0, multiplicity = 1:

    H           -1.918413732826    -1.665335372967    -1.275210812218
    N           -0.987895410097    -1.561766060783    -0.936641474595
    C           -0.391162609045    -0.301454308216    -1.355358897692
    H           -0.460435213165    -2.347454027761    -1.243188632009
    C           -0.250547870187     0.675868676083    -0.206006839352
    H            0.596858645648    -0.476216215732    -1.763905018311
    H           -0.976119686399     0.176392392619    -2.136903938703
    O            0.754131488109     0.239686346051     0.651317484676
    H           -0.005415332997     1.665495985888    -0.594628158242
    H           -1.197811769489     0.751892502255     0.325532125155
    C            0.887069615444     0.989019533296     1.811222675423
    H            1.697383685634     0.567006120672     2.388165436443
    H            1.120380958927     2.029593027174     1.591896987365
    H           -0.020325875840     0.960180142944     2.410381842423

  Mulliken Charges: (a.u.)
   Center  Symbol    Alpha    Beta     Spin     Total
       1     H     0.42852  0.42852  0.00000  0.14296
       2     N     3.69232  3.69232  0.00000 -0.38465
       3     C     3.04188  3.04188  0.00000 -0.08376
       4     H     0.42440  0.42440  0.00000  0.15119
       5     C     2.94622  2.94622  0.00000  0.10756
       6     H     0.45377  0.45377  0.00000  0.09245
       7     H     0.45994  0.45994  0.00000  0.08011
       8     O     4.17209  4.17209  0.00000 -0.34418
       9     H     0.47662  0.47662  0.00000  0.04677
      10     H     0.47950  0.47950  0.00000  0.04099
      11     C     3.03108  3.03108  0.00000 -0.06216
      12     H     0.44826  0.44826  0.00000  0.10349
      13     H     0.47439  0.47439  0.00000  0.05123
      14     H     0.47100  0.47100  0.00000  0.05800

   Total alpha = 21.00000, Total beta = 21.00000, Total charge = -0.00000
