  ==> Input File <==

--------------------------------------------------------------------------
set {
	reference rhf
	basis 6-31G*
}

set_num_threads( 1 )
memory 2 gb

molecule MOL {
0 1

H	 -3.420663	 1.227371	 -1.044276
O	 -3.452007	 0.283848	 -0.965577
C	 -3.181085	 -0.079926	 0.364119
C	 -1.765924	 0.277073	 0.805136
H	 -3.327791	 -1.152017	 0.410903
H	 -3.905698	 0.375695	 1.036898
C	 -0.677594	 -0.417312	 -0.014550
H	 -1.637766	 1.358238	 0.744969
H	 -1.659588	 0.017670	 1.857098
C	 0.738335	 -0.034840	 0.421385
H	 -0.814977	 -0.178223	 -1.064632
H	 -0.802730	 -1.495410	 0.071702
C	 1.822265	 -0.738362	 -0.399735
H	 0.853533	 1.043532	 0.342250
H	 0.871597	 -0.279636	 1.474438
C	 3.251946	 -0.263624	 -0.115498
H	 1.607572	 -0.614187	 -1.460010
H	 1.768462	 -1.807200	 -0.203504
C	 3.533060	 1.184963	 -0.519200
H	 3.942558	 -0.913433	 -0.647563
H	 3.469852	 -0.392313	 0.942878
H	 3.311887	 1.346631	 -1.570906
H	 4.577961	 1.433557	 -0.360386
H	 2.940884	 1.889376	 0.055511

	symmetry c1
}
set optking {
	frozen_dihedral = ("
		20 16 13 17,
		13 10 7 11,
		11 7 4 3,
		1 2 3 5,
		7 4 3 2
	")
}

ee = energy('scf')
oeprop('DIPOLE', 'QUADRUPOLE', 'MULLIKEN_CHARGES')
f=open( 'psi4out.xyz', 'w' )
f.write( "24  " )
f.write( str(ee) + "\n" )
f.write( MOL.save_string_xyz() )
f.close()
--------------------------------------------------------------------------

    Molecular point group: c1

    Geometry (in Angstrom), charge = 0, multiplicity = 1:

       Center              X                  Y                   Z               Mass
    ------------   -----------------  -----------------  -----------------  -----------------
           H         -3.397182245818     1.179575737764    -0.972329058464     1.007825032070
           O         -3.428526245818     0.236052737764    -0.893630058464    15.994914619560
           C         -3.157604245818    -0.127721262236     0.436065941536    12.000000000000
           C         -1.742443245818     0.229277737764     0.877082941536    12.000000000000
           H         -3.304310245818    -1.199812262236     0.482849941536     1.007825032070
           H         -3.882217245818     0.327899737764     1.108844941536     1.007825032070
           C         -0.654113245818    -0.465107262236     0.057396941536    12.000000000000
           H         -1.614285245818     1.310442737764     0.816915941536     1.007825032070
           H         -1.636107245818    -0.030125262236     1.929044941536     1.007825032070
           C          0.761815754182    -0.082635262236     0.493331941536    12.000000000000
           H         -0.791496245818    -0.226018262236    -0.992685058464     1.007825032070
           H         -0.779249245818    -1.543205262236     0.143648941536     1.007825032070
           C          1.845745754182    -0.786157262236    -0.327788058464    12.000000000000
           H          0.877013754182     0.995736737764     0.414196941536     1.007825032070
           H          0.895077754182    -0.327431262236     1.546384941536     1.007825032070
           C          3.275426754182    -0.311419262236    -0.043551058464    12.000000000000
           H          1.631052754182    -0.661982262236    -1.388063058464     1.007825032070
           H          1.791942754182    -1.854995262236    -0.131557058464     1.007825032070
           C          3.556540754182     1.137167737764    -0.447253058464    12.000000000000
           H          3.966038754182    -0.961228262236    -0.575616058464     1.007825032070
           H          3.493332754182    -0.440108262236     1.014824941536     1.007825032070
           H          3.335367754182     1.298835737764    -1.498959058464     1.007825032070
           H          4.601441754182     1.385761737764    -0.288439058464     1.007825032070
           H          2.964364754182     1.841580737764     0.127457941536     1.007825032070

  Charge       = 0
  Multiplicity = 1
  Basis Set: 6-31G*
  Basis Set:

    Orbital Energies (a.u.)
    -----------------------

    Doubly Occupied:

       1A    -20.553557     2A    -11.267686     3A    -11.217415
       4A    -11.214145     5A    -11.212290     6A    -11.211532
       7A    -11.211050     8A    -11.207456     9A     -1.360146
      10A     -1.088567    11A     -1.048300    12A     -0.985581
      13A     -0.915156    14A     -0.850472    15A     -0.800602
      16A     -0.776271    17A     -0.678959    18A     -0.654047
      19A     -0.624848    20A     -0.620131    21A     -0.598096
      22A     -0.582328    23A     -0.560231    24A     -0.539417
      25A     -0.513895    26A     -0.510628    27A     -0.498571
      28A     -0.472929    29A     -0.467216    30A     -0.459157
      31A     -0.456337    32A     -0.450441    33A     -0.418884

  @DF-RHF Final Energy:  -349.24722217142477

   => Energetics <=

    Nuclear Repulsion Energy =            384.9515241061314441
    One-Electron Energy =               -1236.3446302411718989
    Two-Electron Energy =                 502.1458839636148355
    DFT Exchange-Correlation Energy =       0.0000000000000000
    Empirical Dispersion Energy =           0.0000000000000000
    PCM Polarization Energy =               0.0000000000000000
    EFP Energy =                            0.0000000000000000
    Total Energy =                       -349.2472221714255625

  Mulliken Charges: (a.u.)
   Center  Symbol    Alpha    Beta     Spin     Total
       1     H     0.28338  0.28338  0.00000  0.43324
       2     O     4.36830  4.36830  0.00000 -0.73661
       3     C     2.99615  2.99615  0.00000  0.00770
       4     C     3.16901  3.16901  0.00000 -0.33803
       5     H     0.41632  0.41632  0.00000  0.16736
       6     H     0.42819  0.42819  0.00000  0.14362
       7     C     3.15182  3.15182  0.00000 -0.30363
       8     H     0.42834  0.42834  0.00000  0.14333
       9     H     0.42238  0.42238  0.00000  0.15524
      10     C     3.15386  3.15386  0.00000 -0.30771
      11     H     0.41201  0.41201  0.00000  0.17597
      12     H     0.42365  0.42365  0.00000  0.15270
      13     C     3.15244  3.15244  0.00000 -0.30488
      14     H     0.42302  0.42302  0.00000  0.15395
      15     H     0.42499  0.42499  0.00000  0.15002
      16     C     3.15238  3.15238  0.00000 -0.30476
      17     H     0.42363  0.42363  0.00000  0.15274
      18     H     0.42192  0.42192  0.00000  0.15615
      19     C     3.24103  3.24103  0.00000 -0.48206
      20     H     0.42095  0.42095  0.00000  0.15809
      21     H     0.42387  0.42387  0.00000  0.15227
      22     H     0.42215  0.42215  0.00000  0.15571
      23     H     0.41939  0.41939  0.00000  0.16122
      24     H     0.42082  0.42082  0.00000  0.15836

   Total alpha = 33.00000, Total beta = 33.00000, Total charge =  0.00000
