  ==> Input File <==

--------------------------------------------------------------------------
set {
	reference rhf
	basis 6-31G*
}

set_num_threads( 4 )
memory 2 gb

molecule MOL {
0 1

H	 -2.698709	 -0.000305	 0.034435
C	 -1.693833	 0.000034	 0.434417
O	 -0.828952	 -0.000968	 -0.659236
H	 -1.574200	 0.882896	 1.055746
H	 -1.574147	 -0.881698	 1.057355
C	 0.559449	 -0.000018	 -0.420814
C	 1.350706	 0.615680	 -1.573093
C	 0.921453	 0.618737	 0.927909
H	 0.802663	 -1.055019	 -0.377779
H	 1.032367	 0.189156	 -2.518231
H	 2.409369	 0.411873	 -1.446872
H	 1.230079	 1.693139	 -1.625003
H	 0.305538	 0.194894	 1.713697
H	 1.961401	 0.414293	 1.162808
H	 0.791708	 1.696221	 0.933871

	symmetry c1
}
set optking {
	frozen_dihedral = ("
		9 6 3 2
	")
}

ee = optimize('scf')
oeprop('DIPOLE', 'QUADRUPOLE', 'MULLIKEN_CHARGES')
f=open( 'psi4out.xyz', 'w' )
f.write( "15  " )
f.write( str(ee) + "\n" )
f.write( MOL.save_string_xyz() )
f.close()
--------------------------------------------------------------------------

    Molecular point group: c1
  Charge       = 0
  Multiplicity = 1
  Basis Set: 6-31G*
  Basis Set:
  @DF-RHF Final Energy:  -232.13104424843155
    Total Energy =                       -232.1310442484316923
    Molecular point group: c1
  Basis Set: 6-31G*
  Basis Set:
  Basis Set: 6-31G*
  Basis Set:
  @DF-RHF Final Energy:  -232.13411375787692
    Total Energy =                       -232.1341137578768894
  Basis Set: 6-31G*
  Basis Set:
  Basis Set: 6-31G*
  Basis Set:
  @DF-RHF Final Energy:  -232.13671509270597
    Total Energy =                       -232.1367150927058560
  Basis Set: 6-31G*
  Basis Set:
  Basis Set: 6-31G*
  Basis Set:
  @DF-RHF Final Energy:  -232.13679856933052
    Total Energy =                       -232.1367985693306650
  Basis Set: 6-31G*
  Basis Set:
  Basis Set: 6-31G*
  Basis Set:
  @DF-RHF Final Energy:  -232.13689216808032
    Total Energy =                       -232.1368921680804647
  Basis Set: 6-31G*
  Basis Set:
  Basis Set: 6-31G*
  Basis Set:
  @DF-RHF Final Energy:  -232.13690823450048
    Total Energy =                       -232.1369082345005381
  Basis Set: 6-31G*
  Basis Set:
  Charge       = 0
  Multiplicity = 1
  Basis Set: 6-31G*
  Basis Set:

    Orbital Energies (a.u.)
    -----------------------

    Doubly Occupied:

       1A    -20.547899     2A    -11.274646     3A    -11.262341
       4A    -11.214612     5A    -11.204678     6A     -1.370316
       7A     -1.053101     8A     -0.949384     9A     -0.912836
      10A     -0.785643    11A     -0.676158    12A     -0.641301
      13A     -0.630499    14A     -0.592314    15A     -0.550874
      16A     -0.542911    17A     -0.525434    18A     -0.502251
      19A     -0.494432    20A     -0.448986    21A     -0.403674

  @DF-RHF Final Energy:  -232.13690866660210

   => Energetics <=

    Nuclear Repulsion Energy =            197.9085837191129826
    One-Electron Energy =                -706.9224024357699818
    Two-Electron Energy =                 276.8769100500546756
    DFT Exchange-Correlation Energy =       0.0000000000000000
    Empirical Dispersion Energy =           0.0000000000000000
    PCM Polarization Energy =               0.0000000000000000
    EFP Energy =                            0.0000000000000000
    Total Energy =                       -232.1369086666023236
    Molecular point group: c1
  Basis Set: 6-31G*
  Basis Set:

  -Total Gradient:
     Atom            X                  Y                   Z
    ------   -----------------  -----------------  -----------------
       1        0.000001898794     0.000003325488    -0.000019878100
       2        0.000239956053     0.004337304227     0.000249060390
       3       -0.000056721876    -0.006408385001    -0.001529892861
       4        0.000012514361     0.000005207699    -0.000020405868
       5        0.000003781607    -0.000003759939     0.000001514660
       6       -0.001254800378     0.001836265577     0.006312386692
       7       -0.000038373841    -0.000016607430    -0.000033667413
       8       -0.000020608251     0.000009880821     0.000038106687
       9        0.001121981257     0.000241966709    -0.004990347933
      10        0.000002798352     0.000024641794    -0.000043652092
      11       -0.000012349551    -0.000021500558     0.000001088313
      12        0.000005276397    -0.000020188313     0.000026676476
      13        0.000015047924     0.000009575819     0.000016335583
      14       -0.000016328940    -0.000011241989    -0.000020602336
      15       -0.000004071906     0.000013515097     0.000013277803

  **** Optimization is complete! (in 7 steps) ****
    Final optimized geometry and variables:
    Molecular point group: c1

    Geometry (in Angstrom), charge = 0, multiplicity = 1:

    H           -2.754256716393    -0.216556717666     0.142641487874
    C           -1.776921014536    -0.210422497398     0.606385396877
    O           -0.845075767941    -0.201689836766    -0.428317740869
    H           -1.701971580465     0.668394521137     1.238684674537
    H           -1.688859108193    -1.097231353666     1.231604648496
    C            0.528458215131    -0.297400051825    -0.122999080166
    C            1.255285568384     0.340256786264    -1.300504284511
    C            0.940677281752     0.349035945766     1.195807166288
    H            0.797716093649    -1.353455990648    -0.111461911541
    H            0.926671090495    -0.112398314535    -2.228774953524
    H            2.329134843766     0.206311683594    -1.212619981194
    H            1.040247478889     1.402901152822    -1.347678523768
    H            0.485601212706    -0.129555646689     2.055367333255
    H            2.016566985182     0.269097725140     1.310636121502
    H            0.679394612114     1.402722634802     1.210327063720

  Mulliken Charges: (a.u.)
   Center  Symbol    Alpha    Beta     Spin     Total
       1     H     0.41242  0.41242  0.00000  0.17516
       2     C     3.07807  3.07807  0.00000 -0.15614
       3     O     4.31561  4.31561  0.00000 -0.63121
       4     H     0.42787  0.42787  0.00000  0.14426
       5     H     0.43193  0.43193  0.00000  0.13614
       6     C     2.90214  2.90214  0.00000  0.19572
       7     C     3.23959  3.23959  0.00000 -0.47918
       8     C     3.26241  3.26241  0.00000 -0.52482
       9     H     0.42907  0.42907  0.00000  0.14186
      10     H     0.41093  0.41093  0.00000  0.17814
      11     H     0.42513  0.42513  0.00000  0.14974
      12     H     0.41864  0.41864  0.00000  0.16273
      13     H     0.41570  0.41570  0.00000  0.16859
      14     H     0.41506  0.41506  0.00000  0.16989
      15     H     0.41544  0.41544  0.00000  0.16912

   Total alpha = 21.00000, Total beta = 21.00000, Total charge =  0.00000
