  ==> Input File <==

--------------------------------------------------------------------------
set {
	reference rhf
	basis 6-31G*
}

set_num_threads( 1 )
memory 2 gb

molecule MOL {
0 1

O	 1.656206	 0.575822	 -0.960186
C	 1.122059	 0.121804	 -0.000188
C	 -0.170150	 -0.657997	 -0.000612
O	 1.607642	 0.246637	 1.228470
C	 -1.412532	 0.227344	 -0.000452
H	 -0.153702	 -1.313099	 -0.867402
H	 -0.153924	 -1.313811	 0.865644
C	 -2.706999	 -0.587347	 -0.000541
H	 -1.388000	 0.879466	 -0.868000
H	 -1.387972	 0.879138	 0.867341
C	 -3.956778	 0.291888	 0.000910
H	 -2.726114	 -1.239230	 -0.871609
H	 -2.725217	 -1.240844	 0.869333
H	 -3.985213	 0.933254	 -0.875158
H	 -4.860123	 -0.309979	 0.000519
H	 -3.984618	 0.931166	 0.878514
C	 2.822472	 0.960300	 1.369932
H	 3.613541	 0.477905	 0.814062
H	 3.048219	 0.952455	 2.424885
H	 2.709739	 1.975860	 1.018597

	symmetry c1
}
set optking {
	frozen_dihedral = ("
		9 5 8 12,
		9 5 3 6,
		1 2 4 17
	")
}

ee = energy('scf')
oeprop('DIPOLE', 'QUADRUPOLE', 'MULLIKEN_CHARGES')
f=open( 'psi4out.xyz', 'w' )
f.write( "20  " )
f.write( str(ee) + "\n" )
f.write( MOL.save_string_xyz() )
f.close()
--------------------------------------------------------------------------

    Molecular point group: c1

    Geometry (in Angstrom), charge = 0, multiplicity = 1:

       Center              X                  Y                   Z               Mass
    ------------   -----------------  -----------------  -----------------  -----------------
           O          1.755318929611     0.411699407667    -1.175632236714    15.994914619560
           C          1.221171929611    -0.042318592333    -0.215634236714    12.000000000000
           C         -0.071037070389    -0.822119592333    -0.216058236714    12.000000000000
           O          1.706754929611     0.082514407667     1.013023763286    15.994914619560
           C         -1.313419070389     0.063221407667    -0.215898236714    12.000000000000
           H         -0.054589070389    -1.477221592333    -1.082848236714     1.007825032070
           H         -0.054811070389    -1.477933592333     0.650197763286     1.007825032070
           C         -2.607886070389    -0.751469592333    -0.215987236714    12.000000000000
           H         -1.288887070389     0.715343407667    -1.083446236714     1.007825032070
           H         -1.288859070389     0.715015407667     0.651894763286     1.007825032070
           C         -3.857665070389     0.127765407667    -0.214536236714    12.000000000000
           H         -2.627001070389    -1.403352592333    -1.087055236714     1.007825032070
           H         -2.626104070389    -1.404966592333     0.653886763286     1.007825032070
           H         -3.886100070389     0.769131407667    -1.090604236714     1.007825032070
           H         -4.761010070389    -0.474101592333    -0.214927236714     1.007825032070
           H         -3.885505070389     0.767043407667     0.663067763286     1.007825032070
           C          2.921584929611     0.796177407667     1.154485763286    12.000000000000
           H          3.712653929611     0.313782407667     0.598615763286     1.007825032070
           H          3.147331929611     0.788332407667     2.209438763286     1.007825032070
           H          2.808851929611     1.811737407667     0.803150763286     1.007825032070

  Charge       = 0
  Multiplicity = 1
  Basis Set: 6-31G*
  Basis Set:

    Orbital Energies (a.u.)
    -----------------------

    Doubly Occupied:

       1A    -20.604416     2A    -20.543323     3A    -11.371054
       4A    -11.280287     5A    -11.233399     6A    -11.229725
       7A    -11.224730     8A    -11.214357     9A     -1.468767
      10A     -1.361407    11A     -1.093288    12A     -1.025474
      13A     -0.968470    14A     -0.889872    15A     -0.808505
      16A     -0.772815    17A     -0.693587    18A     -0.679608
      19A     -0.673190    20A     -0.646402    21A     -0.599795
      22A     -0.591624    23A     -0.573116    24A     -0.554944
      25A     -0.534103    26A     -0.521161    27A     -0.507153
      28A     -0.483735    29A     -0.481560    30A     -0.475055
      31A     -0.453613    32A     -0.430273

  @DF-RHF Final Energy:  -383.93933602978194

   => Energetics <=

    Nuclear Repulsion Energy =            382.0739331953273563
    One-Electron Energy =               -1280.0488953322528687
    Two-Electron Energy =                 514.0356261071437984
    DFT Exchange-Correlation Energy =       0.0000000000000000
    Empirical Dispersion Energy =           0.0000000000000000
    PCM Polarization Energy =               0.0000000000000000
    EFP Energy =                            0.0000000000000000
    Total Energy =                       -383.9393360297817708

  Mulliken Charges: (a.u.)
   Center  Symbol    Alpha    Beta     Spin     Total
       1     O     4.28496  4.28496  0.00000 -0.56992
       2     C     2.61627  2.61627  0.00000  0.76746
       3     C     3.19690  3.19690  0.00000 -0.39381
       4     O     4.30230  4.30230  0.00000 -0.60461
       5     C     3.16183  3.16183  0.00000 -0.32365
       6     H     0.40169  0.40169  0.00000  0.19662
       7     H     0.40328  0.40328  0.00000  0.19345
       8     C     3.15367  3.15367  0.00000 -0.30735
       9     H     0.40848  0.40848  0.00000  0.18303
      10     H     0.41367  0.41367  0.00000  0.17266
      11     C     3.24043  3.24043  0.00000 -0.48086
      12     H     0.41956  0.41956  0.00000  0.16088
      13     H     0.42042  0.42042  0.00000  0.15917
      14     H     0.41936  0.41936  0.00000  0.16127
      15     H     0.41736  0.41736  0.00000  0.16528
      16     H     0.42035  0.42035  0.00000  0.15931
      17     C     3.09294  3.09294  0.00000 -0.18587
      18     H     0.40871  0.40871  0.00000  0.18257
      19     H     0.40875  0.40875  0.00000  0.18251
      20     H     0.40908  0.40908  0.00000  0.18185

   Total alpha = 32.00000, Total beta = 32.00000, Total charge =  0.00000
