  ==> Input File <==

--------------------------------------------------------------------------
set {
	reference rhf
	basis 6-31G*
}

set_num_threads( 4 )
memory 2 gb

molecule MOL {
0 1

H	 -3.161837	 0.500524	 -0.000234
C	 -2.367097	 -0.232926	 -0.000000
O	 -1.158440	 0.455814	 -0.000122
H	 -2.468853	 -0.861886	 -0.882833
H	 -2.468942	 -0.861421	 0.883154
C	 -0.029776	 -0.365156	 0.000148
C	 1.212217	 0.508981	 0.000007
H	 -0.036772	 -1.013236	 -0.877259
H	 -0.036869	 -1.012778	 0.877897
C	 1.926315	 0.509975	 1.350911
H	 1.881965	 0.155328	 -0.777829
H	 0.922155	 1.519270	 -0.271802
H	 2.246970	 -0.489724	 1.630564
H	 2.807870	 1.141557	 1.322420
H	 1.280047	 0.883291	 2.140453

	symmetry c1
}
set optking {
	frozen_dihedral = ("
		11 7 6 8
	")
}

ee = optimize('scf')
oeprop('DIPOLE', 'QUADRUPOLE', 'MULLIKEN_CHARGES')
f=open( 'psi4out.xyz', 'w' )
f.write( "15  " )
f.write( str(ee) + "\n" )
f.write( MOL.save_string_xyz() )
f.close()
--------------------------------------------------------------------------

    Molecular point group: c1
  Charge       = 0
  Multiplicity = 1
  Basis Set: 6-31G*
  Basis Set:
  @DF-RHF Final Energy:  -232.13381136396484
    Total Energy =                       -232.1338113639646963
    Molecular point group: c1
  Basis Set: 6-31G*
  Basis Set:
  Basis Set: 6-31G*
  Basis Set:
  @DF-RHF Final Energy:  -232.13425689718397
    Total Energy =                       -232.1342568971837181
  Basis Set: 6-31G*
  Basis Set:
  Basis Set: 6-31G*
  Basis Set:
  @DF-RHF Final Energy:  -232.13438573897247
    Total Energy =                       -232.1343857389725258
  Basis Set: 6-31G*
  Basis Set:
  Basis Set: 6-31G*
  Basis Set:
  @DF-RHF Final Energy:  -232.13438768249728
    Total Energy =                       -232.1343876824973904
  Basis Set: 6-31G*
  Basis Set:
  Charge       = 0
  Multiplicity = 1
  Basis Set: 6-31G*
  Basis Set:

    Orbital Energies (a.u.)
    -----------------------

    Doubly Occupied:

       1A    -20.553963     2A    -11.266487     3A    -11.263872
       4A    -11.213967     5A    -11.209218     6A     -1.378220
       7A     -1.053017     8A     -0.953211     9A     -0.880756
      10A     -0.807160    11A     -0.667713    12A     -0.660112
      13A     -0.631717    14A     -0.586427    15A     -0.577853
      16A     -0.545460    17A     -0.491470    18A     -0.488605
      19A     -0.481227    20A     -0.460842    21A     -0.411197

  @DF-RHF Final Energy:  -232.13438784589110

   => Energetics <=

    Nuclear Repulsion Energy =            190.7262560144835390
    One-Electron Energy =                -692.5563013121302447
    Two-Electron Energy =                 269.6956574517554373
    DFT Exchange-Correlation Energy =       0.0000000000000000
    Empirical Dispersion Energy =           0.0000000000000000
    PCM Polarization Energy =               0.0000000000000000
    EFP Energy =                            0.0000000000000000
    Total Energy =                       -232.1343878458912968
    Molecular point group: c1
  Basis Set: 6-31G*
  Basis Set:

  -Total Gradient:
     Atom            X                  Y                   Z
    ------   -----------------  -----------------  -----------------
       1       -0.000012713881    -0.000003791695    -0.000001899428
       2       -0.000014660197     0.000002987172     0.000000591239
       3        0.000024675714    -0.000025482402    -0.000006224931
       4       -0.000007360575     0.000000886979    -0.000000903662
       5       -0.000005436717    -0.000000262979     0.000000727482
       6       -0.002398020933     0.003795108145    -0.002823344300
       7        0.002265841759    -0.003483173150     0.003376666540
       8        0.001690935234    -0.002553036876     0.001819422982
       9       -0.000022154010     0.000008927935     0.000005314386
      10       -0.000028104130    -0.000009730030    -0.000006621025
      11       -0.001501365373     0.002245921478    -0.002323425980
      12        0.000012669399     0.000024847582    -0.000010579542
      13        0.000006107770     0.000009935734    -0.000010484420
      14       -0.000009678173     0.000007622442    -0.000009783657
      15       -0.000000735886    -0.000020760332    -0.000009455684

  **** Optimization is complete! (in 5 steps) ****
    Final optimized geometry and variables:
    Molecular point group: c1

    Geometry (in Angstrom), charge = 0, multiplicity = 1:

    H           -3.044491680843     0.348524859997    -0.237278602608
    C           -2.253783792321    -0.389144391089    -0.254767759190
    O           -1.041614711310     0.292795267332    -0.274689699824
    H           -2.375099726755    -1.013856399577    -1.138221347478
    H           -2.342523010936    -1.021135731137     0.627351617495
    C            0.080934669530    -0.538545726038    -0.304627402742
    C            1.349234343663     0.320394564176    -0.274612631354
    H            0.060633150560    -1.177253731985    -1.187104665259
    H            0.059133216511    -1.210723167499     0.554301823855
    C            2.036662539223     0.356666469492     1.088626310659
    H            2.040225803418    -0.014552999769    -1.042858926619
    H            1.056832822980     1.324922688557    -0.561553100907
    H            2.383827913120    -0.629676589415     1.383583729857
    H            2.896233111314     1.019305322678     1.075962305267
    H            1.352857885708     0.711769939196     1.853642973946

  Mulliken Charges: (a.u.)
   Center  Symbol    Alpha    Beta     Spin     Total
       1     H     0.41222  0.41222  0.00000  0.17556
       2     C     3.07972  3.07972  0.00000 -0.15944
       3     O     4.30420  4.30420  0.00000 -0.60839
       4     H     0.43035  0.43035  0.00000  0.13929
       5     H     0.43032  0.43032  0.00000  0.13935
       6     C     2.98960  2.98960  0.00000  0.02081
       7     C     3.16581  3.16581  0.00000 -0.33162
       8     H     0.43027  0.43027  0.00000  0.13946
       9     H     0.43136  0.43136  0.00000  0.13728
      10     C     3.24333  3.24333  0.00000 -0.48666
      11     H     0.42050  0.42050  0.00000  0.15900
      12     H     0.40465  0.40465  0.00000  0.19070
      13     H     0.42308  0.42308  0.00000  0.15384
      14     H     0.41890  0.41890  0.00000  0.16220
      15     H     0.41569  0.41569  0.00000  0.16861

   Total alpha = 21.00000, Total beta = 21.00000, Total charge = -0.00000
