  ==> Input File <==

--------------------------------------------------------------------------
set {
	reference rhf
	basis 6-31G*
}

set_num_threads( 4 )
memory 2 gb

molecule MOL {
0 1

H	 1.352826	 -2.121174	 -0.666602
C	 0.411473	 -1.614055	 -0.803497
O	 0.464886	 -0.454746	 -0.000158
H	 -0.395426	 -2.266766	 -0.492197
H	 0.291529	 -1.357951	 -1.849483
C	 -0.590998	 0.343045	 0.000118
O	 -1.699443	 -0.054298	 0.000227
H	 -0.340329	 1.404368	 0.000207

	symmetry c1
}
set optking {
	frozen_dihedral = ("
		2 3 6 7
	")
}

ee = optimize('scf')
oeprop('DIPOLE', 'QUADRUPOLE', 'MULLIKEN_CHARGES')
f=open( 'psi4out.xyz', 'w' )
f.write( "8  " )
f.write( str(ee) + "\n" )
f.write( MOL.save_string_xyz() )
f.close()
--------------------------------------------------------------------------

    Molecular point group: c1
  Charge       = 0
  Multiplicity = 1
  Basis Set: 6-31G*
  Basis Set:
  @DF-RHF Final Energy:  -227.77926877885255
    Total Energy =                       -227.7792687788525825
    Molecular point group: c1
  Basis Set: 6-31G*
  Basis Set:
  Basis Set: 6-31G*
  Basis Set:
  @DF-RHF Final Energy:  -227.77335428786020
    Total Energy =                       -227.7733542878602577
  Basis Set: 6-31G*
  Basis Set:
  Basis Set: 6-31G*
  Basis Set:
  @DF-RHF Final Energy:  -227.77995183761470
    Total Energy =                       -227.7799518376146466
  Basis Set: 6-31G*
  Basis Set:
  Basis Set: 6-31G*
  Basis Set:
  @DF-RHF Final Energy:  -227.78058817190160
    Total Energy =                       -227.7805881719016270
  Basis Set: 6-31G*
  Basis Set:
  Basis Set: 6-31G*
  Basis Set:
  @DF-RHF Final Energy:  -227.78059152548695
    Total Energy =                       -227.7805915254870399
  Basis Set: 6-31G*
  Basis Set:
  Charge       = 0
  Multiplicity = 1
  Basis Set: 6-31G*
  Basis Set:

    Orbital Energies (a.u.)
    -----------------------

    Doubly Occupied:

       1A    -20.608754     2A    -20.564365     3A    -11.381601
       4A    -11.292267     5A     -1.474124     6A     -1.377811
       7A     -0.994623     8A     -0.822574     9A     -0.741535
      10A     -0.682115    11A     -0.674492    12A     -0.609882
      13A     -0.560185    14A     -0.525876    15A     -0.467294
      16A     -0.455310

  @DF-RHF Final Energy:  -227.78059178103422

   => Energetics <=

    Nuclear Repulsion Energy =            122.9709420515126652
    One-Electron Energy =                -555.0374548746376604
    Two-Electron Energy =                 204.2859210420906493
    DFT Exchange-Correlation Energy =       0.0000000000000000
    Empirical Dispersion Energy =           0.0000000000000000
    PCM Polarization Energy =               0.0000000000000000
    EFP Energy =                            0.0000000000000000
    Total Energy =                       -227.7805917810343317
    Molecular point group: c1
  Basis Set: 6-31G*
  Basis Set:

  -Total Gradient:
     Atom            X                  Y                   Z
    ------   -----------------  -----------------  -----------------
       1       -0.000007500236    -0.000020873554    -0.000017511067
       2        0.003225732315     0.004177626639    -0.006386791936
       3       -0.004837463104    -0.006120245085     0.015225891181
       4        0.000007007734     0.000000664895    -0.000006313013
       5        0.000005834570    -0.000001122655    -0.000006272611
       6        0.001640379300     0.001738627041    -0.019712948998
       7       -0.000019258827     0.000226859084     0.010899161655
       8       -0.000014731751    -0.000001536364     0.000004784788

  **** Optimization is complete! (in 6 steps) ****
    Final optimized geometry and variables:
    Molecular point group: c1

    Geometry (in Angstrom), charge = 0, multiplicity = 1:

    H            1.733967763180    -1.650277038878    -0.447657321291
    C            0.776156832266    -1.171380573587    -0.573356814470
    O            0.820746126423     0.008771095137     0.214192748106
    H           -0.015318693582    -1.827218021206    -0.242284227196
    H            0.627033338169    -0.915926204262    -1.614308306527
    C           -0.245569279729     0.796672974452     0.194917967257
    O           -1.369642920919     0.433340879405     0.197485700444
    H            0.048092955723     1.838362584987     0.276620649860

  Mulliken Charges: (a.u.)
   Center  Symbol    Alpha    Beta     Spin     Total
       1     H     0.40421  0.40421  0.00000  0.19159
       2     C     3.09582  3.09582  0.00000 -0.19164
       3     O     4.29051  4.29051  0.00000 -0.58102
       4     H     0.40225  0.40225  0.00000  0.19549
       5     H     0.41390  0.41390  0.00000  0.17220
       6     C     2.72937  2.72937  0.00000  0.54127
       7     O     4.25005  4.25005  0.00000 -0.50010
       8     H     0.41389  0.41389  0.00000  0.17222

   Total alpha = 16.00000, Total beta = 16.00000, Total charge = -0.00000
