                              Psi4 1.0.54 Driver

  ==> Input File <==

--------------------------------------------------------------------------
set {
	reference rhf
	basis cc-pvtz
}

set_num_threads( 4 )
memory 2 gb

molecule MOL {
0 1

H	 4.392361	 -2.569041	 -0.155945
C	 3.903836	 -1.991148	 -0.931993
C	 2.470703	 -1.645352	 -0.542279
H	 4.489750	 -1.092990	 -1.093963
H	 3.932822	 -2.574493	 -1.846688
C	 1.746441	 -0.839283	 -1.618228
H	 2.477724	 -1.085182	 0.385675
H	 1.919489	 -2.563094	 -0.350611
C	 0.307319	 -0.483886	 -1.258354
H	 2.295196	 0.072580	 -1.818735
H	 1.735372	 -1.411141	 -2.541612
C	 0.166485	 0.574257	 -0.177158
H	 -0.205319	 -0.091774	 -2.133120
H	 -0.249538	 -1.368423	 -0.963357
C	 -1.180025	 0.697761	 0.509157
O	 1.066334	 1.295701	 0.111052
C	 -2.285431	 -0.137488	 -0.145671
H	 -1.447360	 1.745713	 0.496200
H	 -1.065514	 0.394096	 1.546399
C	 -3.646545	 0.082747	 0.508954
H	 -2.348635	 0.118247	 -1.199806
H	 -2.034895	 -1.192387	 -0.096473
C	 -4.757412	 -0.737227	 -0.138149
H	 -3.900211	 1.137405	 0.459735
H	 -3.580878	 -0.166775	 1.564416
H	 -4.867876	 -0.486707	 -1.187777
H	 -4.549650	 -1.800049	 -0.072540
H	 -5.709585	 -0.556397	 0.346597

	symmetry c1
}
set optking {
	frozen_dihedral = ("
		16 12 15 17
	")
}

ee,wfn = optimize('scf', return_wfn=True)
oeprop( wfn, 'DIPOLE', 'QUADRUPOLE', 'MULLIKEN_CHARGES')
f=open( 'psi4out.xyz', 'w' )
f.write( "28  " )
f.write( str(ee) + "\n" )
f.write( MOL.save_string_xyz() )
f.close()
--------------------------------------------------------------------------

    Molecular point group: c1
  Charge       = 0
  Multiplicity = 1
  Basis Set: CC-PVTZ
  Basis Set:
  @DF-RHF Final Energy:  -426.31423038012861
    Total Energy =                       -426.3142303801281514
    Molecular point group: c1
  Basis Set: CC-PVTZ
  Basis Set:
  Basis Set: CC-PVTZ
  Basis Set:
  @DF-RHF Final Energy:  -426.31397252297518
    Total Energy =                       -426.3139725229752912
  Basis Set: CC-PVTZ
  Basis Set:
  Basis Set: CC-PVTZ
  Basis Set:
  @DF-RHF Final Energy:  -426.31712647712993
    Total Energy =                       -426.3171264771297047
  Basis Set: CC-PVTZ
  Basis Set:
  Basis Set: CC-PVTZ
  Basis Set:
  @DF-RHF Final Energy:  -426.31723648243610
    Total Energy =                       -426.3172364824361011
  Basis Set: CC-PVTZ
  Basis Set:
  @DF-RHF Final Energy:  -426.31701656974769
    Total Energy =                       -426.3170165697476932
  Basis Set: CC-PVTZ
  Basis Set:
  @DF-RHF Final Energy:  -426.31747050801800
    Total Energy =                       -426.3174705080184594
  Basis Set: CC-PVTZ
  Basis Set:
  Basis Set: CC-PVTZ
  Basis Set:
  @DF-RHF Final Energy:  -426.31748970589172
    Total Energy =                       -426.3174897058912620
  Basis Set: CC-PVTZ
  Basis Set:
  Basis Set: CC-PVTZ
  Basis Set:
  @DF-RHF Final Energy:  -426.31749123909378
    Total Energy =                       -426.3174912390942382
  Basis Set: CC-PVTZ
  Basis Set:
  Charge       = 0
  Multiplicity = 1
  Basis Set: CC-PVTZ
  Basis Set:

    Orbital Energies (a.u.)
    -----------------------

    Doubly Occupied:

       1A    -20.533773     2A    -11.318460     3A    -11.228972
       4A    -11.228231     5A    -11.227338     6A    -11.223866
       7A    -11.214689     8A    -11.214083     9A    -11.209086
      10A    -11.202918    11A     -1.395914    12A     -1.095953
      13A     -1.078139    14A     -1.022251    15A     -0.991765
      16A     -0.906983    17A     -0.876816    18A     -0.809833
      19A     -0.800474    20A     -0.721884    21A     -0.664611
      22A     -0.662689    23A     -0.630745    24A     -0.618754
      25A     -0.609535    26A     -0.586492    27A     -0.583779
      28A     -0.572682    29A     -0.540871    30A     -0.533827
      31A     -0.521688    32A     -0.515194    33A     -0.490844
      34A     -0.488670    35A     -0.481306    36A     -0.475162
      37A     -0.469458    38A     -0.465671    39A     -0.455617
      40A     -0.393794

  @DF-RHF Final Energy:  -426.31749212571742

   => Energetics <=

    Nuclear Repulsion Energy =            532.2756461103588208
    One-Electron Energy =               -1633.0606364561542705
    Two-Electron Energy =                 674.4674982200781415
    DFT Exchange-Correlation Energy =       0.0000000000000000
    Empirical Dispersion Energy =           0.0000000000000000
    PCM Polarization Energy =               0.0000000000000000
    EFP Energy =                            0.0000000000000000
    Total Energy =                       -426.3174921257173082
    Molecular point group: c1
  Basis Set: CC-PVTZ
  Basis Set:

  -Total Gradient:
     Atom            X                  Y                   Z
    ------   -----------------  -----------------  -----------------
       1        0.000000055005    -0.000000926413     0.000001459106
       2        0.000000556542     0.000002413143     0.000003820895
       3        0.000002839014    -0.000018920037    -0.000015006775
       4        0.000001630824     0.000002657465    -0.000001446715
       5       -0.000000392537    -0.000001890533    -0.000002207790
       6       -0.000004804700     0.000008231313    -0.000009177758
       7       -0.000001006555     0.000005347340     0.000010071753
       8       -0.000001263739    -0.000000944059     0.000001844133
       9        0.000015024708    -0.000039762037     0.000046279439
      10        0.000002186352    -0.000000504991     0.000000587595
      11        0.000000103086    -0.000001503527    -0.000002949481
      12       -0.000256281673     0.000881618344    -0.000813387314
      13       -0.000007751394     0.000019993521    -0.000006059646
      14       -0.000002376284    -0.000001761327    -0.000014987674
      15       -0.000089793578     0.000807033008    -0.000384252571
      16        0.000219235912    -0.000886869088     0.000739603469
      17        0.000125515055    -0.000769695766     0.000457170037
      18       -0.000002010803     0.000004800910    -0.000000475586
      19        0.000010819014     0.000003006431     0.000001749539
      20       -0.000004974568    -0.000006132131    -0.000000727720
      21       -0.000000829337     0.000004096754    -0.000024315398
      22       -0.000002588313    -0.000016204560     0.000005058441
      23        0.000011474387     0.000003779170    -0.000000561597
      24        0.000000365810     0.000016162794     0.000000139511
      25        0.000001204077    -0.000005208732     0.000012647116
      26       -0.000001870011     0.000005379925    -0.000012961124
      27       -0.000000722886    -0.000017374195    -0.000001951631
      28       -0.000014343403     0.000003177278     0.000010037744

  **** Optimization is complete! (in 9 steps) ****
    Final optimized geometry and variables:
    Molecular point group: c1

    Geometry (in Angstrom), charge = 0, multiplicity = 1:

    H            4.814082388764    -2.191096827837    -0.249623067463
    C            4.251793779195    -1.546527653177    -0.915405652580
    C            2.822250976380    -1.355783856564    -0.420201525933
    H            4.772484779598    -0.596921932459    -0.973802366448
    H            4.269905240441    -1.995162696019    -1.903531655576
    C            1.994858555924    -0.463946651228    -1.343565563722
    H            2.840905210175    -0.926938454875     0.574207323469
    H            2.339650216259    -2.326854798773    -0.335764685258
    C            0.557383583666    -0.254017257089    -0.878553858890
    H            2.479314717525     0.499472271313    -1.445984323264
    H            1.968586063815    -0.910772648533    -2.333348722970
    C            0.400200321384     0.686908205811     0.299773902507
    H           -0.044303195451     0.156001524153    -1.685553232791
    H            0.092438405428    -1.202598845002    -0.627215752967
    C           -0.971129284420     0.863026213450     0.942108297674
    O            1.323236497180     1.288737980642     0.746068293984
    C           -2.195702330251     0.280932605581     0.240991612096
    H           -1.092887119940     1.928877213931     1.096199249431
    H           -0.879137464168     0.430970163861     1.935012804927
    C           -3.485171696826     0.569330882614     1.006575391640
    H           -2.282408534076     0.691488813077    -0.760965850891
    H           -2.089300734612    -0.792748088993     0.125415207687
    C           -4.723390161659    -0.003576870342     0.325818138265
    H           -3.601011949281     1.643128497512     1.122169720973
    H           -3.404293372870     0.162317062563     2.010616039508
    H           -4.850834919214     0.410898372680    -0.668646570801
    H           -4.653153527198    -1.081734085752     0.227278229792
    H           -5.619563956724     0.218310574220     0.893227619542

  Mulliken Charges: (a.u.)
   Center  Symbol    Alpha    Beta     Spin     Total
       1     H     0.44876  0.44876  0.00000  0.10248
       2     C     3.15191  3.15191  0.00000 -0.30382
       3     C     3.08389  3.08389  0.00000 -0.16778
       4     H     0.45190  0.45190  0.00000  0.09619
       5     H     0.45731  0.45731  0.00000  0.08538
       6     C     3.08711  3.08711  0.00000 -0.17422
       7     H     0.44397  0.44397  0.00000  0.11206
       8     H     0.45933  0.45933  0.00000  0.08133
       9     C     3.13123  3.13123  0.00000 -0.26247
      10     H     0.44573  0.44573  0.00000  0.10855
      11     H     0.44786  0.44786  0.00000  0.10429
      12     C     2.87489  2.87489  0.00000  0.25021
      13     H     0.43164  0.43164  0.00000  0.13673
      14     H     0.44037  0.44037  0.00000  0.11926
      15     C     3.08620  3.08620  0.00000 -0.17239
      16     O     4.18274  4.18274  0.00000 -0.36548
      17     C     3.10059  3.10059  0.00000 -0.20117
      18     H     0.43722  0.43722  0.00000  0.12556
      19     H     0.44096  0.44096  0.00000  0.11808
      20     C     3.08617  3.08617  0.00000 -0.17233
      21     H     0.45036  0.45036  0.00000  0.09927
      22     H     0.45031  0.45031  0.00000  0.09938
      23     C     3.14946  3.14946  0.00000 -0.29892
      24     H     0.45152  0.45152  0.00000  0.09695
      25     H     0.45263  0.45263  0.00000  0.09474
      26     H     0.45455  0.45455  0.00000  0.09091
      27     H     0.45489  0.45489  0.00000  0.09022
      28     H     0.44651  0.44651  0.00000  0.10699

   Total alpha = 40.00000, Total beta = 40.00000, Total charge = -0.00000

*** Psi4 exiting successfully. Buy a developer a beer!
