  ==> Input File <==

--------------------------------------------------------------------------
set {
	reference rhf
	basis 6-31G*
}

set_num_threads( 4 )
memory 2 gb

molecule MOL {
0 1

H	 -0.000158	 1.970498	 0.756846
O	 -0.000074	 1.880206	 -0.189275
C	 -0.000015	 0.544847	 -0.545111
C	 -1.278788	 -0.123820	 -0.051541
C	 1.278802	 -0.123718	 -0.051505
H	 -0.000001	 0.490777	 -1.623619
F	 -1.996505	 0.743326	 0.629992
F	 -2.018883	 -0.576833	 -1.041185
F	 -0.999500	 -1.137345	 0.752426
F	 2.323327	 0.466644	 -0.591854
F	 1.326242	 -1.401483	 -0.363667
F	 1.388946	 -0.015632	 1.262939

	symmetry c1
}
set optking {
	frozen_dihedral = ("
		7 4 3 6
	")
}

ee = optimize('scf')
oeprop('DIPOLE', 'QUADRUPOLE', 'MULLIKEN_CHARGES')
f=open( 'psi4out.xyz', 'w' )
f.write( "12  " )
f.write( str(ee) + "\n" )
f.write( MOL.save_string_xyz() )
f.close()
--------------------------------------------------------------------------

    Molecular point group: c1
  Charge       = 0
  Multiplicity = 1
  Basis Set: 6-31G*
  Basis Set:
  @DF-RHF Final Energy:  -786.27042422557179
    Total Energy =                       -786.2704242255715599
    Molecular point group: c1
  Basis Set: 6-31G*
  Basis Set:
  Basis Set: 6-31G*
  Basis Set:
  @DF-RHF Final Energy:  -786.27108698981465
    Total Energy =                       -786.2710869898147621
  Basis Set: 6-31G*
  Basis Set:
  Basis Set: 6-31G*
  Basis Set:
  @DF-RHF Final Energy:  -786.27202468051144
    Total Energy =                       -786.2720246805117768
  Basis Set: 6-31G*
  Basis Set:
  Basis Set: 6-31G*
  Basis Set:
  @DF-RHF Final Energy:  -786.27209309140903
    Total Energy =                       -786.2720930914092605
  Basis Set: 6-31G*
  Basis Set:
  Basis Set: 6-31G*
  Basis Set:
  @DF-RHF Final Energy:  -786.27210639143163
    Total Energy =                       -786.2721063914314072
  Basis Set: 6-31G*
  Basis Set:
  Basis Set: 6-31G*
  Basis Set:
  @DF-RHF Final Energy:  -786.27210836301674
    Total Energy =                       -786.2721083630167414
  Basis Set: 6-31G*
  Basis Set:
  Charge       = 0
  Multiplicity = 1
  Basis Set: 6-31G*
  Basis Set:

    Orbital Energies (a.u.)
    -----------------------

    Doubly Occupied:

       1A    -26.363358     2A    -26.361527     3A    -26.360880
       4A    -26.359944     5A    -26.359543     6A    -26.355925
       7A    -20.615749     8A    -11.528913     9A    -11.523180
      10A    -11.349432    11A     -1.764983    12A     -1.757604
      13A     -1.660280    14A     -1.658256    15A     -1.657616
      16A     -1.653028    17A     -1.434241    18A     -1.098882
      19A     -0.995761    20A     -0.936945    21A     -0.865857
      22A     -0.859325    23A     -0.850486    24A     -0.845641
      25A     -0.833725    26A     -0.813155    27A     -0.732816
      28A     -0.730198    29A     -0.728606    30A     -0.722682
      31A     -0.687372    32A     -0.684947    33A     -0.682205
      34A     -0.677155    35A     -0.667248    36A     -0.662408
      37A     -0.655608    38A     -0.649595    39A     -0.617380
      40A     -0.549726    41A     -0.504770

  @DF-RHF Final Energy:  -786.27210854270652

   => Energetics <=

    Nuclear Repulsion Energy =            669.0082491703601590
    One-Electron Energy =               -2424.9268125978696844
    Two-Electron Energy =                 969.6464548848027789
    DFT Exchange-Correlation Energy =       0.0000000000000000
    Empirical Dispersion Energy =           0.0000000000000000
    PCM Polarization Energy =               0.0000000000000000
    EFP Energy =                            0.0000000000000000
    Total Energy =                       -786.2721085427067464
    Molecular point group: c1
  Basis Set: 6-31G*
  Basis Set:

  -Total Gradient:
     Atom            X                  Y                   Z
    ------   -----------------  -----------------  -----------------
       1       -0.000004161556    -0.000006234327    -0.000005570878
       2        0.000014583173    -0.000000092852     0.000004505626
       3        0.000389301133    -0.000810614691    -0.000155545808
       4        0.000426733086    -0.000151097878     0.000850457241
       5        0.000016983543    -0.000015243578    -0.000000492844
       6       -0.000410914822     0.000743510673    -0.000049807189
       7       -0.000358414953     0.000193626037    -0.000610936780
       8       -0.000014408056     0.000011658975    -0.000017551802
       9       -0.000001046241     0.000034578042    -0.000019561630
      10       -0.000029806285     0.000013394508     0.000007140854
      11       -0.000011721730    -0.000028943733    -0.000020268354
      12       -0.000017127297     0.000015458824     0.000017631559

  **** Optimization is complete! (in 7 steps) ****
    Final optimized geometry and variables:
    Molecular point group: c1

    Geometry (in Angstrom), charge = 0, multiplicity = 1:

    H           -0.056627572807     2.037042864565     0.715277996984
    O            0.041562314869     1.906154566568    -0.219851974450
    C            0.007020701934     0.563767511514    -0.537894449802
    C           -1.283847742833    -0.123713033435    -0.029882085677
    C            1.281300287461    -0.118421278953    -0.056141482890
    H           -0.001257637155     0.499010004390    -1.614816306788
    F           -2.026648000970     0.725143777154     0.652699746402
    F           -2.000141604356    -0.557586979880    -1.048913387299
    F           -1.046464098173    -1.156193558569     0.755554442942
    F            2.329811166548     0.471327254234    -0.588889589265
    F            1.312136528781    -1.389477657504    -0.402516993323
    F            1.396559589480    -0.035706373567     1.258966202974

  Mulliken Charges: (a.u.)
   Center  Symbol    Alpha    Beta     Spin     Total
       1     H     0.26691  0.26691  0.00000  0.46618
       2     O     4.35952  4.35952  0.00000 -0.71905
       3     C     3.06894  3.06894  0.00000 -0.13788
       4     C     2.43478  2.43478  0.00000  1.13044
       5     C     2.43625  2.43625  0.00000  1.12750
       6     H     0.37082  0.37082  0.00000  0.25837
       7     F     4.67692  4.67692  0.00000 -0.35385
       8     F     4.67732  4.67732  0.00000 -0.35464
       9     F     4.67408  4.67408  0.00000 -0.34816
      10     F     4.67519  4.67519  0.00000 -0.35039
      11     F     4.67711  4.67711  0.00000 -0.35422
      12     F     4.68215  4.68215  0.00000 -0.36430

   Total alpha = 41.00000, Total beta = 41.00000, Total charge = -0.00000
