                              Psi4 1.0.54 Driver

  ==> Input File <==

--------------------------------------------------------------------------
set {
	reference rhf
	basis cc-pvtz
}

set_num_threads( 4 )
memory 2 gb

molecule MOL {
0 1

H	 -3.436473	 1.252944	 -1.023892
O	 -3.458596	 0.315260	 -0.960865
C	 -3.176635	 -0.080824	 0.355601
C	 -1.763371	 0.265266	 0.799691
H	 -3.321825	 -1.153438	 0.379502
H	 -3.895468	 0.357385	 1.043382
C	 -1.274539	 -0.548433	 1.994371
H	 -1.085110	 0.127471	 -0.041046
H	 -1.735479	 1.325225	 1.040726
C	 0.156370	 -0.211920	 2.405744
H	 -1.347240	 -1.604931	 1.761046
H	 -1.941239	 -0.376005	 2.835968
C	 0.637716	 -1.026145	 3.605073
H	 0.814394	 -0.376213	 1.557862
H	 0.224056	 0.847651	 2.643619
C	 2.037929	 -0.668070	 4.106105
H	 0.607127	 -2.084248	 3.355410
H	 -0.065317	 -0.888589	 4.422045
C	 3.167123	 -0.992162	 3.130897
H	 2.216959	 -1.202286	 5.034188
H	 2.069888	 0.389418	 4.355340
H	 3.156538	 -2.042817	 2.858703
H	 4.132299	 -0.776967	 3.575158
H	 3.093701	 -0.413499	 2.218010

	symmetry c1
}
set optking {
	frozen_dihedral = ("
		7 4 3 2
	")
}

ee,wfn = optimize('scf', return_wfn=True)
oeprop( wfn, 'DIPOLE', 'QUADRUPOLE', 'MULLIKEN_CHARGES')
f=open( 'psi4out.xyz', 'w' )
f.write( "24  " )
f.write( str(ee) + "\n" )
f.write( MOL.save_string_xyz() )
f.close()
--------------------------------------------------------------------------

    Molecular point group: c1
  Charge       = 0
  Multiplicity = 1
  Basis Set: CC-PVTZ
  Basis Set:
  @DF-RHF Final Energy:  -349.37909649805869
    Total Energy =                       -349.3790964980589706
    Molecular point group: c1
  Basis Set: CC-PVTZ
  Basis Set:
  Basis Set: CC-PVTZ
  Basis Set:
  @DF-RHF Final Energy:  -349.37940663261520
    Total Energy =                       -349.3794066326150869
  Basis Set: CC-PVTZ
  Basis Set:
  Basis Set: CC-PVTZ
  Basis Set:
  @DF-RHF Final Energy:  -349.37946201162089
    Total Energy =                       -349.3794620116210012
  Basis Set: CC-PVTZ
  Basis Set:
  Charge       = 0
  Multiplicity = 1
  Basis Set: CC-PVTZ
  Basis Set:

    Orbital Energies (a.u.)
    -----------------------

    Doubly Occupied:

       1A    -20.545395     2A    -11.264476     3A    -11.216320
       4A    -11.214026     5A    -11.213335     6A    -11.213134
       7A    -11.212188     8A    -11.206535     9A     -1.363057
      10A     -1.093321    11A     -1.051905    12A     -0.987080
      13A     -0.915022    14A     -0.851419    15A     -0.805339
      16A     -0.778942    17A     -0.695083    18A     -0.649894
      19A     -0.627447    20A     -0.609227    21A     -0.603671
      22A     -0.590057    23A     -0.562522    24A     -0.533745
      25A     -0.523782    26A     -0.517122    27A     -0.487428
      28A     -0.481967    29A     -0.469546    30A     -0.461954
      31A     -0.460476    32A     -0.454440    33A     -0.421831

  @DF-RHF Final Energy:  -349.37946271612032

   => Energetics <=

    Nuclear Repulsion Energy =            380.5245837300717540
    One-Electron Energy =               -1227.6447099935503502
    Two-Electron Energy =                 497.7406635473581673
    DFT Exchange-Correlation Energy =       0.0000000000000000
    Empirical Dispersion Energy =           0.0000000000000000
    PCM Polarization Energy =               0.0000000000000000
    EFP Energy =                            0.0000000000000000
    Total Energy =                       -349.3794627161204289
    Molecular point group: c1
  Basis Set: CC-PVTZ
  Basis Set:

  -Total Gradient:
     Atom            X                  Y                   Z
    ------   -----------------  -----------------  -----------------
       1        0.000003238336    -0.000045595009     0.000041006714
       2        0.000856618384    -0.002583034762    -0.000897141809
       3       -0.000757365109     0.002830104426     0.000685912207
       4       -0.000829771178     0.001715459736     0.001893732521
       5       -0.000003218212     0.000006052609    -0.000038418000
       6       -0.000029547771    -0.000011149100    -0.000039898466
       7        0.000843691387    -0.001840082029    -0.001692256756
       8       -0.000080116719     0.000021979463     0.000122829042
       9       -0.000000626555    -0.000082399621    -0.000044734246
      10        0.000055025721    -0.000012755120    -0.000025901408
      11       -0.000019434057    -0.000015292054    -0.000010296407
      12        0.000008851691    -0.000009537402    -0.000004931878
      13       -0.000029281423     0.000049041314     0.000048877245
      14        0.000058360860     0.000002268730    -0.000032633147
      15       -0.000001607087    -0.000020203749     0.000004624215
      16       -0.000005767567    -0.000032498184     0.000018376876
      17        0.000000871838     0.000008026223     0.000011419305
      18       -0.000024991028     0.000008716820     0.000008710142
      19       -0.000021183764     0.000005902602    -0.000022046859
      20        0.000003787904    -0.000010894422    -0.000017188285
      21       -0.000000773147    -0.000019032208     0.000017384131
      22        0.000001527982     0.000019952998     0.000018114822
      23       -0.000000982179     0.000013725747    -0.000006257098
      24       -0.000027308307     0.000001242991    -0.000039282861

  **** Optimization is complete! (in 4 steps) ****
    Final optimized geometry and variables:
    Molecular point group: c1

    Geometry (in Angstrom), charge = 0, multiplicity = 1:

    H           -2.933256610169     1.618880430004    -2.887434774575
    O           -2.979132340090     0.683157489115    -2.809847749830
    C           -2.676591796236     0.292914951998    -1.497294037787
    C           -1.242230995893     0.611859879483    -1.096171152290
    H           -2.831114797065    -0.778171013253    -1.473934485678
    H           -3.377900437357     0.732969986583    -0.792114011842
    C           -0.760643841274    -0.211168946559     0.095242166160
    H           -0.607081637792     0.408093077575    -1.952284976939
    H           -1.145824807219     1.673642223388    -0.880359550369
    C            0.660042264820     0.135012163592     0.533208268474
    H           -0.810438076553    -1.265703023850    -0.162561805705
    H           -1.437422227739    -0.071345994827     0.935533097361
    C            1.143571663521    -0.709046421133     1.710786831309
    H            1.327980583335     0.010529856634    -0.313257025016
    H            0.704626674931     1.186987341664     0.805888508532
    C            2.531158359176    -0.340376765790     2.238536630076
    H            1.137335445211    -1.758859645900     1.426378902327
    H            0.429286823714    -0.612103779557     2.523984055135
    C            3.675157289980    -0.600417208257     1.261428772856
    H            2.714212183955    -0.906894629871     3.146405368000
    H            2.537080619272     0.706782980864     2.529653274231
    H            3.691241206281    -1.639612725041     0.948748334559
    H            4.631392762138    -0.380572711527     1.722288433286
    H            3.595622722638     0.011326312637     0.370949390479

  Mulliken Charges: (a.u.)
   Center  Symbol    Alpha    Beta     Spin     Total
       1     H     0.39525  0.39525  0.00000  0.20951
       2     O     4.20078  4.20078  0.00000 -0.40157
       3     C     2.96690  2.96690  0.00000  0.06621
       4     C     3.09853  3.09853  0.00000 -0.19706
       5     H     0.45801  0.45801  0.00000  0.08398
       6     H     0.46908  0.46908  0.00000  0.06183
       7     C     3.09856  3.09856  0.00000 -0.19712
       8     H     0.44903  0.44903  0.00000  0.10193
       9     H     0.45995  0.45995  0.00000  0.08010
      10     C     3.09188  3.09188  0.00000 -0.18377
      11     H     0.45178  0.45178  0.00000  0.09644
      12     H     0.45451  0.45451  0.00000  0.09097
      13     C     3.09491  3.09491  0.00000 -0.18982
      14     H     0.45140  0.45140  0.00000  0.09721
      15     H     0.45460  0.45460  0.00000  0.09080
      16     C     3.09045  3.09045  0.00000 -0.18090
      17     H     0.45372  0.45372  0.00000  0.09255
      18     H     0.44995  0.44995  0.00000  0.10009
      19     C     3.15248  3.15248  0.00000 -0.30496
      20     H     0.44839  0.44839  0.00000  0.10322
      21     H     0.45500  0.45500  0.00000  0.09001
      22     H     0.45469  0.45469  0.00000  0.09063
      23     H     0.44644  0.44644  0.00000  0.10712
      24     H     0.45370  0.45370  0.00000  0.09261

   Total alpha = 33.00000, Total beta = 33.00000, Total charge = -0.00000

*** Psi4 exiting successfully. Buy a developer a beer!
