  ==> Input File <==

--------------------------------------------------------------------------
set {
	reference rhf
	basis 6-31G*
}

set_num_threads( 4 )
memory 2 gb

molecule MOL {
0 1

H	 0.121535	 -0.934467	 -1.601770
C	 -0.559000	 -1.304595	 -0.837559
O	 -1.392607	 -0.295399	 -0.366433
H	 -1.187172	 -2.071202	 -1.269826
H	 0.030631	 -1.744851	 -0.034478
C	 -0.719715	 0.768384	 0.229244
C	 0.719720	 0.768376	 -0.229267
H	 -1.185038	 1.714362	 -0.050570
H	 -0.750528	 0.687237	 1.313896
O	 1.392611	 -0.295398	 0.366430
H	 0.750534	 0.687200	 -1.313918
H	 1.185043	 1.714359	 0.050526
C	 2.706965	 -0.449871	 -0.062409
H	 2.756559	 -0.644779	 -1.131878
H	 3.305899	 0.433456	 0.155466
H	 3.125548	 -1.294566	 0.467107

	symmetry c1
}
set optking {
	frozen_dihedral = ("
		2 3 6 7
	")
}

ee = optimize('scf')
oeprop('DIPOLE', 'QUADRUPOLE', 'MULLIKEN_CHARGES')
f=open( 'psi4out.xyz', 'w' )
f.write( "16  " )
f.write( str(ee) + "\n" )
f.write( MOL.save_string_xyz() )
f.close()
--------------------------------------------------------------------------

    Molecular point group: c1
  Charge       = 0
  Multiplicity = 1
  Basis Set: 6-31G*
  Basis Set:
  @DF-RHF Final Energy:  -306.94980646746467
    Total Energy =                       -306.9498064674649527
    Molecular point group: c1
  Basis Set: 6-31G*
  Basis Set:
  Basis Set: 6-31G*
  Basis Set:
  @DF-RHF Final Energy:  -306.96291166595802
    Total Energy =                       -306.9629116659582451
  Basis Set: 6-31G*
  Basis Set:
  Basis Set: 6-31G*
  Basis Set:
  @DF-RHF Final Energy:  -306.96789807574589
    Total Energy =                       -306.9678980757461204
  Basis Set: 6-31G*
  Basis Set:
  Basis Set: 6-31G*
  Basis Set:
  @DF-RHF Final Energy:  -306.96919840451380
    Total Energy =                       -306.9691984045138042
  Basis Set: 6-31G*
  Basis Set:
  @DF-RHF Final Energy:  -306.96981044286343
    Total Energy =                       -306.9698104428634906
  Basis Set: 6-31G*
  Basis Set:
  @DF-RHF Final Energy:  -306.97001960864532
    Total Energy =                       -306.9700196086452024
  Basis Set: 6-31G*
  Basis Set:
  Basis Set: 6-31G*
  Basis Set:
  @DF-RHF Final Energy:  -306.97005039998572
    Total Energy =                       -306.9700503999858938
  Basis Set: 6-31G*
  Basis Set:
  Basis Set: 6-31G*
  Basis Set:
  @DF-RHF Final Energy:  -306.97005199040689
    Total Energy =                       -306.9700519904068869
  Basis Set: 6-31G*
  Basis Set:
  Charge       = 0
  Multiplicity = 1
  Basis Set: 6-31G*
  Basis Set:

    Orbital Energies (a.u.)
    -----------------------

    Doubly Occupied:

       1A    -20.565159     2A    -20.545353     3A    -11.277041
       4A    -11.272812     5A    -11.268248     6A    -11.254819
       7A     -1.392766     8A     -1.362307     9A     -1.030203
      10A     -0.950729    11A     -0.896818    12A     -0.812725
      13A     -0.694193    14A     -0.681926    15A     -0.655615
      16A     -0.634143    17A     -0.625058    18A     -0.590935
      19A     -0.556705    20A     -0.546820    21A     -0.517128
      22A     -0.492308    23A     -0.446956    24A     -0.424035
      25A     -0.402546

  @DF-RHF Final Energy:  -306.97005218952239

   => Energetics <=

    Nuclear Repulsion Energy =            264.9204266680094975
    One-Electron Energy =                -943.9862613444106501
    Two-Electron Energy =                 372.0957824868785906
    DFT Exchange-Correlation Energy =       0.0000000000000000
    Empirical Dispersion Energy =           0.0000000000000000
    PCM Polarization Energy =               0.0000000000000000
    EFP Energy =                            0.0000000000000000
    Total Energy =                       -306.9700521895226188
    Molecular point group: c1
  Basis Set: 6-31G*
  Basis Set:

  -Total Gradient:
     Atom            X                  Y                   Z
    ------   -----------------  -----------------  -----------------
       1       -0.000009731996    -0.000008180589     0.000001657300
       2        0.000104469971     0.001571317412    -0.003171057848
       3        0.000233681656    -0.003330209073     0.005993525796
       4       -0.000002860454     0.000004548165     0.000000755867
       5        0.000004133394    -0.000009557284     0.000003955586
       6       -0.001133422978     0.003654068211    -0.005239613354
       7        0.000795748564    -0.001883508409     0.002411889430
       8       -0.000007960891    -0.000013050038    -0.000003396803
       9       -0.000001472967    -0.000001746718    -0.000003334980
      10       -0.000010031281     0.000009051184     0.000018740447
      11        0.000000614566     0.000002953324    -0.000002033437
      12        0.000012657631    -0.000005089144    -0.000000501539
      13        0.000029194857     0.000015436871    -0.000015087595
      14       -0.000002739819    -0.000002036493     0.000005676037
      15        0.000001203415    -0.000005601388    -0.000000891179
      16       -0.000013483665     0.000001603969    -0.000000283727

  **** Optimization is complete! (in 9 steps) ****
    Final optimized geometry and variables:
    Molecular point group: c1

    Geometry (in Angstrom), charge = 0, multiplicity = 1:

    H           -0.611949902419    -1.080459372953    -1.564629210058
    C           -1.270146089750    -1.302422291767    -0.730553098768
    O           -1.839924159754    -0.151543037935    -0.180472008912
    H           -2.095459192765    -1.897088464781    -1.098585982208
    H           -0.716646921254    -1.875879418181     0.003434110297
    C           -1.035225339612     0.864513673893     0.351584781512
    C            0.418942098619     0.923062405214    -0.079287188634
    H           -1.505903993723     1.802305158813     0.077164677485
    H           -1.047029935001     0.792713474063     1.436039907909
    O            1.139542847209    -0.115723520172     0.508539811331
    H            0.510103480556     0.889675524341    -1.163793339050
    H            0.817242703269     1.884112421576     0.247070436415
    C            2.491019117289    -0.134521021558     0.171813267385
    H            2.632809737248    -0.262916930447    -0.899522729697
    H            2.989187663904     0.783221814077     0.478333494247
    H            2.944459032162    -0.968894251839     0.688433198995

  Mulliken Charges: (a.u.)
   Center  Symbol    Alpha    Beta     Spin     Total
       1     H     0.43369  0.43369  0.00000  0.13261
       2     C     3.07515  3.07515  0.00000 -0.15030
       3     O     4.31625  4.31625  0.00000 -0.63250
       4     H     0.41638  0.41638  0.00000  0.16724
       5     H     0.41799  0.41799  0.00000  0.16403
       6     C     2.97785  2.97785  0.00000  0.04430
       7     C     3.02220  3.02220  0.00000 -0.04439
       8     H     0.42078  0.42078  0.00000  0.15844
       9     H     0.42031  0.42031  0.00000  0.15938
      10     O     4.30247  4.30247  0.00000 -0.60495
      11     H     0.42466  0.42466  0.00000  0.15069
      12     H     0.42467  0.42467  0.00000  0.15066
      13     C     3.08092  3.08092  0.00000 -0.16184
      14     H     0.42853  0.42853  0.00000  0.14294
      15     H     0.42837  0.42837  0.00000  0.14327
      16     H     0.40979  0.40979  0.00000  0.18043

   Total alpha = 25.00000, Total beta = 25.00000, Total charge =  0.00000
