  ==> Input File <==

--------------------------------------------------------------------------
set {
	reference rhf
	basis cc-pvtz
}

set_num_threads( 4 )
memory 2 gb

molecule MOL {
0 1

H	 -2.123894	 -0.667238	 -0.609809
O	 -2.041679	 -0.058866	 0.103463
C	 -0.959304	 0.780994	 -0.094939
C	 0.354905	 0.037902	 -0.006215
H	 -0.985899	 1.279578	 -1.057596
H	 -0.969809	 1.529522	 0.682889
F	 0.461511	 -0.598888	 1.146575
F	 0.438490	 -0.859680	 -0.965880
F	 1.390703	 0.835536	 -0.110492

	symmetry c1
}
set optking {
	frozen_dihedral = ("
		7 4 3 5
	")
}

ee = optimize('scf')
oeprop('DIPOLE', 'QUADRUPOLE', 'MULLIKEN_CHARGES')
f=open( 'psi4out.xyz', 'w' )
f.write( "9  " )
f.write( str(ee) + "\n" )
f.write( MOL.save_string_xyz() )
f.close()
--------------------------------------------------------------------------

    Molecular point group: c1
  Charge       = 0
  Multiplicity = 1
  Basis Set: CC-PVTZ
  Basis Set:
  @DF-RHF Final Energy:  -450.84673176449542
    Total Energy =                       -450.8467317644952459
    Molecular point group: c1
  Basis Set: CC-PVTZ
  Basis Set:
  Basis Set: CC-PVTZ
  Basis Set:
  @DF-RHF Final Energy:  -450.84706595905021
    Total Energy =                       -450.8470659590506102
  Basis Set: CC-PVTZ
  Basis Set:
  Basis Set: CC-PVTZ
  Basis Set:
  @DF-RHF Final Energy:  -450.84711980491284
    Total Energy =                       -450.8471198049130066
  Basis Set: CC-PVTZ
  Basis Set:
  Basis Set: CC-PVTZ
  Basis Set:
  @DF-RHF Final Energy:  -450.84712420421653
    Total Energy =                       -450.8471242042163567
  Basis Set: CC-PVTZ
  Basis Set:
  Charge       = 0
  Multiplicity = 1
  Basis Set: CC-PVTZ
  Basis Set:

    Orbital Energies (a.u.)
    -----------------------

    Doubly Occupied:

       1A    -26.339806     2A    -26.338767     3A    -26.335458
       4A    -20.583608     5A    -11.493437     6A    -11.310140
       7A     -1.747571     8A     -1.644940     9A     -1.642306
      10A     -1.407040    11A     -1.050408    12A     -0.929609
      13A     -0.837529    14A     -0.836251    15A     -0.810776
      16A     -0.732762    17A     -0.718737    18A     -0.703430
      19A     -0.671551    20A     -0.665490    21A     -0.649068
      22A     -0.633020    23A     -0.618500    24A     -0.534552
      25A     -0.484615

  @DF-RHF Final Energy:  -450.84712497348613

   => Energetics <=

    Nuclear Repulsion Energy =            277.7225138926622208
    One-Electron Energy =               -1177.7005348075501843
    Two-Electron Energy =                 449.1308959414017750
    DFT Exchange-Correlation Energy =       0.0000000000000000
    Empirical Dispersion Energy =           0.0000000000000000
    PCM Polarization Energy =               0.0000000000000000
    EFP Energy =                            0.0000000000000000
    Total Energy =                       -450.8471249734862454
    Molecular point group: c1
  Basis Set: CC-PVTZ
  Basis Set:

  -Total Gradient:
     Atom            X                  Y                   Z
    ------   -----------------  -----------------  -----------------
       1        0.000008028748    -0.000011351768    -0.000008120740
       2        0.000002867624     0.000033739772    -0.000016893652
       3        0.000609695248     0.001125940108     0.000610945206
       4        0.000616541572     0.001171382308     0.000552029435
       5       -0.000660518028    -0.001261613249    -0.000598816473
       6        0.000003252464     0.000011410687     0.000009811167
       7       -0.000574442561    -0.001030843620    -0.000548123934
       8        0.000007718707    -0.000026734754    -0.000011119861
       9       -0.000013143771    -0.000011929490     0.000010288856

  **** Optimization is complete! (in 5 steps) ****
    Final optimized geometry and variables:
    Molecular point group: c1

    Geometry (in Angstrom), charge = 0, multiplicity = 1:

    H           -2.129820191194    -0.643346211972    -0.629902888007
    O           -2.041145456950    -0.045416959525     0.091349121539
    C           -0.952584378693     0.789499567384    -0.098313981531
    C            0.355782177508     0.036872951869    -0.002719495576
    H           -0.972853923262     1.279253075763    -1.065525968474
    H           -0.965898281508     1.539334525496     0.677911698444
    F            0.487888205878    -0.598312962429     1.136465985428
    F            0.451181157846    -0.864065173375    -0.965773834674
    F            1.372176603212     0.863259755703    -0.129806631115

  Mulliken Charges: (a.u.)
   Center  Symbol    Alpha    Beta     Spin     Total
       1     H     0.38686  0.38686  0.00000  0.22628
       2     O     4.19234  4.19234  0.00000 -0.38468
       3     C     2.99054  2.99054  0.00000  0.01891
       4     C     2.68479  2.68479  0.00000  0.63043
       5     H     0.46158  0.46158  0.00000  0.07684
       6     H     0.44707  0.44707  0.00000  0.10587
       7     F     4.60693  4.60693  0.00000 -0.21387
       8     F     4.61799  4.61799  0.00000 -0.23599
       9     F     4.61190  4.61190  0.00000 -0.22379

   Total alpha = 25.00000, Total beta = 25.00000, Total charge =  0.00000
