  ==> Input File <==

--------------------------------------------------------------------------
set {
	reference rhf
	basis 6-31G*
}

set_num_threads( 1 )
memory 2 gb

molecule MOL {
0 1

O	 0.791082	 1.316441	 -0.987186
C	 -0.207597	 1.258989	 -0.345616
C	 -1.142393	 2.412106	 -0.098990
O	 -0.632575	 0.154573	 0.251549
H	 -1.225619	 2.594732	 0.966218
H	 -0.769371	 3.294242	 -0.597515
H	 -2.131500	 2.166988	 -0.468234
C	 0.160891	 -1.019931	 0.106212
C	 1.589627	 -0.672828	 0.480843
H	 0.089836	 -1.367806	 -0.916050
H	 -0.238459	 -1.792301	 0.749618
C	 2.246377	 0.346236	 -0.452210
H	 2.163194	 -1.597435	 0.473358
H	 1.604769	 -0.303424	 1.502885
C	 3.691736	 0.652107	 -0.061850
H	 2.219579	 -0.032311	 -1.472055
H	 1.666466	 1.263317	 -0.447249
H	 4.134505	 1.377213	 -0.737283
H	 4.305508	 -0.243868	 -0.089969
H	 3.748266	 1.059562	 0.943567

	symmetry c1
}
set optking {
	frozen_dihedral = ("
		16 12 9 8,
		12 9 8 10,
		1 2 4 8
	")
}

ee = energy('scf')
oeprop('DIPOLE', 'QUADRUPOLE', 'MULLIKEN_CHARGES')
f=open( 'psi4out.xyz', 'w' )
f.write( "20  " )
f.write( str(ee) + "\n" )
f.write( MOL.save_string_xyz() )
f.close()
--------------------------------------------------------------------------

    Molecular point group: c1

    Geometry (in Angstrom), charge = 0, multiplicity = 1:

       Center              X                  Y                   Z               Mass
    ------------   -----------------  -----------------  -----------------  -----------------
           O         -0.021159180334     0.750314905363    -0.846604563568    15.994914619560
           C         -1.019838180334     0.692862905363    -0.205034563568    12.000000000000
           C         -1.954634180334     1.845979905363     0.041591436432    12.000000000000
           O         -1.444816180334    -0.411553094637     0.392130436432    15.994914619560
           H         -2.037860180334     2.028605905363     1.106799436432     1.007825032070
           H         -1.581612180334     2.728115905363    -0.456933563568     1.007825032070
           H         -2.943741180334     1.600861905363    -0.327652563568     1.007825032070
           C         -0.651350180334    -1.586057094637     0.246793436432    12.000000000000
           C          0.777385819666    -1.238954094637     0.621424436432    12.000000000000
           H         -0.722405180334    -1.933932094637    -0.775468563568     1.007825032070
           H         -1.050700180334    -2.358427094637     0.890199436432     1.007825032070
           C          1.434135819666    -0.219890094637    -0.311628563568    12.000000000000
           H          1.350952819666    -2.163561094637     0.613939436432     1.007825032070
           H          0.792527819666    -0.869550094637     1.643466436432     1.007825032070
           C          2.879494819666     0.085980905363     0.078731436432    12.000000000000
           H          1.407337819666    -0.598437094637    -1.331473563568     1.007825032070
           H          0.854224819666     0.697190905363    -0.306667563568     1.007825032070
           H          3.322263819666     0.811086905363    -0.596701563568     1.007825032070
           H          3.493266819666    -0.809994094637     0.050612436432     1.007825032070
           H          2.936024819666     0.493435905363     1.084148436432     1.007825032070

  Charge       = 0
  Multiplicity = 1
  Basis Set: 6-31G*
  Basis Set:

    Orbital Energies (a.u.)
    -----------------------

    Doubly Occupied:

       1A    -20.610683     2A    -20.572315     3A    -11.380273
       4A    -11.287308     5A    -11.240254     6A    -11.210509
       7A    -11.173758     8A    -11.149108     9A     -1.518067
      10A     -1.413596    11A     -1.090428    12A     -1.014574
      13A     -0.981120    14A     -0.895448    15A     -0.881720
      16A     -0.753623    17A     -0.724455    18A     -0.710038
      19A     -0.690608    20A     -0.618221    21A     -0.607971
      22A     -0.598940    23A     -0.574123    24A     -0.561727
      25A     -0.537826    26A     -0.528991    27A     -0.518258
      28A     -0.502331    29A     -0.472609    30A     -0.440483
      31A     -0.432062    32A     -0.267308

  @DF-RHF Final Energy:  -383.67992831600253

   => Energetics <=

    Nuclear Repulsion Energy =            419.7083372179552612
    One-Electron Energy =               -1354.8589997576852966
    Two-Electron Energy =                 551.4707342237283001
    DFT Exchange-Correlation Energy =       0.0000000000000000
    Empirical Dispersion Energy =           0.0000000000000000
    PCM Polarization Energy =               0.0000000000000000
    EFP Energy =                            0.0000000000000000
    Total Energy =                       -383.6799283160017922

  Mulliken Charges: (a.u.)
   Center  Symbol    Alpha    Beta     Spin     Total
       1     O     4.25891  4.25891  0.00000 -0.51783
       2     C     2.64062  2.64062  0.00000  0.71877
       3     C     3.27735  3.27735  0.00000 -0.55471
       4     O     4.30548  4.30548  0.00000 -0.61096
       5     H     0.40291  0.40291  0.00000  0.19418
       6     H     0.39942  0.39942  0.00000  0.20117
       7     H     0.39674  0.39674  0.00000  0.20652
       8     C     3.01067  3.01067  0.00000 -0.02135
       9     C     3.18145  3.18145  0.00000 -0.36291
      10     H     0.41233  0.41233  0.00000  0.17534
      11     H     0.40349  0.40349  0.00000  0.19301
      12     C     3.16528  3.16528  0.00000 -0.33056
      13     H     0.42066  0.42066  0.00000  0.15867
      14     H     0.41918  0.41918  0.00000  0.16165
      15     C     3.22956  3.22956  0.00000 -0.45911
      16     H     0.43173  0.43173  0.00000  0.13655
      17     H     0.33963  0.33963  0.00000  0.32074
      18     H     0.42821  0.42821  0.00000  0.14357
      19     H     0.44053  0.44053  0.00000  0.11894
      20     H     0.43585  0.43585  0.00000  0.12831

   Total alpha = 32.00000, Total beta = 32.00000, Total charge =  0.00000
