  ==> Input File <==

--------------------------------------------------------------------------
set {
	reference rhf
	basis 6-31G*
}

set_num_threads( 1 )
memory 2 gb

molecule MOL {
0 1

H	 2.087091	 -0.474087	 0.783560
O	 1.586534	 -0.678666	 -0.000226
C	 0.489431	 0.077273	 0.000046
C	 -0.764129	 -0.759190	 0.000191
O	 0.537743	 1.263962	 0.000257
C	 -2.038368	 0.075731	 -0.000248
H	 -0.717284	 -1.412404	 -0.866059
H	 -0.717458	 -1.411724	 0.866967
H	 -2.086483	 0.712501	 -0.875098
H	 -2.908485	 -0.571682	 -0.000042
H	 -2.086576	 0.713280	 0.874068

	symmetry c1
}
set optking {
	frozen_dihedral = ("
		2 3 4 7
	")
}

ee = energy('scf')
oeprop('DIPOLE', 'QUADRUPOLE', 'MULLIKEN_CHARGES')
f=open( 'psi4out.xyz', 'w' )
f.write( "11  " )
f.write( str(ee) + "\n" )
f.write( MOL.save_string_xyz() )
f.close()
--------------------------------------------------------------------------

    Molecular point group: c1

    Geometry (in Angstrom), charge = 0, multiplicity = 1:

       Center              X                  Y                   Z               Mass
    ------------   -----------------  -----------------  -----------------  -----------------
           H          2.090584755614    -0.469012309531     0.772891114248     1.007825032070
           O          1.590027755614    -0.673591309531    -0.010894885752    15.994914619560
           C          0.492924755614     0.082347690469    -0.010622885752    12.000000000000
           C         -0.760635244386    -0.754115309531    -0.010477885752    12.000000000000
           O          0.541236755614     1.269036690469    -0.010411885752    15.994914619560
           C         -2.034874244386     0.080805690469    -0.010916885752    12.000000000000
           H         -0.713790244386    -1.407329309531    -0.876727885752     1.007825032070
           H         -0.713964244386    -1.406649309531     0.856298114248     1.007825032070
           H         -2.082989244386     0.717575690469    -0.885766885752     1.007825032070
           H         -2.904991244386    -0.566607309531    -0.010710885752     1.007825032070
           H         -2.083082244386     0.718354690469     0.863399114248     1.007825032070

  Charge       = 0
  Multiplicity = 1
  Basis Set: 6-31G*
  Basis Set:

    Orbital Energies (a.u.)
    -----------------------

    Doubly Occupied:

       1A    -20.602604     2A    -20.558335     3A    -11.381073
       4A    -11.243738     5A    -11.219895     6A     -1.471778
       7A     -1.368330     8A     -1.063994     9A     -0.912515
      10A     -0.805264    11A     -0.708811    12A     -0.684372
      13A     -0.661579    14A     -0.613577    15A     -0.570224
      16A     -0.527038    17A     -0.522998    18A     -0.501763
      19A     -0.485022    20A     -0.446025

  @DF-RHF Final Energy:  -266.82970662976896

   => Energetics <=

    Nuclear Repulsion Energy =            179.7708453358884526
    One-Electron Energy =                -720.5032431371701023
    Two-Electron Energy =                 273.9026911715130836
    DFT Exchange-Correlation Energy =       0.0000000000000000
    Empirical Dispersion Energy =           0.0000000000000000
    PCM Polarization Energy =               0.0000000000000000
    EFP Energy =                            0.0000000000000000
    Total Energy =                       -266.8297066297685660

  Mulliken Charges: (a.u.)
   Center  Symbol    Alpha    Beta     Spin     Total
       1     H     0.26483  0.26483  0.00000  0.47033
       2     O     4.35530  4.35530  0.00000 -0.71060
       3     C     2.63559  2.63559  0.00000  0.72881
       4     C     3.20646  3.20646  0.00000 -0.41292
       5     O     4.25984  4.25984  0.00000 -0.51968
       6     C     3.24013  3.24013  0.00000 -0.48026
       7     H     0.39739  0.39739  0.00000  0.20523
       8     H     0.40419  0.40419  0.00000  0.19161
       9     H     0.40829  0.40829  0.00000  0.18342
      10     H     0.41727  0.41727  0.00000  0.16546
      11     H     0.41071  0.41071  0.00000  0.17859

   Total alpha = 20.00000, Total beta = 20.00000, Total charge = -0.00000
