  ==> Input File <==

--------------------------------------------------------------------------
set {
	reference rhf
	basis cc-pvtz
}

set_num_threads( 4 )
memory 2 gb

molecule MOL {
0 1

H	 0.595114	 -2.203412	 0.053990
C	 0.276961	 -1.378043	 0.680651
N	 0.526300	 -0.128137	 0.000000
H	 0.853898	 -1.419282	 1.595792
H	 -0.773658	 -1.538955	 0.931405
C	 -0.247113	 0.037112	 -1.209233
H	 0.357801	 0.635310	 0.618398
H	 -0.996493	 -0.743733	 -1.271440
H	 0.397975	 -0.057351	 -2.073512
H	 -0.763794	 0.997171	 -1.271673

	symmetry c1
}
set optking {
	frozen_dihedral = ("
		2 3 6 8
	")
}

ee = optimize('scf')
oeprop('DIPOLE', 'QUADRUPOLE', 'MULLIKEN_CHARGES')
f=open( 'psi4out.xyz', 'w' )
f.write( "10  " )
f.write( str(ee) + "\n" )
f.write( MOL.save_string_xyz() )
f.close()
--------------------------------------------------------------------------

    Molecular point group: c1
  Charge       = 0
  Multiplicity = 1
  Basis Set: CC-PVTZ
  Basis Set:
  @DF-RHF Final Energy:  -134.28801879892026
    Total Energy =                       -134.2880187989203478
    Molecular point group: c1
  Basis Set: CC-PVTZ
  Basis Set:
  Basis Set: CC-PVTZ
  Basis Set:
  @DF-RHF Final Energy:  -134.28859396563871
    Total Energy =                       -134.2885939656387677
  Basis Set: CC-PVTZ
  Basis Set:
  Basis Set: CC-PVTZ
  Basis Set:
  @DF-RHF Final Energy:  -134.28869356141018
    Total Energy =                       -134.2886935614101276
  Basis Set: CC-PVTZ
  Basis Set:
  Charge       = 0
  Multiplicity = 1
  Basis Set: CC-PVTZ
  Basis Set:

    Orbital Energies (a.u.)
    -----------------------

    Doubly Occupied:

       1A    -15.530275     2A    -11.234443     3A    -11.234057
       4A     -1.197037     5A     -0.948153     6A     -0.854982
       7A     -0.660734     8A     -0.611264     9A     -0.589425
      10A     -0.544930    11A     -0.509499    12A     -0.505893
      13A     -0.360670

  @DF-RHF Final Energy:  -134.28869468522953

   => Energetics <=

    Nuclear Repulsion Energy =             84.4983557022137006
    One-Electron Energy =                -348.0113775892286867
    Two-Electron Energy =                 129.2243272017854281
    DFT Exchange-Correlation Energy =       0.0000000000000000
    Empirical Dispersion Energy =           0.0000000000000000
    PCM Polarization Energy =               0.0000000000000000
    EFP Energy =                            0.0000000000000000
    Total Energy =                       -134.2886946852295580
    Molecular point group: c1
  Basis Set: CC-PVTZ
  Basis Set:

  -Total Gradient:
     Atom            X                  Y                   Z
    ------   -----------------  -----------------  -----------------
       1        0.000001816662     0.000055793992    -0.000024572057
       2       -0.001488508005     0.000909848734     0.001101071185
       3        0.002545412113    -0.001731226628    -0.001853763579
       4        0.000010317382     0.000003090272     0.000005071945
       5        0.000003463009     0.000012253624    -0.000008433741
       6       -0.002729572224     0.002280141594     0.002091170436
       7        0.000018740971    -0.000045339480     0.000011863701
       8        0.001687753045    -0.001512823426    -0.001300260273
       9       -0.000012292593     0.000018328785    -0.000005070274
      10       -0.000037130360     0.000009932533    -0.000017077343

  **** Optimization is complete! (in 4 steps) ****
    Final optimized geometry and variables:
    Molecular point group: c1

    Geometry (in Angstrom), charge = 0, multiplicity = 1:

    H            0.441918954053    -1.716898067488     0.253848646700
    C            0.119269843412    -0.883806536593     0.867747373355
    N            0.356558787133     0.360455346860     0.171377351600
    H            0.702248764749    -0.907339753171     1.779966657756
    H           -0.928067763268    -1.049125750637     1.126714311084
    C           -0.413880234856     0.531867137521    -1.050217853285
    H            0.191490611836     1.122593452220     0.788991760490
    H           -1.180062747978    -0.231133876185    -1.158943702865
    H            0.226201992612     0.464304003232    -1.923787082594
    H           -0.900007032330     1.499789278462    -1.075322797395

  Mulliken Charges: (a.u.)
   Center  Symbol    Alpha    Beta     Spin     Total
       1     H     0.45640  0.45640  0.00000  0.08719
       2     C     3.08334  3.08334  0.00000 -0.16668
       3     N     3.63130  3.63130  0.00000 -0.26259
       4     H     0.45314  0.45314  0.00000  0.09371
       5     H     0.47380  0.47380  0.00000  0.05240
       6     C     3.07651  3.07651  0.00000 -0.15302
       7     H     0.44071  0.44071  0.00000  0.11857
       8     H     0.46919  0.46919  0.00000  0.06161
       9     H     0.45634  0.45634  0.00000  0.08733
      10     H     0.45927  0.45927  0.00000  0.08147

   Total alpha = 13.00000, Total beta = 13.00000, Total charge =  0.00000
