                              Psi4 1.0.54 Driver

  ==> Input File <==

--------------------------------------------------------------------------
set {
	reference rhf
	basis cc-pvtz
}

set_num_threads( 4 )
memory 2 gb

molecule MOL {
0 1

H	 1.069906	 -2.315705	 1.184850
C	 1.163795	 -1.309870	 1.615122
C	 -0.074430	 -0.461119	 1.530159
O	 2.187662	 -0.965400	 2.095402
C	 -0.554654	 -0.292621	 0.086567
H	 0.133372	 0.495736	 1.990685
H	 -0.848819	 -0.955982	 2.112663
C	 -1.846385	 0.513195	 -0.016346
H	 0.222869	 0.196233	 -0.493448
H	 -0.705200	 -1.270952	 -0.362741
C	 -3.089953	 -0.365049	 -0.098564
H	 -1.798267	 1.154820	 -0.891143
H	 -1.925398	 1.173265	 0.842889
H	 -3.055079	 -1.012299	 -0.968245
H	 -3.988403	 0.236438	 -0.170014
H	 -3.183055	 -0.995885	 0.779079

	symmetry c1
}
set optking {
	frozen_dihedral = ("
		9 5 8 12
	")
}

ee,wfn = optimize('scf', return_wfn=True)
oeprop( wfn, 'DIPOLE', 'QUADRUPOLE', 'MULLIKEN_CHARGES')
f=open( 'psi4out.xyz', 'w' )
f.write( "16  " )
f.write( str(ee) + "\n" )
f.write( MOL.save_string_xyz() )
f.close()
--------------------------------------------------------------------------

    Molecular point group: c1
  Charge       = 0
  Multiplicity = 1
  Basis Set: CC-PVTZ
  Basis Set:
  @DF-RHF Final Energy:  -270.11497677141813
    Total Energy =                       -270.1149767714180712
    Molecular point group: c1
  Basis Set: CC-PVTZ
  Basis Set:
  Basis Set: CC-PVTZ
  Basis Set:
  @DF-RHF Final Energy:  -270.11526764107469
    Total Energy =                       -270.1152676410745244
  Basis Set: CC-PVTZ
  Basis Set:
  Basis Set: CC-PVTZ
  Basis Set:
  @DF-RHF Final Energy:  -270.11468982410366
    Total Energy =                       -270.1146898241036070
  Basis Set: CC-PVTZ
  Basis Set:
  Basis Set: CC-PVTZ
  Basis Set:
  @DF-RHF Final Energy:  -270.11531846671164
    Total Energy =                       -270.1153184667113578
  Basis Set: CC-PVTZ
  Basis Set:
  Basis Set: CC-PVTZ
  Basis Set:
  @DF-RHF Final Energy:  -270.11533352278434
    Total Energy =                       -270.1153335227843399
  Basis Set: CC-PVTZ
  Basis Set:
  Basis Set: CC-PVTZ
  Basis Set:
  @DF-RHF Final Energy:  -270.11533596771778
    Total Energy =                       -270.1153359677180106
  Basis Set: CC-PVTZ
  Basis Set:
  Basis Set: CC-PVTZ
  Basis Set:
  @DF-RHF Final Energy:  -270.11533911958907
    Total Energy =                       -270.1153391195890663
  Basis Set: CC-PVTZ
  Basis Set:
  Charge       = 0
  Multiplicity = 1
  Basis Set: CC-PVTZ
  Basis Set:

    Orbital Energies (a.u.)
    -----------------------

    Doubly Occupied:

       1A    -20.552204     2A    -11.321273     3A    -11.234785
       4A    -11.234132     5A    -11.227404     6A    -11.218514
       7A     -1.406940     8A     -1.096810     9A     -1.018532
      10A     -0.910705    11A     -0.811452    12A     -0.794683
      13A     -0.681171    14A     -0.644041    15A     -0.634003
      16A     -0.609785    17A     -0.574494    18A     -0.563101
      19A     -0.528824    20A     -0.515242    21A     -0.488496
      22A     -0.483771    23A     -0.472177    24A     -0.411675

  @DF-RHF Final Energy:  -270.11533917931285

   => Energetics <=

    Nuclear Repulsion Energy =            230.9489540500561588
    One-Electron Energy =                -823.2601557594894075
    Two-Electron Energy =                 322.1958625301202801
    DFT Exchange-Correlation Energy =       0.0000000000000000
    Empirical Dispersion Energy =           0.0000000000000000
    PCM Polarization Energy =               0.0000000000000000
    EFP Energy =                            0.0000000000000000
    Total Energy =                       -270.1153391793129686
    Molecular point group: c1
  Basis Set: CC-PVTZ
  Basis Set:

  -Total Gradient:
     Atom            X                  Y                   Z
    ------   -----------------  -----------------  -----------------
       1        0.000003232501     0.000005328602    -0.000003272268
       2        0.000003246942    -0.000001175920     0.000012386591
       3        0.000005232202     0.000003408701    -0.000028396989
       4       -0.000008530033    -0.000005126559     0.000002817091
       5        0.001316055042     0.003031186857     0.004053060723
       6       -0.000000055161    -0.000003309041     0.000002541556
       7        0.000005802379    -0.000000670082     0.000009517090
       8       -0.001822976193    -0.003718967388    -0.003152184197
       9       -0.000814638537    -0.001945951074    -0.002879620989
      10        0.000000995654     0.000002484474    -0.000000552328
      11       -0.000005426569    -0.000005271736    -0.000001272389
      12        0.001315841267     0.002638396472     0.001986876090
      13        0.000001760800     0.000001053133    -0.000001937284
      14       -0.000002071617     0.000000102168    -0.000000956923
      15        0.000002610216    -0.000001210177     0.000001209073
      16       -0.000001078890    -0.000000278429    -0.000000214844

  **** Optimization is complete! (in 8 steps) ****
    Final optimized geometry and variables:
    Molecular point group: c1

    Geometry (in Angstrom), charge = 0, multiplicity = 1:

    H            1.399327587783    -1.838923751394     0.355447746811
    C            1.507605707985    -0.832336415227     0.780476338395
    C            0.291143538786     0.043922194203     0.664729761910
    O            2.529182705911    -0.507223132365     1.278785267298
    C           -0.145356094445     0.227759344650    -0.790881829964
    H            0.507021829003     0.995461777276     1.132015607515
    H           -0.508318012244    -0.435334750297     1.225892378425
    C           -1.466688723986     0.998740835717    -0.938520421011
    H            0.639987673007     0.725221982641    -1.349109635164
    H           -0.252690423546    -0.748728990502    -1.257033226265
    C           -2.697372993275     0.101375116333    -1.009381031139
    H           -1.417764119162     1.634343024530    -1.815375330960
    H           -1.572105406114     1.682567677932    -0.101117265431
    H           -2.662585542168    -0.539094268984    -1.883900497842
    H           -3.606286445371     0.688824518192    -1.064080743442
    H           -2.772451582442    -0.537608635606    -0.135587324328

  Mulliken Charges: (a.u.)
   Center  Symbol    Alpha    Beta     Spin     Total
       1     H     0.46495  0.46495  0.00000  0.07010
       2     C     2.90887  2.90887  0.00000  0.18227
       3     C     3.07784  3.07784  0.00000 -0.15568
       4     O     4.16362  4.16362  0.00000 -0.32723
       5     C     3.10951  3.10951  0.00000 -0.21902
       6     H     0.44196  0.44196  0.00000  0.11608
       7     H     0.45045  0.45045  0.00000  0.09910
       8     C     3.09062  3.09062  0.00000 -0.18123
       9     H     0.43835  0.43835  0.00000  0.12330
      10     H     0.45344  0.45344  0.00000  0.09312
      11     C     3.14713  3.14713  0.00000 -0.29426
      12     H     0.44481  0.44481  0.00000  0.11038
      13     H     0.45316  0.45316  0.00000  0.09368
      14     H     0.45363  0.45363  0.00000  0.09274
      15     H     0.44614  0.44614  0.00000  0.10773
      16     H     0.45553  0.45553  0.00000  0.08893

   Total alpha = 24.00000, Total beta = 24.00000, Total charge =  0.00000

*** Psi4 exiting successfully. Buy a developer a beer!
