                              Psi4 1.0.54 Driver

  ==> Input File <==

--------------------------------------------------------------------------
set {
	reference rhf
	basis cc-pvtz
}

set_num_threads( 4 )
memory 2 gb

molecule MOL {
0 1

O	 0.749630	 1.305591	 -0.000460
C	 0.576499	 0.134701	 -0.003900
C	 -0.765656	 -0.550508	 -0.002152
O	 1.564816	 -0.744612	 -0.000631
C	 -1.945526	 0.411052	 0.000603
H	 -0.794329	 -1.203792	 -0.868145
H	 -0.791555	 -1.205429	 0.862701
C	 -1.897979	 1.374711	 1.181291
H	 -2.868341	 -0.155781	 0.023088
H	 -1.955965	 0.966400	 -0.929375
H	 -1.918598	 0.842268	 2.126484
H	 -2.745806	 2.048772	 1.164143
H	 -0.996231	 1.977892	 1.162600
C	 2.884339	 -0.237801	 0.002883
H	 3.064150	 0.362814	 -0.876312
H	 3.533055	 -1.098529	 0.004958
H	 3.059365	 0.363432	 0.882614

	symmetry c1
}
set optking {
	frozen_dihedral = ("
		9 5 3 6
	")
}

ee,wfn = optimize('scf', return_wfn=True)
oeprop( wfn, 'DIPOLE', 'QUADRUPOLE', 'MULLIKEN_CHARGES')
f=open( 'psi4out.xyz', 'w' )
f.write( "17  " )
f.write( str(ee) + "\n" )
f.write( MOL.save_string_xyz() )
f.close()
--------------------------------------------------------------------------

    Molecular point group: c1
  Charge       = 0
  Multiplicity = 1
  Basis Set: CC-PVTZ
  Basis Set:
  @DF-RHF Final Energy:  -345.03087430138612
    Total Energy =                       -345.0308743013868593
    Molecular point group: c1
  Basis Set: CC-PVTZ
  Basis Set:
  Basis Set: CC-PVTZ
  Basis Set:
  @DF-RHF Final Energy:  -345.03324269793671
    Total Energy =                       -345.0332426979368279
  Basis Set: CC-PVTZ
  Basis Set:
  Basis Set: CC-PVTZ
  Basis Set:
  @DF-RHF Final Energy:  -345.02976301333672
    Total Energy =                       -345.0297630133364919
  Basis Set: CC-PVTZ
  Basis Set:
  Basis Set: CC-PVTZ
  Basis Set:
  @DF-RHF Final Energy:  -345.03384323550978
    Total Energy =                       -345.0338432355093801
  Basis Set: CC-PVTZ
  Basis Set:
  @DF-RHF Final Energy:  -345.03410236124125
    Total Energy =                       -345.0341023612411391
  Basis Set: CC-PVTZ
  Basis Set:
  @DF-RHF Final Energy:  -345.03414676439428
    Total Energy =                       -345.0341467643941087
  Basis Set: CC-PVTZ
  Basis Set:
  Basis Set: CC-PVTZ
  Basis Set:
  @DF-RHF Final Energy:  -345.03426162358926
    Total Energy =                       -345.0342616235894297
  Basis Set: CC-PVTZ
  Basis Set:
  Basis Set: CC-PVTZ
  Basis Set:
  @DF-RHF Final Energy:  -345.03426851094628
    Total Energy =                       -345.0342685109463901
  Basis Set: CC-PVTZ
  Basis Set:
  Charge       = 0
  Multiplicity = 1
  Basis Set: CC-PVTZ
  Basis Set:

    Orbital Energies (a.u.)
    -----------------------

    Doubly Occupied:

       1A    -20.597903     2A    -20.533775     3A    -11.365394
       4A    -11.279114     5A    -11.234639     6A    -11.222009
       7A    -11.206359     8A     -1.473280     9A     -1.366226
      10A     -1.080348    11A     -1.000352    12A     -0.939894
      13A     -0.830535    14A     -0.768210    15A     -0.701278
      16A     -0.685171    17A     -0.674945    18A     -0.625738
      19A     -0.614425    20A     -0.569743    21A     -0.563533
      22A     -0.536353    23A     -0.525434    24A     -0.491456
      25A     -0.484955    26A     -0.482447    27A     -0.460598
      28A     -0.438497

  @DF-RHF Final Energy:  -345.03426935476182

   => Energetics <=

    Nuclear Repulsion Energy =            319.0987121218990978
    One-Electron Energy =               -1102.7607382211390359
    Two-Electron Energy =                 438.6277567444781198
    DFT Exchange-Correlation Energy =       0.0000000000000000
    Empirical Dispersion Energy =           0.0000000000000000
    PCM Polarization Energy =               0.0000000000000000
    EFP Energy =                            0.0000000000000000
    Total Energy =                       -345.0342693547618182
    Molecular point group: c1
  Basis Set: CC-PVTZ
  Basis Set:

  -Total Gradient:
     Atom            X                  Y                   Z
    ------   -----------------  -----------------  -----------------
       1        0.000072212048     0.000065276527    -0.000006025970
       2       -0.000045957486     0.000002934205    -0.000031026579
       3       -0.001823082856    -0.002166621610     0.002305969392
       4        0.000074303839     0.000038779472     0.000002487432
       5        0.000406524883     0.000352405658    -0.003458997523
       6        0.001448953906     0.001701487688    -0.001363254809
       7       -0.000034364333    -0.000015093219    -0.000016991952
       8        0.000040151691    -0.000038460417    -0.000028960682
       9       -0.000041378492     0.000066021192     0.002593317217
      10        0.000000941625    -0.000002845761    -0.000007197070
      11       -0.000011862162    -0.000000708029     0.000003259121
      12       -0.000014927403     0.000017785110     0.000006990505
      13       -0.000001589163     0.000008453919     0.000001172859
      14       -0.000063921368    -0.000040732180    -0.000000145803
      15       -0.000005351012    -0.000001339116    -0.000050539134
      16        0.000017060343    -0.000024710026     0.000015029701
      17       -0.000017714058     0.000037366590     0.000034913295

  **** Optimization is complete! (in 9 steps) ****
    Final optimized geometry and variables:
    Molecular point group: c1

    Geometry (in Angstrom), charge = 0, multiplicity = 1:

    O            0.603951397865     0.941151342351    -0.706821873119
    C            0.396476055949    -0.132250452906    -0.251451201728
    C           -0.953471597183    -0.804889095340    -0.188686304636
    O            1.351505070595    -0.911181373775     0.227106217208
    C           -2.135583984387     0.158419558424    -0.235950050943
    H           -0.972345718745    -1.459267317970    -1.056172537066
    H           -0.986908639500    -1.439251899441     0.687203577300
    C           -2.194776766626     1.120577235189     0.948313605415
    H           -3.042329093658    -0.437560671119    -0.236003340259
    H           -2.110816391720     0.716677838773    -1.162757521112
    H           -2.231573428434     0.578746777963     1.888518583324
    H           -3.083346549460     1.738353016559     0.891801563645
    H           -1.335779202632     1.777659466135     0.968431471360
    C            2.677586714607    -0.426024139973     0.162472811423
    H            2.966748303910    -0.242506848404    -0.861776651996
    H            3.297335928733    -1.196167546677     0.592226102353
    H            2.775849388631     0.489832829135     0.726079483408

  Mulliken Charges: (a.u.)
   Center  Symbol    Alpha    Beta     Spin     Total
       1     O     4.20110  4.20110  0.00000 -0.40220
       2     C     2.80551  2.80551  0.00000  0.38898
       3     C     3.10273  3.10273  0.00000 -0.20546
       4     O     4.14566  4.14566  0.00000 -0.29133
       5     C     3.08261  3.08261  0.00000 -0.16522
       6     H     0.43772  0.43772  0.00000  0.12457
       7     H     0.43698  0.43698  0.00000  0.12604
       8     C     3.15540  3.15540  0.00000 -0.31079
       9     H     0.44827  0.44827  0.00000  0.10346
      10     H     0.44607  0.44607  0.00000  0.10785
      11     H     0.45714  0.45714  0.00000  0.08571
      12     H     0.44781  0.44781  0.00000  0.10437
      13     H     0.44337  0.44337  0.00000  0.11326
      14     C     3.03589  3.03589  0.00000 -0.07178
      15     H     0.45444  0.45444  0.00000  0.09112
      16     H     0.44519  0.44519  0.00000  0.10962
      17     H     0.45411  0.45411  0.00000  0.09178

   Total alpha = 28.00000, Total beta = 28.00000, Total charge =  0.00000

*** Psi4 exiting successfully. Buy a developer a beer!
