  ==> Input File <==

--------------------------------------------------------------------------
set {
	reference rhf
	basis 6-31G*
}

set_num_threads( 4 )
memory 2 gb

molecule MOL {
0 1

O	 2.134291	 1.807497	 -0.189915
C	 0.987211	 1.453279	 -0.248557
C	 -0.114609	 2.473840	 -0.464281
N	 0.623947	 0.147590	 -0.102813
H	 -0.825407	 2.470502	 0.354766
H	 0.352511	 3.445079	 -0.523783
H	 -0.659083	 2.284821	 -1.383194
C	 1.665360	 -0.855771	 0.000151
C	 -0.700322	 -0.361120	 -0.385249
H	 2.465253	 -0.618490	 -0.692587
H	 1.257730	 -1.821716	 -0.242189
H	 2.081488	 -0.891645	 1.004627
H	 -0.906830	 -1.196514	 0.273165
H	 -1.458147	 0.386143	 -0.211371
H	 -0.790166	 -0.712763	 -1.411450

	symmetry c1
}
set optking {
	frozen_dihedral = ("
		2 4 8 10
	")
}

ee = optimize('scf')
oeprop('DIPOLE', 'QUADRUPOLE', 'MULLIKEN_CHARGES')
f=open( 'psi4out.xyz', 'w' )
f.write( "15  " )
f.write( str(ee) + "\n" )
f.write( MOL.save_string_xyz() )
f.close()
--------------------------------------------------------------------------

    Molecular point group: c1
  Charge       = 0
  Multiplicity = 1
  Basis Set: 6-31G*
  Basis Set:
  @DF-RHF Final Energy:  -286.02784270846502
    Total Energy =                       -286.0278427084649593
    Molecular point group: c1
  Basis Set: 6-31G*
  Basis Set:
  Basis Set: 6-31G*
  Basis Set:
  @DF-RHF Final Energy:  -286.02841904807195
    Total Energy =                       -286.0284190480718394
  Basis Set: 6-31G*
  Basis Set:
  Basis Set: 6-31G*
  Basis Set:
  @DF-RHF Final Energy:  -286.02857189785936
    Total Energy =                       -286.0285718978594218
  Basis Set: 6-31G*
  Basis Set:
  Basis Set: 6-31G*
  Basis Set:
  @DF-RHF Final Energy:  -286.02865672672334
    Total Energy =                       -286.0286567267231703
  Basis Set: 6-31G*
  Basis Set:
  @DF-RHF Final Energy:  -286.02881998777286
    Total Energy =                       -286.0288199877729767
  @DF-RHF Final Energy:  -286.02895778657239
    Total Energy =                       -286.0289577865722777
  @DF-RHF Final Energy:  -286.02908034623113
    Total Energy =                       -286.0290803462311260
  @DF-RHF Final Energy:  -286.02925273425353
    Total Energy =                       -286.0292527342533049
  @DF-RHF Final Energy:  -286.02942579169621
    Total Energy =                       -286.0294257916959850
  @DF-RHF Final Energy:  -286.02958253633273
    Total Energy =                       -286.0295825363324411
  Basis Set: 6-31G*
  Basis Set:
  @DF-RHF Final Energy:  -286.02961342925511
    Total Energy =                       -286.0296134292547094
  Basis Set: 6-31G*
  Basis Set:
  Basis Set: 6-31G*
  Basis Set:
  @DF-RHF Final Energy:  -286.02966851532074
    Total Energy =                       -286.0296685153206795
  Basis Set: 6-31G*
  Basis Set:
  Basis Set: 6-31G*
  Basis Set:
  @DF-RHF Final Energy:  -286.02967415646737
    Total Energy =                       -286.0296741564673084
  Basis Set: 6-31G*
  Basis Set:
  Charge       = 0
  Multiplicity = 1
  Basis Set: 6-31G*
  Basis Set:

    Orbital Energies (a.u.)
    -----------------------

    Doubly Occupied:

       1A    -20.515545     2A    -15.583229     3A    -11.340747
       4A    -11.266417     5A    -11.248031     6A    -11.228452
       7A     -1.385219     8A     -1.242899     9A     -1.014049
      10A     -0.972735    11A     -0.918132    12A     -0.737389
      13A     -0.680485    14A     -0.658665    15A     -0.651337
      16A     -0.588755    17A     -0.576416    18A     -0.568785
      19A     -0.562834    20A     -0.545989    21A     -0.529557
      22A     -0.501659    23A     -0.411158    24A     -0.367497

  @DF-RHF Final Energy:  -286.02967502941675

   => Energetics <=

    Nuclear Repulsion Energy =            252.5555896972802543
    One-Electron Energy =                -888.9785621996713871
    Two-Electron Energy =                 350.3932974729747230
    DFT Exchange-Correlation Energy =       0.0000000000000000
    Empirical Dispersion Energy =           0.0000000000000000
    PCM Polarization Energy =               0.0000000000000000
    EFP Energy =                            0.0000000000000000
    Total Energy =                       -286.0296750294163530
    Molecular point group: c1
  Basis Set: 6-31G*
  Basis Set:

  -Total Gradient:
     Atom            X                  Y                   Z
    ------   -----------------  -----------------  -----------------
       1       -0.000008420137    -0.000083571297    -0.000040271016
       2       -0.000127826016    -0.000000436817     0.000502518242
       3       -0.000043561785    -0.000041279844    -0.000003091485
       4        0.000199631855     0.000034032511    -0.000727223341
       5       -0.000004115832    -0.000002719499    -0.000010726991
       6        0.000013943179    -0.000018053683    -0.000000001309
       7       -0.000020001339    -0.000014766610    -0.000014455524
       8        0.000044653485     0.000239261337     0.000819869103
       9        0.000056732698    -0.000007091839    -0.000006753544
      10       -0.000119254478    -0.000203106653    -0.000492148456
      11        0.000006081230     0.000019215952    -0.000015346838
      12        0.000002793247     0.000006707426     0.000004335252
      13        0.000021481095     0.000007354358     0.000011873477
      14       -0.000025701820     0.000065719824    -0.000019664924
      15        0.000003564615    -0.000001265166    -0.000008912647

  **** Optimization is complete! (in 14 steps) ****
    Final optimized geometry and variables:
    Molecular point group: c1

    Geometry (in Angstrom), charge = 0, multiplicity = 1:

    O            1.353706893160     1.023865751638     0.204151101511
    C            0.220278405787     0.681250412383    -0.000056402920
    C           -0.879026316358     1.716197661082    -0.145190834662
    N           -0.116456634282    -0.633342474895    -0.138011571493
    H           -1.615712511301     1.625108343303     0.646030522638
    H           -0.416807431989     2.689821069139    -0.084824172923
    H           -1.392740042635     1.622224438805    -1.095497708012
    C            0.921032965696    -1.615187782353     0.119145531089
    C           -1.478558440730    -1.118185040032    -0.069550005179
    H            1.857624202024    -1.268305776270    -0.284867139747
    H            0.650225595199    -2.546287430644    -0.363139882000
    H            1.049089985588    -1.799534340833     1.182961126416
    H           -1.782080373698    -1.346253697353     0.950859039660
    H           -2.171740032791    -0.401028033685    -0.480358606063
    H           -1.562122043002    -2.025556430010    -0.654699650182

  Mulliken Charges: (a.u.)
   Center  Symbol    Alpha    Beta     Spin     Total
       1     O     4.30310  4.30310  0.00000 -0.60620
       2     C     2.62543  2.62543  0.00000  0.74914
       3     C     3.29825  3.29825  0.00000 -0.59651
       4     N     3.82219  3.82219  0.00000 -0.64438
       5     H     0.40756  0.40756  0.00000  0.18489
       6     H     0.39066  0.39066  0.00000  0.21869
       7     H     0.40648  0.40648  0.00000  0.18704
       8     C     3.14068  3.14068  0.00000 -0.28136
       9     C     3.14274  3.14274  0.00000 -0.28548
      10     H     0.39131  0.39131  0.00000  0.21739
      11     H     0.41947  0.41947  0.00000  0.16105
      12     H     0.41757  0.41757  0.00000  0.16487
      13     H     0.41720  0.41720  0.00000  0.16560
      14     H     0.40739  0.40739  0.00000  0.18521
      15     H     0.40998  0.40998  0.00000  0.18003

   Total alpha = 24.00000, Total beta = 24.00000, Total charge =  0.00000
