                              Psi4 1.0.54 Driver

  ==> Input File <==

--------------------------------------------------------------------------
set {
	reference rhf
	basis cc-pvtz
}

set_num_threads( 4 )
memory 2 gb

molecule MOL {
0 1

H	 -0.939693	 0.000281	 1.681345
O	 -0.046262	 -0.000157	 1.387678
C	 -0.000837	 0.000006	 -0.025491
C	 -0.477155	 -1.352195	 -0.552581
C	 -0.875535	 1.129996	 -0.565094
C	 1.460862	 0.232789	 -0.382473
H	 -0.419266	 -1.394961	 -1.634068
H	 -1.509390	 -1.533960	 -0.268817
H	 0.130218	 -2.149571	 -0.143006
H	 -0.832178	 1.178127	 -1.647032
H	 -1.913271	 0.982376	 -0.281570
H	 -0.548872	 2.081374	 -0.164300
H	 1.598314	 0.249469	 -1.457237
H	 2.077761	 -0.554253	 0.032511
H	 1.799879	 1.177344	 0.023849

	symmetry c1
}
set optking {
	frozen_dihedral = ("
		4 3 2 1
	")
}

ee,wfn = optimize('scf', return_wfn=True)
oeprop( wfn, 'DIPOLE', 'QUADRUPOLE', 'MULLIKEN_CHARGES')
f=open( 'psi4out.xyz', 'w' )
f.write( "15  " )
f.write( str(ee) + "\n" )
f.write( MOL.save_string_xyz() )
f.close()
--------------------------------------------------------------------------

    Molecular point group: c1
  Charge       = 0
  Multiplicity = 1
  Basis Set: CC-PVTZ
  Basis Set:
  @DF-RHF Final Energy:  -232.24668336715354
    Total Energy =                       -232.2466833671535369
    Molecular point group: c1
  Basis Set: CC-PVTZ
  Basis Set:
  Basis Set: CC-PVTZ
  Basis Set:
  @DF-RHF Final Energy:  -232.24668882179969
    Total Energy =                       -232.2466888217995802
  Basis Set: CC-PVTZ
  Basis Set:
  Basis Set: CC-PVTZ
  Basis Set:
  @DF-RHF Final Energy:  -232.24669049784612
    Total Energy =                       -232.2466904978460889
  Basis Set: CC-PVTZ
  Basis Set:
  Charge       = 0
  Multiplicity = 1
  Basis Set: CC-PVTZ
  Basis Set:

    Orbital Energies (a.u.)
    -----------------------

    Doubly Occupied:

       1A    -20.542158     2A    -11.280784     3A    -11.210908
       4A    -11.207789     5A    -11.203770     6A     -1.364889
       7A     -1.065229     8A     -0.942827     9A     -0.939689
      10A     -0.778505    11A     -0.672645    12A     -0.624277
      13A     -0.622836    14A     -0.575945    15A     -0.557621
      16A     -0.532776    17A     -0.517025    18A     -0.511284
      19A     -0.504626    20A     -0.458632    21A     -0.428763

  @DF-RHF Final Energy:  -232.24669092681165

   => Energetics <=

    Nuclear Repulsion Energy =            200.6734321838507640
    One-Electron Energy =                -712.7542901340862045
    Two-Electron Energy =                 279.8341670234238450
    DFT Exchange-Correlation Energy =       0.0000000000000000
    Empirical Dispersion Energy =           0.0000000000000000
    PCM Polarization Energy =               0.0000000000000000
    EFP Energy =                            0.0000000000000000
    Total Energy =                       -232.2466909268115955
    Molecular point group: c1
  Basis Set: CC-PVTZ
  Basis Set:

  -Total Gradient:
     Atom            X                  Y                   Z
    ------   -----------------  -----------------  -----------------
       1        0.000008680754     0.000834001251    -0.000001666841
       2        0.000165809587    -0.001080343199    -0.000014343891
       3       -0.000663491899     0.000408445975    -0.000027829635
       4        0.000462614603    -0.000168066732     0.000017856879
       5        0.000008291799    -0.000003144771     0.000015590696
       6        0.000007918444     0.000035032030     0.000001916480
       7        0.000008058986    -0.000007342303    -0.000021997179
       8        0.000003594052    -0.000004300854     0.000005108213
       9       -0.000006400282    -0.000002064465     0.000007468980
      10        0.000007043225    -0.000011628959     0.000014907833
      11       -0.000021088277    -0.000004818831    -0.000000456079
      12        0.000012890051     0.000005182717    -0.000000445532
      13        0.000000104633    -0.000005564783     0.000015869650
      14       -0.000013940803     0.000008660900    -0.000005915431
      15        0.000019915127    -0.000004047978    -0.000006064144

  **** Optimization is complete! (in 4 steps) ****
    Final optimized geometry and variables:
    Molecular point group: c1

    Geometry (in Angstrom), charge = 0, multiplicity = 1:

    H           -0.938659577621    -0.008666799105     1.682999014507
    O           -0.045896159627    -0.006324733433     1.387824037212
    C           -0.001676909269    -0.000707637937    -0.025501680149
    C           -0.476546418085    -1.353171729339    -0.553722418832
    C           -0.874904762884     1.130429392779    -0.563495311311
    C            1.460407401731     0.230558389097    -0.383169007475
    H           -0.418401317055    -1.395989176253    -1.635393460531
    H           -1.507652777527    -1.536846704090    -0.268225612787
    H            0.132359035557    -2.148850159891    -0.143515735896
    H           -0.829660865493     1.179813494127    -1.645046588431
    H           -1.913797455892     0.982333672645    -0.283357760510
    H           -0.548504220113     2.081613714295    -0.161591087586
    H            1.599894776666     0.233515224734    -1.457784735693
    H            2.077026033711    -0.551155676440     0.042198318320
    H            1.798445343824     1.179971844446     0.012435039760

  Mulliken Charges: (a.u.)
   Center  Symbol    Alpha    Beta     Spin     Total
       1     H     0.39559  0.39559  0.00000  0.20882
       2     O     4.21120  4.21120  0.00000 -0.42240
       3     C     2.87828  2.87828  0.00000  0.24345
       4     C     3.14871  3.14871  0.00000 -0.29742
       5     C     3.15189  3.15189  0.00000 -0.30379
       6     C     3.14300  3.14300  0.00000 -0.28600
       7     H     0.45630  0.45630  0.00000  0.08740
       8     H     0.45550  0.45550  0.00000  0.08901
       9     H     0.44702  0.44702  0.00000  0.10597
      10     H     0.45466  0.45466  0.00000  0.09069
      11     H     0.45622  0.45622  0.00000  0.08757
      12     H     0.44594  0.44594  0.00000  0.10811
      13     H     0.45880  0.45880  0.00000  0.08241
      14     H     0.44778  0.44778  0.00000  0.10444
      15     H     0.44912  0.44912  0.00000  0.10176

   Total alpha = 21.00000, Total beta = 21.00000, Total charge =  0.00000

*** Psi4 exiting successfully. Buy a developer a beer!
