  ==> Input File <==

--------------------------------------------------------------------------
set {
	reference rhf
	basis 6-31G*
}

set_num_threads( 4 )
memory 2 gb

molecule MOL {
0 1

H	 -2.798360	 -0.862255	 -0.071053
N	 -1.863561	 -0.715187	 0.256814
C	 -1.344686	 0.554728	 -0.219830
H	 -1.300452	 -1.461917	 -0.101532
C	 -2.338508	 1.660294	 0.068577
H	 -0.385913	 0.830565	 0.221383
H	 -1.202174	 0.490015	 -1.294206
O	 -2.458434	 1.791206	 1.456225
H	 -1.995554	 2.598224	 -0.367666
H	 -3.301411	 1.410407	 -0.371436
C	 -3.410144	 2.721026	 1.865191
H	 -3.411433	 2.735164	 2.946623
H	 -3.173456	 3.719231	 1.501120
H	 -4.404539	 2.452610	 1.514561

	symmetry c1
}
set optking {
	frozen_dihedral = ("
		6 3 2 4
	")
}

ee = optimize('scf')
oeprop('DIPOLE', 'QUADRUPOLE', 'MULLIKEN_CHARGES')
f=open( 'psi4out.xyz', 'w' )
f.write( "14  " )
f.write( str(ee) + "\n" )
f.write( MOL.save_string_xyz() )
f.close()
--------------------------------------------------------------------------

    Molecular point group: c1
  Charge       = 0
  Multiplicity = 1
  Basis Set: 6-31G*
  Basis Set:
  @DF-RHF Final Energy:  -248.11657179972167
    Total Energy =                       -248.1165717997216689
    Molecular point group: c1
  Basis Set: 6-31G*
  Basis Set:
  Basis Set: 6-31G*
  Basis Set:
  @DF-RHF Final Energy:  -248.11881188984572
    Total Energy =                       -248.1188118898457446
  Basis Set: 6-31G*
  Basis Set:
  Basis Set: 6-31G*
  Basis Set:
  @DF-RHF Final Energy:  -248.11906639119999
    Total Energy =                       -248.1190663912000218
  Basis Set: 6-31G*
  Basis Set:
  Basis Set: 6-31G*
  Basis Set:
  @DF-RHF Final Energy:  -248.11907855058013
    Total Energy =                       -248.1190785505799568
  Basis Set: 6-31G*
  Basis Set:
  Charge       = 0
  Multiplicity = 1
  Basis Set: 6-31G*
  Basis Set:

    Orbital Energies (a.u.)
    -----------------------

    Doubly Occupied:

       1A    -20.551555     2A    -15.532007     3A    -11.269638
       4A    -11.262692     5A    -11.243165     6A     -1.378735
       7A     -1.176322     8A     -0.999770     9A     -0.904750
      10A     -0.819746    11A     -0.682154    12A     -0.665996
      13A     -0.650379    14A     -0.613768    15A     -0.590690
      16A     -0.563848    17A     -0.519218    18A     -0.500156
      19A     -0.464308    20A     -0.414746    21A     -0.380406

  @DF-RHF Final Energy:  -248.11907923655886

   => Energetics <=

    Nuclear Repulsion Energy =            193.5553915709613477
    One-Electron Energy =                -720.9808465649997515
    Two-Electron Energy =                 279.3063757574793726
    DFT Exchange-Correlation Energy =       0.0000000000000000
    Empirical Dispersion Energy =           0.0000000000000000
    PCM Polarization Energy =               0.0000000000000000
    EFP Energy =                            0.0000000000000000
    Total Energy =                       -248.1190792365590596
    Molecular point group: c1
  Basis Set: 6-31G*
  Basis Set:

  -Total Gradient:
     Atom            X                  Y                   Z
    ------   -----------------  -----------------  -----------------
       1        0.000005355582     0.000008783123     0.000006532645
       2        0.001089879825     0.000434075628     0.002151329529
       3        0.000811904076    -0.000988544930    -0.001836585696
       4       -0.001035594957    -0.000142640467    -0.001533094143
       5       -0.000046194186    -0.000070092715    -0.000034967648
       6       -0.000865271704     0.000747192942     0.001249331528
       7       -0.000021742472    -0.000003200204     0.000002817694
       8        0.000042782930     0.000003758247    -0.000003385886
       9        0.000015217769     0.000004419906     0.000042952968
      10       -0.000007880736    -0.000002810494    -0.000032298458
      11        0.000022090924     0.000021217439    -0.000015199855
      12       -0.000002401334    -0.000004983610    -0.000000439295
      13       -0.000008046991     0.000002794720     0.000005467395
      14       -0.000000098725    -0.000009969586    -0.000002460778

  **** Optimization is complete! (in 5 steps) ****
    Final optimized geometry and variables:
    Molecular point group: c1

    Geometry (in Angstrom), charge = 0, multiplicity = 1:

    H           -0.441071001001    -2.144541508123    -0.846082167602
    N            0.468806675547    -1.953827112862    -0.470509073030
    C            0.935583178401    -0.649404303967    -0.909794986914
    H            1.073299506275    -2.675484391178    -0.812908959996
    C           -0.066188197670     0.444585146636    -0.588378049177
    H            1.855419924463    -0.419217188977    -0.384267954726
    H            1.142817876354    -0.600118600250    -1.981497793981
    O           -0.170882706265     0.606845268330     0.789029004399
    H            0.261910782411     1.374796089603    -1.053663032531
    H           -1.039981081625     0.198255033455    -1.017435441947
    C           -1.091286107996     1.572822931663     1.180287389248
    H           -1.082035148983     1.613725570815     2.260692373512
    H           -0.832508383496     2.555630797787     0.788454268178
    H           -2.097564438851     1.324451101965     0.846673628102

  Mulliken Charges: (a.u.)
   Center  Symbol    Alpha    Beta     Spin     Total
       1     H     0.33685  0.33685  0.00000  0.32630
       2     N     3.91307  3.91307  0.00000 -0.82615
       3     C     3.06735  3.06735  0.00000 -0.13469
       4     H     0.33280  0.33280  0.00000  0.33440
       5     C     2.99044  2.99044  0.00000  0.01912
       6     H     0.41005  0.41005  0.00000  0.17991
       7     H     0.43456  0.43456  0.00000  0.13088
       8     O     4.29485  4.29485  0.00000 -0.58970
       9     H     0.43051  0.43051  0.00000  0.13899
      10     H     0.43660  0.43660  0.00000  0.12680
      11     C     3.07938  3.07938  0.00000 -0.15877
      12     H     0.41067  0.41067  0.00000  0.17867
      13     H     0.43197  0.43197  0.00000  0.13607
      14     H     0.43091  0.43091  0.00000  0.13818

   Total alpha = 21.00000, Total beta = 21.00000, Total charge = -0.00000
