                              Psi4 1.0.54 Driver

  ==> Input File <==

--------------------------------------------------------------------------
set {
	reference rhf
	basis cc-pvtz
}

set_num_threads( 4 )
memory 2 gb

molecule MOL {
0 1

H	 3.458847	 0.139273	 -0.762964
C	 2.748902	 -0.051722	 0.031252
C	 1.322050	 0.099780	 -0.484284
H	 2.929191	 -1.053880	 0.403468
H	 2.954027	 0.646706	 0.834659
C	 0.308303	 -0.162612	 0.622632
H	 1.143114	 -0.594393	 -1.295973
H	 1.169278	 1.100102	 -0.870230
N	 -1.069606	 -0.004074	 0.085329
H	 0.371378	 -1.172925	 0.991275
H	 0.400137	 0.548882	 1.426205
O	 -1.585155	 -0.965463	 -0.377831
O	 -1.548287	 1.079350	 0.130043

	symmetry c1
}
ee,wfn = energy('scf', return_wfn=True)
oeprop( wfn, 'DIPOLE', 'QUADRUPOLE', 'MULLIKEN_CHARGES')
oeprop( wfn, 'GRID_ESP')
f=open( 'psi4out.xyz', 'w' )
f.write( "13  " )
f.write( str(ee) + "\n" )
f.write( MOL.save_string_xyz() )
f.close()
--------------------------------------------------------------------------

    Molecular point group: c1

    Geometry (in Angstrom), charge = 0, multiplicity = 1:

       Center              X                  Y                   Z               Mass
    ------------   -----------------  -----------------  -----------------  -----------------
           H          3.459101286246     0.139265599285    -0.762951027335     1.007825032070
           C          2.749156286246    -0.051729400715     0.031264972665    12.000000000000
           C          1.322304286246     0.099772599285    -0.484271027335    12.000000000000
           H          2.929445286246    -1.053887400715     0.403480972665     1.007825032070
           H          2.954281286246     0.646698599285     0.834671972665     1.007825032070
           C          0.308557286246    -0.162619400715     0.622644972665    12.000000000000
           H          1.143368286246    -0.594400400715    -1.295960027335     1.007825032070
           H          1.169532286246     1.100094599285    -0.870217027335     1.007825032070
           N         -1.069351713754    -0.004081400715     0.085341972665    14.003074004780
           H          0.371632286246    -1.172932400715     0.991287972665     1.007825032070
           H          0.400391286246     0.548874599285     1.426217972665     1.007825032070
           O         -1.584900713754    -0.965470400715    -0.377818027335    15.994914619560
           O         -1.548032713754     1.079342599285     0.130055972665    15.994914619560

  Charge       = 0
  Multiplicity = 1
  Basis Set: CC-PVTZ
  Basis Set:

    Orbital Energies (a.u.)
    -----------------------

    Doubly Occupied:

       1A    -20.590424     2A    -20.590311     3A    -15.836924
       4A    -11.297252     5A    -11.254338     6A    -11.237300
       7A     -1.636005     8A     -1.420349     9A     -1.134393
      10A     -1.027931    11A     -0.884045    12A     -0.834533
      13A     -0.761539    14A     -0.738568    15A     -0.727556
      16A     -0.673632    17A     -0.604162    18A     -0.588608
      19A     -0.551499    20A     -0.520525    21A     -0.515088
      22A     -0.486876    23A     -0.475174    24A     -0.452900

  @DF-RHF Final Energy:  -321.86154026572490

   => Energetics <=

    Nuclear Repulsion Energy =            248.0322460750431901
    One-Electron Energy =                -930.1076141317321344
    Two-Electron Energy =                 360.2138277909641033
    DFT Exchange-Correlation Energy =       0.0000000000000000
    Empirical Dispersion Energy =           0.0000000000000000
    PCM Polarization Energy =               0.0000000000000000
    EFP Energy =                            0.0000000000000000
    Total Energy =                       -321.8615402657248410

  Mulliken Charges: (a.u.)
   Center  Symbol    Alpha    Beta     Spin     Total
       1     H     0.44167  0.44167  0.00000  0.11666
       2     C     3.15109  3.15109  0.00000 -0.30217
       3     C     3.09598  3.09598  0.00000 -0.19195
       4     H     0.45156  0.45156  0.00000  0.09688
       5     H     0.45160  0.45160  0.00000  0.09681
       6     C     3.03940  3.03940  0.00000 -0.07880
       7     H     0.43802  0.43802  0.00000  0.12396
       8     H     0.43796  0.43796  0.00000  0.12407
       9     N     3.27588  3.27588  0.00000  0.44823
      10     H     0.43460  0.43460  0.00000  0.13080
      11     H     0.43460  0.43460  0.00000  0.13079
      12     O     4.17375  4.17375  0.00000 -0.34750
      13     O     4.17389  4.17389  0.00000 -0.34779

   Total alpha = 24.00000, Total beta = 24.00000, Total charge = -0.00000

*** Psi4 exiting successfully. Buy a developer a beer!
