  ==> Input File <==

--------------------------------------------------------------------------
set {
	reference rhf
	basis 6-31G*
}

set_num_threads( 4 )
memory 2 gb

molecule MOL {
0 1

H	 -2.517444	 1.978188	 1.513423
O	 -1.828386	 1.388250	 1.243098
C	 -2.306886	 0.532354	 0.237577
C	 -1.177863	 -0.397191	 -0.171080
H	 -3.154840	 -0.047508	 0.599572
H	 -2.647800	 1.105758	 -0.623426
C	 0.198102	 0.111031	 0.262842
H	 -1.208843	 -0.518759	 -1.250427
H	 -1.368741	 -1.376554	 0.258909
C	 1.331804	 -0.827780	 -0.158768
H	 0.361943	 1.100838	 -0.156218
H	 0.217265	 0.229072	 1.345532
C	 2.723619	 -0.410569	 0.329459
H	 1.342964	 -0.912588	 -1.244120
H	 1.116806	 -1.824343	 0.220779
C	 3.243875	 0.895854	 -0.272975
H	 3.424222	 -1.207124	 0.091250
H	 2.714788	 -0.329854	 1.414619
H	 3.251977	 0.848779	 -1.358681
H	 2.637085	 1.747371	 0.016682
H	 4.259473	 1.094070	 0.055697

	symmetry c1
}
set optking {
	frozen_dihedral = ("
		2 3 4 8
	")
}

ee = optimize('scf')
oeprop('DIPOLE', 'QUADRUPOLE', 'MULLIKEN_CHARGES')
f=open( 'psi4out.xyz', 'w' )
f.write( "21  " )
f.write( str(ee) + "\n" )
f.write( MOL.save_string_xyz() )
f.close()
--------------------------------------------------------------------------

    Molecular point group: c1
  Charge       = 0
  Multiplicity = 1
  Basis Set: 6-31G*
  Basis Set:
  @DF-RHF Final Energy:  -310.20441222562562
    Total Energy =                       -310.2044122256256173
    Molecular point group: c1
  Basis Set: 6-31G*
  Basis Set:
  Basis Set: 6-31G*
  Basis Set:
  @DF-RHF Final Energy:  -310.20495225014599
    Total Energy =                       -310.2049522501462206
  Basis Set: 6-31G*
  Basis Set:
  Basis Set: 6-31G*
  Basis Set:
  @DF-RHF Final Energy:  -310.20611352592664
    Total Energy =                       -310.2061135259265257
  Basis Set: 6-31G*
  Basis Set:
  Basis Set: 6-31G*
  Basis Set:
  @DF-RHF Final Energy:  -310.20615197896194
    Total Energy =                       -310.2061519789624526
  Basis Set: 6-31G*
  Basis Set:
  Basis Set: 6-31G*
  Basis Set:
  @DF-RHF Final Energy:  -310.20616125986459
    Total Energy =                       -310.2061612598649845
  Basis Set: 6-31G*
  Basis Set:
  Basis Set: 6-31G*
  Basis Set:
  @DF-RHF Final Energy:  -310.20616368249688
    Total Energy =                       -310.2061636824965376
  Basis Set: 6-31G*
  Basis Set:
  Charge       = 0
  Multiplicity = 1
  Basis Set: 6-31G*
  Basis Set:

    Orbital Energies (a.u.)
    -----------------------

    Doubly Occupied:

       1A    -20.552636     2A    -11.268847     3A    -11.212906
       4A    -11.209107     5A    -11.206651     6A    -11.202477
       7A    -11.202300     8A     -1.359479     9A     -1.077773
      10A     -1.025848    11A     -0.950665    12A     -0.874896
      13A     -0.799522    14A     -0.770968    15A     -0.695755
      16A     -0.655732    17A     -0.615548    18A     -0.602887
      19A     -0.583183    20A     -0.563830    21A     -0.530722
      22A     -0.522014    23A     -0.496542    24A     -0.491368
      25A     -0.479559    26A     -0.455323    27A     -0.449057
      28A     -0.434554    29A     -0.425128

  @DF-RHF Final Energy:  -310.20616405072127

   => Energetics <=

    Nuclear Repulsion Energy =            318.2845619027858106
    One-Electron Energy =               -1051.5509011974618261
    Two-Electron Energy =                 423.0601752439545180
    DFT Exchange-Correlation Energy =       0.0000000000000000
    Empirical Dispersion Energy =           0.0000000000000000
    PCM Polarization Energy =               0.0000000000000000
    EFP Energy =                            0.0000000000000000
    Total Energy =                       -310.2061640507215543
    Molecular point group: c1
  Basis Set: 6-31G*
  Basis Set:

  -Total Gradient:
     Atom            X                  Y                   Z
    ------   -----------------  -----------------  -----------------
       1        0.000005598102    -0.000027982998    -0.000028092476
       2        0.001409869914     0.002830589788    -0.002851224110
       3       -0.001122563058    -0.002702449408     0.003777767910
       4       -0.003623962478    -0.004279696601    -0.000377772249
       5        0.000002821093    -0.000037826768    -0.000038105812
       6        0.000001606409    -0.000043649287    -0.000035426835
       7        0.000046679676     0.000014370601    -0.000002395108
       8        0.003313422625     0.004262924061    -0.000438521069
       9       -0.000026200603    -0.000010057235    -0.000002083468
      10       -0.000010866909    -0.000004776473     0.000009491531
      11        0.000030518089     0.000027924835     0.000008526961
      12        0.000008866306    -0.000020555799    -0.000023748368
      13        0.000005760774    -0.000009834788    -0.000013887356
      14       -0.000001112630    -0.000014521507    -0.000001507420
      15       -0.000012451344     0.000002197137     0.000011749389
      16       -0.000012482731     0.000002366887     0.000006405026
      17       -0.000004088070     0.000005141522    -0.000008528509
      18        0.000011004561    -0.000009406857     0.000000047309
      19        0.000006046753    -0.000003789082     0.000005873757
      20       -0.000024598540     0.000011279058    -0.000004576104
      21       -0.000003867933     0.000007752918     0.000006007000

  **** Optimization is complete! (in 7 steps) ****
    Final optimized geometry and variables:
    Molecular point group: c1

    Geometry (in Angstrom), charge = 0, multiplicity = 1:

    H           -2.932515735927     1.760832750724     1.238354345038
    O           -2.199067446459     1.203454311886     1.021131266200
    C           -2.580705345202     0.315602445676    -0.000090522865
    C           -1.420344652180    -0.629496494192    -0.354977114511
    H           -3.451807699475    -0.261558645542     0.301064594772
    H           -2.863735302276     0.885941073038    -0.882701256722
    C           -0.035995403548    -0.116662933387     0.059759340618
    H           -1.407368489814    -0.754037986431    -1.434736788645
    H           -1.585240494116    -1.608428954227     0.085044379164
    C            1.079101751187    -1.058762639743    -0.402416050184
    H            0.114318427405     0.875372979847    -0.353837607564
    H            0.003688896324    -0.005215154815     1.137570626307
    C            2.483329580372    -0.659015169707     0.065301339883
    H            1.071753418245    -1.128215320075    -1.489638436260
    H            0.867300118312    -2.061209967085    -0.034594728467
    C            2.995493600885     0.658761221834    -0.518954313316
    H            3.176131683572    -1.452750629109    -0.204293307704
    H            2.496248070407    -0.600956094916     1.151685687906
    H            2.982980724310     0.634642727919    -1.605563556718
    H            2.395517627340     1.504091632282    -0.199488131135
    H            4.017844240949     0.847895637507    -0.205707527284

  Mulliken Charges: (a.u.)
   Center  Symbol    Alpha    Beta     Spin     Total
       1     H     0.28051  0.28051  0.00000  0.43897
       2     O     4.37084  4.37084  0.00000 -0.74169
       3     C     2.99167  2.99167  0.00000  0.01666
       4     C     3.17307  3.17307  0.00000 -0.34615
       5     H     0.42939  0.42939  0.00000  0.14122
       6     H     0.43146  0.43146  0.00000  0.13709
       7     C     3.14746  3.14746  0.00000 -0.29492
       8     H     0.42131  0.42131  0.00000  0.15738
       9     H     0.41906  0.41906  0.00000  0.16189
      10     C     3.15401  3.15401  0.00000 -0.30802
      11     H     0.41815  0.41815  0.00000  0.16370
      12     H     0.41109  0.41109  0.00000  0.17783
      13     C     3.15134  3.15134  0.00000 -0.30268
      14     H     0.42702  0.42702  0.00000  0.14595
      15     H     0.42436  0.42436  0.00000  0.15128
      16     C     3.24131  3.24131  0.00000 -0.48262
      17     H     0.42278  0.42278  0.00000  0.15443
      18     H     0.42290  0.42290  0.00000  0.15420
      19     H     0.42371  0.42371  0.00000  0.15258
      20     H     0.41799  0.41799  0.00000  0.16403
      21     H     0.42057  0.42057  0.00000  0.15886

   Total alpha = 29.00000, Total beta = 29.00000, Total charge = -0.00000
