  ==> Input File <==

--------------------------------------------------------------------------
set {
	reference rhf
	basis cc-pvtz
}

set_num_threads( 4 )
memory 2 gb

molecule MOL {
0 1

H	 -2.529953	 -0.163854	 -0.694158
O	 -2.041679	 -0.058866	 0.103463
C	 -0.959304	 0.780994	 -0.094939
C	 0.354905	 0.037902	 -0.006215
H	 -0.985899	 1.279578	 -1.057596
H	 -0.969809	 1.529522	 0.682889
F	 0.412060	 -0.931028	 -0.902708
F	 1.359641	 0.856111	 -0.239961
F	 0.545380	 -0.506387	 1.171682

	symmetry c1
}
set optking {
	frozen_dihedral = ("
		1 2 3 5
	")
}

ee = optimize('scf')
oeprop('DIPOLE', 'QUADRUPOLE', 'MULLIKEN_CHARGES')
f=open( 'psi4out.xyz', 'w' )
f.write( "9  " )
f.write( str(ee) + "\n" )
f.write( MOL.save_string_xyz() )
f.close()
--------------------------------------------------------------------------

    Molecular point group: c1
  Charge       = 0
  Multiplicity = 1
  Basis Set: CC-PVTZ
  Basis Set:
  @DF-RHF Final Energy:  -450.84493460333624
    Total Energy =                       -450.8449346033363554
    Molecular point group: c1
  Basis Set: CC-PVTZ
  Basis Set:
  Basis Set: CC-PVTZ
  Basis Set:
  @DF-RHF Final Energy:  -450.84528403712670
    Total Energy =                       -450.8452840371268167
  Basis Set: CC-PVTZ
  Basis Set:
  Basis Set: CC-PVTZ
  Basis Set:
  @DF-RHF Final Energy:  -450.84536750510199
    Total Energy =                       -450.8453675051021037
  Basis Set: CC-PVTZ
  Basis Set:
  Basis Set: CC-PVTZ
  Basis Set:
  @DF-RHF Final Energy:  -450.84537184856134
    Total Energy =                       -450.8453718485612285
  Basis Set: CC-PVTZ
  Basis Set:
  Charge       = 0
  Multiplicity = 1
  Basis Set: CC-PVTZ
  Basis Set:

    Orbital Energies (a.u.)
    -----------------------

    Doubly Occupied:

       1A    -26.334736     2A    -26.332796     3A    -26.330971
       4A    -20.583007     5A    -11.489213     6A    -11.310455
       7A     -1.742708     8A     -1.639313     9A     -1.637878
      10A     -1.406352    11A     -1.049898    12A     -0.925479
      13A     -0.833478    14A     -0.831964    15A     -0.797010
      16A     -0.741164    17A     -0.714033    18A     -0.704212
      19A     -0.669165    20A     -0.659740    21A     -0.643913
      22A     -0.636791    23A     -0.603978    24A     -0.536566
      25A     -0.483236

  @DF-RHF Final Energy:  -450.84537228313354

   => Energetics <=

    Nuclear Repulsion Energy =            277.4944184952004207
    One-Electron Energy =               -1177.4034676362773553
    Two-Electron Energy =                 449.0636768579431646
    DFT Exchange-Correlation Energy =       0.0000000000000000
    Empirical Dispersion Energy =           0.0000000000000000
    PCM Polarization Energy =               0.0000000000000000
    EFP Energy =                            0.0000000000000000
    Total Energy =                       -450.8453722831337700
    Molecular point group: c1
  Basis Set: CC-PVTZ
  Basis Set:

  -Total Gradient:
     Atom            X                  Y                   Z
    ------   -----------------  -----------------  -----------------
       1       -0.001103983190     0.001457691178     0.000387657089
       2        0.001626088184    -0.002176621438    -0.000707968669
       3       -0.001398626521     0.001945076523     0.000936978607
       4        0.000050516243     0.000138613716     0.000099524622
       5        0.000848308592    -0.001249157628    -0.000622393475
       6        0.000003023948    -0.000005018804    -0.000009651154
       7        0.000011985254    -0.000020286998    -0.000020153768
       8       -0.000034249816    -0.000076403747    -0.000028449115
       9       -0.000003062703    -0.000013892801    -0.000035544139

  **** Optimization is complete! (in 5 steps) ****
    Final optimized geometry and variables:
    Molecular point group: c1

    Geometry (in Angstrom), charge = 0, multiplicity = 1:

    H           -2.505086795598    -0.206827617636    -0.668754497336
    O           -2.022173246443    -0.062706313040     0.122797670829
    C           -0.950294575224     0.789881179718    -0.097147327683
    C            0.353806476534     0.028742610954    -0.011827105175
    H           -0.975854808476     1.254870111150    -1.074657817768
    H           -0.931912064396     1.561778791699     0.659826612723
    F            0.427855733127    -0.909903495678    -0.932127091501
    F            1.366854610485     0.852412854723    -0.201001432838
    F            0.518627755324    -0.545230885182     1.156057805502

  Mulliken Charges: (a.u.)
   Center  Symbol    Alpha    Beta     Spin     Total
       1     H     0.38557  0.38557  0.00000  0.22885
       2     O     4.19216  4.19216  0.00000 -0.38433
       3     C     2.99297  2.99297  0.00000  0.01405
       4     C     2.67798  2.67798  0.00000  0.64404
       5     H     0.46179  0.46179  0.00000  0.07642
       6     H     0.45320  0.45320  0.00000  0.09360
       7     F     4.61390  4.61390  0.00000 -0.22780
       8     F     4.61454  4.61454  0.00000 -0.22908
       9     F     4.60788  4.60788  0.00000 -0.21576

   Total alpha = 25.00000, Total beta = 25.00000, Total charge = -0.00000
