  ==> Input File <==

--------------------------------------------------------------------------
set {
	reference rhf
	basis cc-pvtz
}

set_num_threads( 4 )
memory 2 gb

molecule MOL {
0 1

H	 -1.835082	 1.385983	 0.000069
C	 -1.300516	 0.441153	 -0.000028
O	 -0.006604	 0.654344	 -0.000106
O	 -1.828920	 -0.612308	 0.000113
C	 0.852093	 -0.482521	 -0.000161
C	 1.303946	 -0.719138	 1.421297
H	 1.687713	 -0.288993	 -0.657614
H	 0.308996	 -1.330411	 -0.392706
H	 1.842669	 0.139030	 1.802472
H	 1.960881	 -1.579996	 1.456151
H	 0.457015	 -0.907597	 2.068723

	symmetry c1
}
set optking {
	frozen_dihedral = ("
		7 5 3 2
	")
}

ee = optimize('scf')
oeprop('DIPOLE', 'QUADRUPOLE', 'MULLIKEN_CHARGES')
f=open( 'psi4out.xyz', 'w' )
f.write( "11  " )
f.write( str(ee) + "\n" )
f.write( MOL.save_string_xyz() )
f.close()
--------------------------------------------------------------------------

    Molecular point group: c1
  Charge       = 0
  Multiplicity = 1
  Basis Set: CC-PVTZ
  Basis Set:
  @DF-RHF Final Energy:  -266.92939298578779
    Total Energy =                       -266.9293929857877856
    Molecular point group: c1
  Basis Set: CC-PVTZ
  Basis Set:
  Basis Set: CC-PVTZ
  Basis Set:
  @DF-RHF Final Energy:  -266.92978416119990
    Total Energy =                       -266.9297841612000184
  Basis Set: CC-PVTZ
  Basis Set:
  Basis Set: CC-PVTZ
  Basis Set:
  @DF-RHF Final Energy:  -266.92267978843188
    Total Energy =                       -266.9226797884319922
  Basis Set: CC-PVTZ
  Basis Set:
  Basis Set: CC-PVTZ
  Basis Set:
  @DF-RHF Final Energy:  -266.93031639613980
    Total Energy =                       -266.9303163961399150
  Basis Set: CC-PVTZ
  Basis Set:
  Basis Set: CC-PVTZ
  Basis Set:
  @DF-RHF Final Energy:  -266.93049554873852
    Total Energy =                       -266.9304955487384063
  Basis Set: CC-PVTZ
  Basis Set:
  Basis Set: CC-PVTZ
  Basis Set:
  @DF-RHF Final Energy:  -266.93050206791918
    Total Energy =                       -266.9305020679191784
  Basis Set: CC-PVTZ
  Basis Set:
  Charge       = 0
  Multiplicity = 1
  Basis Set: CC-PVTZ
  Basis Set:

    Orbital Energies (a.u.)
    -----------------------

    Doubly Occupied:

       1A    -20.604730     2A    -20.545144     3A    -11.371212
       4A    -11.288972     5A    -11.223501     6A     -1.477656
       7A     -1.377449     8A     -1.050868     9A     -0.911462
      10A     -0.798316    11A     -0.749023    12A     -0.687713
      13A     -0.659544    14A     -0.622694    15A     -0.575220
      16A     -0.545586    17A     -0.539479    18A     -0.501844
      19A     -0.460621    20A     -0.457828

  @DF-RHF Final Energy:  -266.93050252570703

   => Energetics <=

    Nuclear Repulsion Energy =            181.3187909990259072
    One-Electron Energy =                -723.6008572441739943
    Two-Electron Energy =                 275.3515637194411738
    DFT Exchange-Correlation Energy =       0.0000000000000000
    Empirical Dispersion Energy =           0.0000000000000000
    PCM Polarization Energy =               0.0000000000000000
    EFP Energy =                            0.0000000000000000
    Total Energy =                       -266.9305025257069701
    Molecular point group: c1
  Basis Set: CC-PVTZ
  Basis Set:

  -Total Gradient:
     Atom            X                  Y                   Z
    ------   -----------------  -----------------  -----------------
       1       -0.000031609615     0.000004694536     0.000008297952
       2       -0.000006998925    -0.000002095921    -0.001081930227
       3       -0.000156064555    -0.000073518236     0.001358347583
       4        0.000034092807     0.000015052858     0.000007352165
       5        0.000701872553     0.000564388171     0.000591892379
       6        0.000019146677    -0.000007882569    -0.000009289146
       7       -0.000576583001    -0.000496237406    -0.000873123818
       8        0.000005363054    -0.000000022526    -0.000003025106
       9        0.000000490627    -0.000000016456     0.000003995033
      10        0.000008426751    -0.000007905725     0.000013354639
      11        0.000001863627     0.000003543276    -0.000015871456

  **** Optimization is complete! (in 7 steps) ****
    Final optimized geometry and variables:
    Molecular point group: c1

    Geometry (in Angstrom), charge = 0, multiplicity = 1:

    H           -1.615027060537     1.564369625008    -0.373445867304
    C           -1.109029021959     0.605566924715    -0.317148577953
    O            0.190210453768     0.788642077614    -0.306968689886
    O           -1.672812588797    -0.428464601369    -0.271308216936
    C            1.053704092462    -0.346252635290    -0.266590218095
    C            1.544856395864    -0.594002501256     1.143036267714
    H            1.868218699767    -0.106378286467    -0.933562863217
    H            0.529157551965    -1.204351965196    -0.653971369462
    H            2.047149853191     0.281367750823     1.535232967275
    H            2.244792282678    -1.421644056948     1.146009299702
    H            0.720084464708    -0.844565788867     1.797952811116

  Mulliken Charges: (a.u.)
   Center  Symbol    Alpha    Beta     Spin     Total
       1     H     0.44857  0.44857  0.00000  0.10286
       2     C     2.84084  2.84084  0.00000  0.31833
       3     O     4.14963  4.14963  0.00000 -0.29926
       4     O     4.19699  4.19699  0.00000 -0.39399
       5     C     2.98123  2.98123  0.00000  0.03753
       6     C     3.14035  3.14035  0.00000 -0.28069
       7     H     0.44608  0.44608  0.00000  0.10784
       8     H     0.44659  0.44659  0.00000  0.10683
       9     H     0.45087  0.45087  0.00000  0.09825
      10     H     0.45232  0.45232  0.00000  0.09535
      11     H     0.44652  0.44652  0.00000  0.10695

   Total alpha = 20.00000, Total beta = 20.00000, Total charge = -0.00000
