  ==> Input File <==

--------------------------------------------------------------------------
set {
	reference rhf
	basis 6-31G*
}

set_num_threads( 1 )
memory 2 gb

molecule MOL {
0 1

O	 1.534931	 1.840533	 -0.463217
C	 0.788116	 1.716284	 -1.379704
C	 -0.516134	 0.957269	 -1.353318
O	 1.010816	 2.247773	 -2.575137
C	 -0.823008	 0.326187	 0.001381
H	 -1.299814	 1.647936	 -1.652547
H	 -0.470175	 0.205508	 -2.136556
C	 -2.149452	 -0.435131	 -0.000098
H	 -0.843475	 1.101601	 0.760659
H	 -0.013637	 -0.343128	 0.275686
C	 -3.368779	 0.488503	 -0.000883
H	 -2.193746	 -1.087250	 -0.871175
H	 -2.195311	 -1.087803	 0.870418
C	 -4.693822	 -0.272754	 -0.001129
H	 -3.325798	 1.139422	 -0.871284
H	 -3.326423	 1.139959	 0.869145
H	 -4.781274	 -0.907928	 -0.878124
H	 -5.538651	 0.408946	 -0.001420
H	 -4.781694	 -0.907783	 0.875984
C	 2.205196	 2.991203	 -2.735521
H	 2.223294	 3.832232	 -2.057383
H	 2.203628	 3.335217	 -3.758032
H	 3.068440	 2.367971	 -2.551410

	symmetry c1
}
set optking {
	frozen_dihedral = ("
		15 11 8 12,
		1 2 3 6,
		9 5 3 6,
		1 2 4 20
	")
}

ee = energy('scf')
oeprop('DIPOLE', 'QUADRUPOLE', 'MULLIKEN_CHARGES')
f=open( 'psi4out.xyz', 'w' )
f.write( "23  " )
f.write( str(ee) + "\n" )
f.write( MOL.save_string_xyz() )
f.close()
--------------------------------------------------------------------------

    Molecular point group: c1

    Geometry (in Angstrom), charge = 0, multiplicity = 1:

       Center              X                  Y                   Z               Mass
    ------------   -----------------  -----------------  -----------------  -----------------
           O          2.176107775792     0.721537663912     0.500988807335    15.994914619560
           C          1.429292775792     0.597288663912    -0.415498192665    12.000000000000
           C          0.125042775792    -0.161726336088    -0.389112192665    12.000000000000
           O          1.651992775792     1.128777663912    -1.610931192665    15.994914619560
           C         -0.181831224208    -0.792808336088     0.965586807335    12.000000000000
           H         -0.658637224208     0.528940663912    -0.688341192665     1.007825032070
           H          0.171001775792    -0.913487336088    -1.172350192665     1.007825032070
           C         -1.508275224208    -1.554126336088     0.964107807335    12.000000000000
           H         -0.202298224208    -0.017394336088     1.724864807335     1.007825032070
           H          0.627539775792    -1.462123336088     1.239891807335     1.007825032070
           C         -2.727602224208    -0.630492336088     0.963322807335    12.000000000000
           H         -1.552569224208    -2.206245336088     0.093030807335     1.007825032070
           H         -1.554134224208    -2.206798336088     1.834623807335     1.007825032070
           C         -4.052645224208    -1.391749336088     0.963076807335    12.000000000000
           H         -2.684621224208     0.020426663912     0.092921807335     1.007825032070
           H         -2.685246224208     0.020963663912     1.833350807335     1.007825032070
           H         -4.140097224208    -2.026923336088     0.086081807335     1.007825032070
           H         -4.897474224208    -0.710049336088     0.962785807335     1.007825032070
           H         -4.140517224208    -2.026778336088     1.840189807335     1.007825032070
           C          2.846372775792     1.872207663912    -1.771315192665    12.000000000000
           H          2.864470775792     2.713236663912    -1.093177192665     1.007825032070
           H          2.844804775792     2.216221663912    -2.793826192665     1.007825032070
           H          3.709616775792     1.248975663912    -1.587204192665     1.007825032070

  Charge       = 0
  Multiplicity = 1
  Basis Set: 6-31G*
  Basis Set:

    Orbital Energies (a.u.)
    -----------------------

    Doubly Occupied:

       1A    -20.603566     2A    -20.545304     3A    -11.372157
       4A    -11.280797     5A    -11.235073     6A    -11.218991
       7A    -11.218273     8A    -11.217475     9A    -11.210839
      10A     -1.469238    11A     -1.362657    12A     -1.095399
      13A     -1.041802    14A     -0.987146    15A     -0.932672
      16A     -0.849078    17A     -0.793227    18A     -0.765223
      19A     -0.702085    20A     -0.682260    21A     -0.672414
      22A     -0.633208    23A     -0.625625    24A     -0.599184
      25A     -0.575924    26A     -0.557636    27A     -0.556280
      28A     -0.528148    29A     -0.520411    30A     -0.506628
      31A     -0.492258    32A     -0.469834    33A     -0.465400
      34A     -0.457587    35A     -0.451759    36A     -0.437138

  @DF-RHF Final Energy:  -422.97416575936745

   => Energetics <=

    Nuclear Repulsion Energy =            458.0613096263904254
    One-Electron Energy =               -1483.8054931650533490
    Two-Electron Energy =                 602.7700177792943350
    DFT Exchange-Correlation Energy =       0.0000000000000000
    Empirical Dispersion Energy =           0.0000000000000000
    PCM Polarization Energy =               0.0000000000000000
    EFP Energy =                            0.0000000000000000
    Total Energy =                       -422.9741657593687023

  Mulliken Charges: (a.u.)
   Center  Symbol    Alpha    Beta     Spin     Total
       1     O     4.28595  4.28595  0.00000 -0.57190
       2     C     2.60468  2.60468  0.00000  0.79064
       3     C     3.20994  3.20994  0.00000 -0.41989
       4     O     4.30726  4.30726  0.00000 -0.61453
       5     C     3.15436  3.15436  0.00000 -0.30872
       6     H     0.39934  0.39934  0.00000  0.20131
       7     H     0.40075  0.40075  0.00000  0.19851
       8     C     3.15623  3.15623  0.00000 -0.31247
       9     H     0.41157  0.41157  0.00000  0.17687
      10     H     0.40958  0.40958  0.00000  0.18083
      11     C     3.15435  3.15435  0.00000 -0.30869
      12     H     0.42433  0.42433  0.00000  0.15135
      13     H     0.41790  0.41790  0.00000  0.16420
      14     C     3.23889  3.23889  0.00000 -0.47779
      15     H     0.42356  0.42356  0.00000  0.15287
      16     H     0.42084  0.42084  0.00000  0.15831
      17     H     0.42171  0.42171  0.00000  0.15659
      18     H     0.41880  0.41880  0.00000  0.16240
      19     H     0.42089  0.42089  0.00000  0.15823
      20     C     3.09245  3.09245  0.00000 -0.18489
      21     H     0.40906  0.40906  0.00000  0.18188
      22     H     0.40847  0.40847  0.00000  0.18306
      23     H     0.40908  0.40908  0.00000  0.18183

   Total alpha = 36.00000, Total beta = 36.00000, Total charge = -0.00000
