  ==> Input File <==

--------------------------------------------------------------------------
set {
	reference rhf
	basis 6-31G*
}

set_num_threads( 4 )
memory 2 gb

molecule MOL {
0 1

H	 1.136379	 0.211822	 1.465562
C	 1.135357	 0.094285	 0.374742
C	 0.065331	 0.871482	 -0.349150
O	 1.941633	 -0.601957	 -0.151457
C	 -1.314102	 0.720702	 0.308050
H	 0.048964	 0.548672	 -1.383770
H	 0.359545	 1.919914	 -0.329401
C	 -1.879877	 -0.696417	 0.207570
H	 -1.998554	 1.418019	 -0.164481
H	 -1.251244	 1.018379	 1.352597
H	 -1.983585	 -1.000545	 -0.829386
H	 -2.858754	 -0.755088	 0.671978
H	 -1.238193	 -1.422043	 0.698588

	symmetry c1
}
set optking {
	frozen_dihedral = ("
		6 3 2 4
	")
}

ee = optimize('scf')
oeprop('DIPOLE', 'QUADRUPOLE', 'MULLIKEN_CHARGES')
f=open( 'psi4out.xyz', 'w' )
f.write( "13  " )
f.write( str(ee) + "\n" )
f.write( MOL.save_string_xyz() )
f.close()
--------------------------------------------------------------------------

    Molecular point group: c1
  Charge       = 0
  Multiplicity = 1
  Basis Set: 6-31G*
  Basis Set:
  @DF-RHF Final Energy:  -230.98463603981330
    Total Energy =                       -230.9846360398133527
    Molecular point group: c1
  Basis Set: 6-31G*
  Basis Set:
  Basis Set: 6-31G*
  Basis Set:
  @DF-RHF Final Energy:  -230.98431314221480
    Total Energy =                       -230.9843131422150009
  Basis Set: 6-31G*
  Basis Set:
  Basis Set: 6-31G*
  Basis Set:
  @DF-RHF Final Energy:  -230.98464808022143
    Total Energy =                       -230.9846480802215183
  Basis Set: 6-31G*
  Basis Set:
  Basis Set: 6-31G*
  Basis Set:
  @DF-RHF Final Energy:  -230.98463291667784
    Total Energy =                       -230.9846329166777537
  Basis Set: 6-31G*
  Basis Set:
  Basis Set: 6-31G*
  Basis Set:
  @DF-RHF Final Energy:  -230.98465096648235
    Total Energy =                       -230.9846509664823202
  Basis Set: 6-31G*
  Basis Set:
  Charge       = 0
  Multiplicity = 1
  Basis Set: 6-31G*
  Basis Set:

    Orbital Energies (a.u.)
    -----------------------

    Doubly Occupied:

       1A    -20.563008     2A    -11.327293     3A    -11.238550
       4A    -11.236006     5A    -11.222280     6A     -1.403036
       7A     -1.087251     8A     -0.973022     9A     -0.848101
      10A     -0.789838    11A     -0.663166    12A     -0.649073
      13A     -0.630293    14A     -0.594289    15A     -0.560260
      16A     -0.532088    17A     -0.507859    18A     -0.493349
      19A     -0.481792    20A     -0.410658

  @DF-RHF Final Energy:  -230.98465102342067

   => Energetics <=

    Nuclear Repulsion Energy =            173.5245805358113671
    One-Electron Energy =                -656.5960351709366023
    Two-Electron Energy =                 252.0868036117045108
    DFT Exchange-Correlation Energy =       0.0000000000000000
    Empirical Dispersion Energy =           0.0000000000000000
    PCM Polarization Energy =               0.0000000000000000
    EFP Energy =                            0.0000000000000000
    Total Energy =                       -230.9846510234207244
    Molecular point group: c1
  Basis Set: 6-31G*
  Basis Set:

  -Total Gradient:
     Atom            X                  Y                   Z
    ------   -----------------  -----------------  -----------------
       1       -0.000007835146    -0.000002957911    -0.000002365809
       2       -0.000414751927    -0.000513199990     0.000058567049
       3        0.000418221731     0.000472181793    -0.000128830706
       4        0.000251380206     0.000314754138    -0.000029875221
       5        0.000004974671    -0.000001701892     0.000009298051
       6       -0.000253256289    -0.000278190140     0.000091660657
       7       -0.000001390153     0.000008740626    -0.000003878260
       8        0.000001758749     0.000001598822     0.000000751200
       9       -0.000001556807     0.000004283662     0.000006372238
      10        0.000005545056    -0.000006081182    -0.000001039009
      11        0.000013228201    -0.000000927109     0.000003958972
      12       -0.000009783413     0.000001558725    -0.000008323128
      13       -0.000006534884    -0.000000059542     0.000003703967

  **** Optimization is complete! (in 6 steps) ****
    Final optimized geometry and variables:
    Molecular point group: c1

    Geometry (in Angstrom), charge = 0, multiplicity = 1:

    H            1.158490540323     0.155954132475     1.388105353845
    C            1.147296582207     0.033739079783     0.297845301770
    C            0.073378439568     0.810531296404    -0.422245797046
    O            1.954745977768    -0.656853534469    -0.233746342416
    C           -1.306524915097     0.662417682711     0.231443452121
    H            0.058472407037     0.491025050659    -1.458033828917
    H            0.372203605315     1.857901985561    -0.401895125898
    C           -1.872535536620    -0.754694338741     0.131120253421
    H           -1.990371585720     1.359297578177    -0.242591040100
    H           -1.245728360857     0.960554564156     1.275969943189
    H           -1.970158483407    -1.061554373613    -0.905696702497
    H           -2.854018120332    -0.812896375128     0.589967354451
    H           -1.233967382783    -1.479400700521     0.628129582216

  Mulliken Charges: (a.u.)
   Center  Symbol    Alpha    Beta     Spin     Total
       1     H     0.43223  0.43223  0.00000  0.13555
       2     C     2.83148  2.83148  0.00000  0.33704
       3     C     3.20812  3.20812  0.00000 -0.41624
       4     O     4.23743  4.23743  0.00000 -0.47486
       5     C     3.16569  3.16569  0.00000 -0.33138
       6     H     0.39960  0.39960  0.00000  0.20081
       7     H     0.40529  0.40529  0.00000  0.18943
       8     C     3.24247  3.24247  0.00000 -0.48493
       9     H     0.41163  0.41163  0.00000  0.17673
      10     H     0.41868  0.41868  0.00000  0.16265
      11     H     0.41555  0.41555  0.00000  0.16890
      12     H     0.41488  0.41488  0.00000  0.17024
      13     H     0.41697  0.41697  0.00000  0.16606

   Total alpha = 20.00000, Total beta = 20.00000, Total charge = -0.00000
