  ==> Input File <==

--------------------------------------------------------------------------
set {
	reference rhf
	basis 6-31G*
}

set_num_threads( 1 )
memory 2 gb

molecule MOL {
0 1

O	 -0.988096	 -1.408613	 0.050699
C	 -0.676749	 -0.249230	 -0.009274
C	 -1.746085	 0.827156	 -0.009539
N	 0.623947	 0.147590	 -0.102813
H	 -1.701500	 1.431508	 -0.908902
H	 -2.703425	 0.330732	 0.036390
H	 -1.647323	 1.487769	 0.845106
C	 0.955164	 1.236016	 -1.001423
C	 1.746580	 -0.642241	 0.353374
H	 1.720147	 1.857604	 -0.549265
H	 0.076179	 1.828727	 -1.185864
H	 1.333546	 0.863301	 -1.950809
H	 2.537487	 0.022115	 0.680690
H	 1.478411	 -1.267119	 1.190362
H	 2.145941	 -1.275191	 -0.437005

	symmetry c1
}
set optking {
	frozen_dihedral = ("
		2 4 8 10
	")
}

ee = energy('scf')
oeprop('DIPOLE', 'QUADRUPOLE', 'MULLIKEN_CHARGES')
f=open( 'psi4out.xyz', 'w' )
f.write( "15  " )
f.write( str(ee) + "\n" )
f.write( MOL.save_string_xyz() )
f.close()
--------------------------------------------------------------------------

    Molecular point group: c1

    Geometry (in Angstrom), charge = 0, multiplicity = 1:

       Center              X                  Y                   Z               Mass
    ------------   -----------------  -----------------  -----------------  -----------------
           O         -0.982863295997    -1.396177248713     0.176212351540    15.994914619560
           C         -0.671516295997    -0.236794248713     0.116239351540    12.000000000000
           C         -1.740852295997     0.839591751287     0.115974351540    12.000000000000
           N          0.629179704003     0.160025751287     0.022700351540    14.003074004780
           H         -1.696267295997     1.443943751287    -0.783388648460     1.007825032070
           H         -2.698192295997     0.343167751287     0.161903351540     1.007825032070
           H         -1.642090295997     1.500204751287     0.970619351540     1.007825032070
           C          0.960396704003     1.248451751287    -0.875909648460    12.000000000000
           C          1.751812704003    -0.629805248713     0.478887351540    12.000000000000
           H          1.725379704003     1.870039751287    -0.423751648460     1.007825032070
           H          0.081411704003     1.841162751287    -1.060350648460     1.007825032070
           H          1.338778704003     0.875736751287    -1.825295648460     1.007825032070
           H          2.542719704003     0.034550751287     0.806203351540     1.007825032070
           H          1.483643704003    -1.254683248713     1.315875351540     1.007825032070
           H          2.151173704003    -1.262755248713    -0.311491648460     1.007825032070

  Charge       = 0
  Multiplicity = 1
  Basis Set: 6-31G*
  Basis Set:

    Orbital Energies (a.u.)
    -----------------------

    Doubly Occupied:

       1A    -20.521638     2A    -15.575613     3A    -11.342217
       4A    -11.262696     5A    -11.254224     6A    -11.227786
       7A     -1.385980     8A     -1.242414     9A     -1.014973
      10A     -0.970051    11A     -0.921326    12A     -0.738827
      13A     -0.678963    14A     -0.656736    15A     -0.651790
      16A     -0.598660    17A     -0.580254    18A     -0.563499
      19A     -0.559103    20A     -0.556271    21A     -0.529566
      22A     -0.493464    23A     -0.413826    24A     -0.362759

  @DF-RHF Final Energy:  -286.01674401064452

   => Energetics <=

    Nuclear Repulsion Energy =            251.9906138354658651
    One-Electron Energy =                -887.8093984371712395
    Two-Electron Energy =                 349.8020405910605177
    DFT Exchange-Correlation Energy =       0.0000000000000000
    Empirical Dispersion Energy =           0.0000000000000000
    PCM Polarization Energy =               0.0000000000000000
    EFP Energy =                            0.0000000000000000
    Total Energy =                       -286.0167440106448566

  Mulliken Charges: (a.u.)
   Center  Symbol    Alpha    Beta     Spin     Total
       1     O     4.28865  4.28865  0.00000 -0.57730
       2     C     2.64146  2.64146  0.00000  0.71708
       3     C     3.29311  3.29311  0.00000 -0.58622
       4     N     3.81803  3.81803  0.00000 -0.63605
       5     H     0.40955  0.40955  0.00000  0.18090
       6     H     0.39227  0.39227  0.00000  0.21545
       7     H     0.40392  0.40392  0.00000  0.19215
       8     C     3.14255  3.14255  0.00000 -0.28509
       9     C     3.13466  3.13466  0.00000 -0.26933
      10     H     0.41495  0.41495  0.00000  0.17011
      11     H     0.41140  0.41140  0.00000  0.17721
      12     H     0.41468  0.41468  0.00000  0.17063
      13     H     0.41792  0.41792  0.00000  0.16416
      14     H     0.39994  0.39994  0.00000  0.20012
      15     H     0.41691  0.41691  0.00000  0.16618

   Total alpha = 24.00000, Total beta = 24.00000, Total charge =  0.00000
