                              Psi4 1.0.54 Driver

  ==> Input File <==

--------------------------------------------------------------------------
set {
	reference rhf
	basis cc-pvtz
}

set_num_threads( 4 )
memory 2 gb

molecule MOL {
0 1

O	 0.084086	 -0.156070	 -0.495113
C	 1.121787	 0.124983	 0.000110
C	 1.433731	 1.421110	 0.703109
O	 2.167739	 -0.685178	 -0.000678
C	 0.266615	 2.397149	 0.736459
H	 1.765320	 1.170537	 1.705477
H	 2.295482	 1.855684	 0.207132
C	 0.616278	 3.696946	 1.455188
H	 -0.580728	 1.925736	 1.221557
H	 -0.049681	 2.612068	 -0.278091
C	 -0.547173	 4.681614	 1.496425
H	 0.935611	 3.474884	 2.470055
H	 1.466002	 4.164588	 0.964764
H	 -1.401369	 4.255526	 2.011578
H	 -0.270597	 5.593955	 2.011999
H	 -0.867058	 4.950343	 0.495406
C	 3.449556	 -0.089977	 -0.000570
H	 3.585694	 0.522473	 -0.879546
H	 4.155805	 -0.904274	 -0.001389
H	 3.586173	 0.521118	 0.879272

	symmetry c1
}
set optking {
	frozen_dihedral = ("
		1 2 4 17
	")
}

ee,wfn = optimize('scf', return_wfn=True)
oeprop( wfn, 'DIPOLE', 'QUADRUPOLE', 'MULLIKEN_CHARGES')
f=open( 'psi4out.xyz', 'w' )
f.write( "20  " )
f.write( str(ee) + "\n" )
f.write( MOL.save_string_xyz() )
f.close()
--------------------------------------------------------------------------

    Molecular point group: c1
  Charge       = 0
  Multiplicity = 1
  Basis Set: CC-PVTZ
  Basis Set:
  @DF-RHF Final Energy:  -384.05899968509397
    Total Energy =                       -384.0589996850936814
    Molecular point group: c1
  Basis Set: CC-PVTZ
  Basis Set:
  Basis Set: CC-PVTZ
  Basis Set:
  @DF-RHF Final Energy:  -383.91423776710002
    Total Energy =                       -383.9142377671005306
  Basis Set: CC-PVTZ
  Basis Set:
  Basis Set: CC-PVTZ
  Basis Set:
  @DF-RHF Final Energy:  -384.02377972516905
    Total Energy =                       -384.0237797251689926
  Basis Set: CC-PVTZ
  Basis Set:
  Basis Set: CC-PVTZ
  Basis Set:
  @DF-RHF Final Energy:  -384.06406591080787
    Total Energy =                       -384.0640659108078125
  Basis Set: CC-PVTZ
  Basis Set:
  @DF-RHF Final Energy:  -384.06598939150973
    Total Energy =                       -384.0659893915099019
  @DF-RHF Final Energy:  -383.99771649454158
    Total Energy =                       -383.9977164945418053
  @DF-RHF Final Energy:  -384.06212613041669
    Total Energy =                       -384.0621261304160043
  @DF-RHF Final Energy:  -384.06709594361257
    Total Energy =                       -384.0670959436123439
  Basis Set: CC-PVTZ
  Basis Set:
  @DF-RHF Final Energy:  -384.06649296864185
    Total Energy =                       -384.0664929686415690
  Basis Set: CC-PVTZ
  Basis Set:
  Basis Set: CC-PVTZ
  Basis Set:
  @DF-RHF Final Energy:  -384.06741982873331
    Total Energy =                       -384.0674198287332501
  Basis Set: CC-PVTZ
  Basis Set:
  Basis Set: CC-PVTZ
  Basis Set:
  @DF-RHF Final Energy:  -384.06742459462095
    Total Energy =                       -384.0674245946208885
  Basis Set: CC-PVTZ
  Basis Set:
  Charge       = 0
  Multiplicity = 1
  Basis Set: CC-PVTZ
  Basis Set:

    Orbital Energies (a.u.)
    -----------------------

    Doubly Occupied:

       1A    -20.590924     2A    -20.532133     3A    -11.366498
       4A    -11.292924     5A    -11.242786     6A    -11.222404
       7A    -11.221387     8A    -11.211533     9A     -1.464589
      10A     -1.368640    11A     -1.092788    12A     -1.017990
      13A     -0.983046    14A     -0.902229    15A     -0.810943
      16A     -0.767771    17A     -0.701223    18A     -0.689342
      19A     -0.676320    20A     -0.650491    21A     -0.608153
      22A     -0.593569    23A     -0.590088    24A     -0.554385
      25A     -0.541446    26A     -0.522179    27A     -0.507296
      28A     -0.483108    29A     -0.478460    30A     -0.474597
      31A     -0.452653    32A     -0.434437

  @DF-RHF Final Energy:  -384.06742516971184

   => Energetics <=

    Nuclear Repulsion Energy =            383.6712018865899267
    One-Electron Energy =               -1283.3845885339608230
    Two-Electron Energy =                 515.6459614776591707
    DFT Exchange-Correlation Energy =       0.0000000000000000
    Empirical Dispersion Energy =           0.0000000000000000
    PCM Polarization Energy =               0.0000000000000000
    EFP Energy =                            0.0000000000000000
    Total Energy =                       -384.0674251697117825
    Molecular point group: c1
  Basis Set: CC-PVTZ
  Basis Set:

  -Total Gradient:
     Atom            X                  Y                   Z
    ------   -----------------  -----------------  -----------------
       1        0.001446986891     0.002492258839    -0.001437747405
       2       -0.001869983102    -0.002619303794     0.000778842209
       3        0.000024715802    -0.000030284559     0.000002533358
       4        0.000034772372    -0.001510568061     0.002832729289
       5       -0.000015491597     0.000014067202     0.000002712638
       6        0.000002800185     0.000002615981     0.000013702225
       7       -0.000003145957     0.000000012822     0.000004497335
       8        0.000009123625    -0.000004937723    -0.000002451222
       9        0.000003411244     0.000006001760     0.000001943747
      10       -0.000000036410    -0.000001938381     0.000000576964
      11       -0.000016279648     0.000003303041     0.000003126105
      12        0.000003064239     0.000000236836     0.000001052301
      13       -0.000001342085    -0.000003459753    -0.000001733391
      14       -0.000001594571    -0.000001683927    -0.000001018806
      15        0.000004034789     0.000000849633     0.000006018972
      16        0.000001335834     0.000000537412    -0.000003462088
      17        0.000380183263     0.001644156823    -0.002193504282
      18       -0.000010514326     0.000019112917    -0.000015966661
      19       -0.000000770353    -0.000004926519    -0.000011108452
      20        0.000008729809    -0.000006050555     0.000019257161

  **** Optimization is complete! (in 12 steps) ****
    Final optimized geometry and variables:
    Molecular point group: c1

    Geometry (in Angstrom), charge = 0, multiplicity = 1:

    O           -0.804966886830    -0.502221814437    -1.776483586370
    C            0.148295523660    -0.681743655871    -1.108242448229
    C            0.340483101589    -0.065717286962     0.260247627158
    O            1.113776856832    -1.491914155338    -1.550981651459
    C           -0.875789923573     0.712766393287     0.743583662284
    H            0.587514073252    -0.863659505224     0.953807076313
    H            1.210720155167     0.582334488026     0.226474465697
    C           -0.662364001802     1.323840932590     2.125459782835
    H           -1.736562041121     0.054402735324     0.760787999061
    H           -1.107849779042     1.491467270899     0.027001871101
    C           -1.876102373976     2.103252291499     2.619907095028
    H           -0.425875396543     0.537647167085     2.837833289486
    H            0.202007975814     1.982638864544     2.101421759661
    H           -2.749268964562     1.463551592207     2.688429553164
    H           -1.696983291449     2.526015632540     3.601611350544
    H           -2.117356484775     2.918467346458     1.946424911269
    C            2.461463191751    -1.310127759499    -1.195078208407
    H            2.804793534637    -0.317269985848    -1.457404802942
    H            3.020133225434    -2.034252462115    -1.765307247855
    H            2.632629619494    -1.486201253215    -0.141265403661

  Mulliken Charges: (a.u.)
   Center  Symbol    Alpha    Beta     Spin     Total
       1     O     4.17618  4.17618  0.00000 -0.35236
       2     C     2.80249  2.80249  0.00000  0.39501
       3     C     3.13492  3.13492  0.00000 -0.26985
       4     O     4.13532  4.13532  0.00000 -0.27065
       5     C     3.08148  3.08148  0.00000 -0.16297
       6     H     0.43814  0.43814  0.00000  0.12373
       7     H     0.44232  0.44232  0.00000  0.11535
       8     C     3.08529  3.08529  0.00000 -0.17059
       9     H     0.44450  0.44450  0.00000  0.11100
      10     H     0.44357  0.44357  0.00000  0.11286
      11     C     3.14986  3.14986  0.00000 -0.29972
      12     H     0.45567  0.45567  0.00000  0.08866
      13     H     0.45606  0.45606  0.00000  0.08787
      14     H     0.45307  0.45307  0.00000  0.09386
      15     H     0.44817  0.44817  0.00000  0.10366
      16     H     0.45321  0.45321  0.00000  0.09359
      17     C     3.04669  3.04669  0.00000 -0.09337
      18     H     0.45840  0.45840  0.00000  0.08320
      19     H     0.43382  0.43382  0.00000  0.13235
      20     H     0.46082  0.46082  0.00000  0.07836

   Total alpha = 32.00000, Total beta = 32.00000, Total charge = -0.00000

*** Psi4 exiting successfully. Buy a developer a beer!
