  ==> Input File <==

--------------------------------------------------------------------------
set {
	reference rhf
	basis 6-31G*
}

set_num_threads( 4 )
memory 2 gb

molecule MOL {
0 1

H	 -2.646374	 -0.642757	 1.268656
C	 -2.083525	 -0.384536	 0.393091
O	 -0.807605	 -0.127164	 0.768327
F	 -2.118945	 -1.383102	 -0.486752
F	 -2.621877	 0.670592	 -0.209486
C	 -0.572959	 0.162793	 2.100075
C	 0.328959	 1.389750	 2.135832
Cl	 0.201484	 -1.204758	 2.916934
H	 -1.477968	 0.392485	 2.634841
F	 0.586267	 1.734859	 3.379549
F	 -0.296638	 2.393358	 1.553735
F	 1.463025	 1.188545	 1.510223

	symmetry c1
}
set optking {
	frozen_dihedral = ("
		6 3 2 4
	")
}

ee = optimize('scf')
oeprop('DIPOLE', 'QUADRUPOLE', 'MULLIKEN_CHARGES')
f=open( 'psi4out.xyz', 'w' )
f.write( "12  " )
f.write( str(ee) + "\n" )
f.write( MOL.save_string_xyz() )
f.close()
--------------------------------------------------------------------------

    Molecular point group: c1
  Charge       = 0
  Multiplicity = 1
  Basis Set: 6-31G*
  Basis Set:
  @DF-RHF Final Energy: -1146.30615032540777
    Total Energy =                      -1146.3061503254066338
    Molecular point group: c1
  Basis Set: 6-31G*
  Basis Set:
  Basis Set: 6-31G*
  Basis Set:
  @DF-RHF Final Energy: -1146.30780315543188
    Total Energy =                      -1146.3078031554316567
  Basis Set: 6-31G*
  Basis Set:
  Basis Set: 6-31G*
  Basis Set:
  @DF-RHF Final Energy: -1146.30865934357507
    Total Energy =                      -1146.3086593435748455
  Basis Set: 6-31G*
  Basis Set:
  Basis Set: 6-31G*
  Basis Set:
  @DF-RHF Final Energy: -1146.30916399760281
    Total Energy =                      -1146.3091639976041733
  Basis Set: 6-31G*
  Basis Set:
  Basis Set: 6-31G*
  Basis Set:
  @DF-RHF Final Energy: -1146.30923338186494
    Total Energy =                      -1146.3092333818649422
  Basis Set: 6-31G*
  Basis Set:
  Basis Set: 6-31G*
  Basis Set:
  @DF-RHF Final Energy: -1146.30924504812447
    Total Energy =                      -1146.3092450481240121
  Basis Set: 6-31G*
  Basis Set:
  Basis Set: 6-31G*
  Basis Set:
  @DF-RHF Final Energy: -1146.30925133858682
    Total Energy =                      -1146.3092513385865914
  Basis Set: 6-31G*
  Basis Set:
  Charge       = 0
  Multiplicity = 1
  Basis Set: 6-31G*
  Basis Set:

    Orbital Energies (a.u.)
    -----------------------

    Doubly Occupied:

       1A   -104.853474     2A    -26.364808     3A    -26.362761
       4A    -26.361912     5A    -26.341753     6A    -26.340766
       7A    -20.650625     8A    -11.533915     9A    -11.489495
      10A    -11.410930    11A    -10.588276    12A     -8.057572
      13A     -8.054145    14A     -8.053992    15A     -1.766065
      16A     -1.713906    17A     -1.662369    18A     -1.660877
      19A     -1.636205    20A     -1.490510    21A     -1.183448
      22A     -1.060410    23A     -0.983220    24A     -0.930415
      25A     -0.862571    26A     -0.858145    27A     -0.850097
      28A     -0.816650    29A     -0.813457    30A     -0.793118
      31A     -0.732128    32A     -0.728238    33A     -0.698188
      34A     -0.690248    35A     -0.684154    36A     -0.676934
      37A     -0.666255    38A     -0.662085    39A     -0.654768
      40A     -0.643205    41A     -0.603514    42A     -0.567054
      43A     -0.523848    44A     -0.487692    45A     -0.479082

  @DF-RHF Final Energy: -1146.30925158356354

   => Energetics <=

    Nuclear Repulsion Energy =            725.5342630697111872
    One-Electron Energy =               -3033.6004718089852759
    Two-Electron Energy =                1161.7569571557110066
    DFT Exchange-Correlation Energy =       0.0000000000000000
    Empirical Dispersion Energy =           0.0000000000000000
    PCM Polarization Energy =               0.0000000000000000
    EFP Energy =                            0.0000000000000000
    Total Energy =                      -1146.3092515835628546
    Molecular point group: c1
  Basis Set: 6-31G*
  Basis Set:

  -Total Gradient:
     Atom            X                  Y                   Z
    ------   -----------------  -----------------  -----------------
       1       -0.000004419918     0.000005822117     0.000005822531
       2       -0.000042926356     0.000965308396    -0.001460781298
       3       -0.001091394960     0.001953662515     0.000181420464
       4        0.000375283805    -0.001325777127     0.001166339907
       5        0.000000451929     0.000003207485     0.000037131166
       6        0.000773012566    -0.001577903240     0.000087045656
       7       -0.000021145751     0.000049610895    -0.000085722049
       8       -0.000007668369     0.000016646180     0.000028433501
       9        0.000007105390    -0.000028553186    -0.000003237902
      10       -0.000006840040    -0.000080417082    -0.000000817366
      11        0.000017120571     0.000009807093     0.000049371820
      12        0.000001421122     0.000008585970    -0.000005006408

  **** Optimization is complete! (in 8 steps) ****
    Final optimized geometry and variables:
    Molecular point group: c1

    Geometry (in Angstrom), charge = 0, multiplicity = 1:

    H           -1.995131112986    -1.331222264742    -0.320409346048
    C           -1.551166969842    -0.792465805733    -1.140528588540
    O           -0.375699123722    -0.191742367713    -0.801708224048
    F           -1.310633382009    -1.622434934409    -2.135346044072
    F           -2.406470365192     0.128457218756    -1.565362873855
    C           -0.110275460178     0.005337532476     0.528474368291
    C            0.964634192497     1.083434398725     0.605606619804
    CL           0.442040753766    -1.489423602985     1.324116359782
    H           -0.972598524509     0.353265854466     1.076065945340
    F            1.262961060996     1.334946984678     1.862611427194
    F            0.497741218120     2.190061156221     0.067382388686
    F            2.056634548392     0.736584946393    -0.027529379549

  Mulliken Charges: (a.u.)
   Center  Symbol    Alpha    Beta     Spin     Total
       1     H     0.41900  0.41900  0.00000  0.16200
       2     C     2.56734  2.56734  0.00000  0.86533
       3     O     4.29657  4.29657  0.00000 -0.59314
       4     F     4.67101  4.67101  0.00000 -0.34202
       5     F     4.67808  4.67808  0.00000 -0.35616
       6     C     3.04081  3.04081  0.00000 -0.08162
       7     C     2.43008  2.43008  0.00000  1.13983
       8    CL     8.50740  8.50740  0.00000 -0.01481
       9     H     0.37516  0.37516  0.00000  0.24968
      10     F     4.67459  4.67459  0.00000 -0.34918
      11     F     4.67380  4.67380  0.00000 -0.34759
      12     F     4.66615  4.66615  0.00000 -0.33231

   Total alpha = 45.00000, Total beta = 45.00000, Total charge =  0.00000
