                              Psi4 1.0.54 Driver

  ==> Input File <==

--------------------------------------------------------------------------
set {
	reference rhf
	basis cc-pvtz
}

set_num_threads( 4 )
memory 2 gb

molecule MOL {
0 1

H	 2.270473	 -0.004426	 -0.525714
O	 1.512471	 -0.568669	 -0.548719
C	 0.489979	 0.078084	 0.002623
C	 -0.763662	 -0.754014	 0.000816
O	 0.592690	 1.177659	 0.424875
C	 -2.038001	 0.074705	 -0.000833
H	 -0.712945	 -1.405886	 -0.864342
H	 -0.715137	 -1.405770	 0.866182
H	 -2.087267	 0.710831	 -0.874232
H	 -2.903419	 -0.576199	 -0.001922
H	 -2.089467	 0.710909	 0.872389

	symmetry c1
}
set optking {
	frozen_dihedral = ("
		2 3 4 7
	")
}

ee,wfn = optimize('scf', return_wfn=True)
oeprop( wfn, 'DIPOLE', 'QUADRUPOLE', 'MULLIKEN_CHARGES')
f=open( 'psi4out.xyz', 'w' )
f.write( "11  " )
f.write( str(ee) + "\n" )
f.write( MOL.save_string_xyz() )
f.close()
--------------------------------------------------------------------------

    Molecular point group: c1
  Charge       = 0
  Multiplicity = 1
  Basis Set: CC-PVTZ
  Basis Set:
  @DF-RHF Final Energy:  -266.95241254518783
    Total Energy =                       -266.9524125451879399
    Molecular point group: c1
  Basis Set: CC-PVTZ
  Basis Set:
  Basis Set: CC-PVTZ
  Basis Set:
  @DF-RHF Final Energy:  -266.95235715053093
    Total Energy =                       -266.9523571505310429
  Basis Set: CC-PVTZ
  Basis Set:
  Basis Set: CC-PVTZ
  Basis Set:
  @DF-RHF Final Energy:  -266.95233026442151
    Total Energy =                       -266.9523302644216756
  Basis Set: CC-PVTZ
  Basis Set:
  Basis Set: CC-PVTZ
  Basis Set:
  @DF-RHF Final Energy:  -266.95263825281955
    Total Energy =                       -266.9526382528194404
  Basis Set: CC-PVTZ
  Basis Set:
  Charge       = 0
  Multiplicity = 1
  Basis Set: CC-PVTZ
  Basis Set:

    Orbital Energies (a.u.)
    -----------------------

    Doubly Occupied:

       1A    -20.606097     2A    -20.540505     3A    -11.374508
       4A    -11.242638     5A    -11.220280     6A     -1.479088
       7A     -1.369973     8A     -1.066494     9A     -0.918528
      10A     -0.806067    11A     -0.706474    12A     -0.693279
      13A     -0.661421    14A     -0.601654    15A     -0.596589
      16A     -0.534855    17A     -0.527547    18A     -0.507162
      19A     -0.483352    20A     -0.448058

  @DF-RHF Final Energy:  -266.95264185103463

   => Energetics <=

    Nuclear Repulsion Energy =            180.1113083671120876
    One-Electron Energy =                -721.3587672305309297
    Two-Electron Energy =                 274.2948170123841010
    DFT Exchange-Correlation Energy =       0.0000000000000000
    Empirical Dispersion Energy =           0.0000000000000000
    PCM Polarization Energy =               0.0000000000000000
    EFP Energy =                            0.0000000000000000
    Total Energy =                       -266.9526418510347412
    Molecular point group: c1
  Basis Set: CC-PVTZ
  Basis Set:

  -Total Gradient:
     Atom            X                  Y                   Z
    ------   -----------------  -----------------  -----------------
       1       -0.000041684302    -0.000026150234    -0.000015609826
       2       -0.000244236035     0.000573683841    -0.000923799829
       3        0.000382473856    -0.000900709698     0.001470902896
       4       -0.000885255623     0.001368698310    -0.001190405502
       5        0.000096435490    -0.000056917057    -0.000044094694
       6        0.000013412045    -0.000009851201    -0.000032735984
       7        0.000629642400    -0.000915007122     0.000737591755
       8        0.000009154453    -0.000000631539    -0.000009566577
       9        0.000008845143    -0.000014281924     0.000018102317
      10        0.000016648718     0.000004495246     0.000002016594
      11        0.000014563856    -0.000023328620    -0.000012401150

  **** Optimization is complete! (in 5 steps) ****
    Final optimized geometry and variables:
    Molecular point group: c1

    Geometry (in Angstrom), charge = 0, multiplicity = 1:

    H            2.288313170954     0.001935849835    -0.452103604224
    O            1.529617177329    -0.558472464707    -0.518424265042
    C            0.493162439254     0.072980820899     0.022585197700
    C           -0.756012359196    -0.767633921480     0.013267159876
    O            0.583395853639     1.165446300084     0.466397360517
    C           -2.033749018909     0.057402398610     0.052162306111
    H           -0.720386755712    -1.429715906736    -0.841273682250
    H           -0.689840924785    -1.406273252466     0.889841783267
    H           -2.120482338288     0.683278028410    -0.827258507954
    H           -2.896582019788    -0.595712896716     0.088464351010
    H           -2.050861189565     0.701007877120     0.920058867773

  Mulliken Charges: (a.u.)
   Center  Symbol    Alpha    Beta     Spin     Total
       1     H     0.38092  0.38092  0.00000  0.23816
       2     O     4.15969  4.15969  0.00000 -0.31938
       3     C     2.80457  2.80457  0.00000  0.39086
       4     C     3.09700  3.09700  0.00000 -0.19399
       5     O     4.19314  4.19314  0.00000 -0.38628
       6     C     3.14050  3.14050  0.00000 -0.28101
       7     H     0.43693  0.43693  0.00000  0.12614
       8     H     0.44344  0.44344  0.00000  0.11312
       9     H     0.45141  0.45141  0.00000  0.09718
      10     H     0.44933  0.44933  0.00000  0.10134
      11     H     0.44307  0.44307  0.00000  0.11387

   Total alpha = 20.00000, Total beta = 20.00000, Total charge = -0.00000

*** Psi4 exiting successfully. Buy a developer a beer!
