  ==> Input File <==

--------------------------------------------------------------------------
set {
	reference rhf
	basis 6-31G*
}

set_num_threads( 4 )
memory 2 gb

molecule MOL {
0 1

O	 1.516406	 0.806481	 0.887928
C	 1.122059	 0.121804	 -0.000188
C	 -0.170150	 -0.657997	 -0.000612
O	 1.786741	 -0.048864	 -1.135990
C	 -1.412532	 0.227344	 -0.000452
H	 -0.153702	 -1.313099	 -0.867402
H	 -0.153924	 -1.313811	 0.865644
C	 -2.706999	 -0.587347	 -0.000541
H	 -1.388000	 0.879466	 -0.868000
H	 -1.387972	 0.879138	 0.867341
C	 -3.956778	 0.291888	 0.000910
H	 -2.726114	 -1.239230	 -0.871609
H	 -2.725217	 -1.240844	 0.869333
H	 -3.985213	 0.933254	 -0.875158
H	 -4.860123	 -0.309979	 0.000519
H	 -3.984618	 0.931166	 0.878514
C	 3.022031	 0.631045	 -1.266084
H	 2.877050	 1.699438	 -1.195334
H	 3.401856	 0.368980	 -2.241278
H	 3.712704	 0.314671	 -0.497719

	symmetry c1
}
set optking {
	frozen_dihedral = ("
		1 2 3 6
	")
}

ee = optimize('scf')
oeprop('DIPOLE', 'QUADRUPOLE', 'MULLIKEN_CHARGES')
f=open( 'psi4out.xyz', 'w' )
f.write( "20  " )
f.write( str(ee) + "\n" )
f.write( MOL.save_string_xyz() )
f.close()
--------------------------------------------------------------------------

    Molecular point group: c1
  Charge       = 0
  Multiplicity = 1
  Basis Set: 6-31G*
  Basis Set:
  @DF-RHF Final Energy:  -383.93932881512188
    Total Energy =                       -383.9393288151220531
    Molecular point group: c1
  Basis Set: 6-31G*
  Basis Set:
  Basis Set: 6-31G*
  Basis Set:
  @DF-RHF Final Energy:  -383.93998489596021
    Total Energy =                       -383.9399848959603787
  Basis Set: 6-31G*
  Basis Set:
  Basis Set: 6-31G*
  Basis Set:
  @DF-RHF Final Energy:  -383.93977074747522
    Total Energy =                       -383.9397707474760182
  Basis Set: 6-31G*
  Basis Set:
  Basis Set: 6-31G*
  Basis Set:
  @DF-RHF Final Energy:  -383.94003350085859
    Total Energy =                       -383.9400335008587035
  Basis Set: 6-31G*
  Basis Set:
  Basis Set: 6-31G*
  Basis Set:
  @DF-RHF Final Energy:  -383.94004702592071
    Total Energy =                       -383.9400470259208760
  Basis Set: 6-31G*
  Basis Set:
  Charge       = 0
  Multiplicity = 1
  Basis Set: 6-31G*
  Basis Set:

    Orbital Energies (a.u.)
    -----------------------

    Doubly Occupied:

       1A    -20.605795     2A    -20.541985     3A    -11.371223
       4A    -11.280734     5A    -11.233724     6A    -11.227714
       7A    -11.223191     8A    -11.213319     9A     -1.469341
      10A     -1.361134    11A     -1.091265    12A     -1.024395
      13A     -0.969202    14A     -0.888312    15A     -0.806104
      16A     -0.772557    17A     -0.694867    18A     -0.680114
      19A     -0.672947    20A     -0.646974    21A     -0.598641
      22A     -0.591881    23A     -0.574482    24A     -0.552393
      25A     -0.534173    26A     -0.522212    27A     -0.506606
      28A     -0.480782    29A     -0.477529    30A     -0.474368
      31A     -0.453328    32A     -0.431673

  @DF-RHF Final Energy:  -383.94004696351561

   => Energetics <=

    Nuclear Repulsion Energy =            382.0978836805889500
    One-Electron Energy =               -1280.1299283745161119
    Two-Electron Energy =                 514.0919977304121176
    DFT Exchange-Correlation Energy =       0.0000000000000000
    Empirical Dispersion Energy =           0.0000000000000000
    PCM Polarization Energy =               0.0000000000000000
    EFP Energy =                            0.0000000000000000
    Total Energy =                       -383.9400469635151012
    Molecular point group: c1
  Basis Set: 6-31G*
  Basis Set:

  -Total Gradient:
     Atom            X                  Y                   Z
    ------   -----------------  -----------------  -----------------
       1        0.000090687130    -0.000115173651     0.000093998842
       2       -0.000111977977     0.000165151406    -0.000052780702
       3       -0.000082839228     0.000117890543    -0.000148866496
       4        0.000000103487     0.000014208389    -0.000025039919
       5        0.000008936354    -0.000018483419     0.000022211522
       6        0.000078412021    -0.000166573351     0.000079412340
       7       -0.000006426262     0.000014280139    -0.000011860347
       8        0.000012238856    -0.000005697341     0.000027014371
       9        0.000002264413    -0.000007716964     0.000012441584
      10       -0.000009266046     0.000004349348     0.000013480493
      11        0.000004192868     0.000010869584    -0.000022308360
      12        0.000019598263    -0.000003480726     0.000010619574
      13       -0.000001955765     0.000007860050     0.000007334283
      14       -0.000003664123     0.000010594813     0.000000325772
      15        0.000000560585    -0.000001245348    -0.000009433542
      16       -0.000000727904    -0.000007513133    -0.000000025302
      17        0.000008010857    -0.000029272486     0.000017053556
      18       -0.000004308564     0.000003164494    -0.000000793854
      19       -0.000007160232    -0.000000552949    -0.000004768362
      20        0.000003321255     0.000007340602    -0.000008015452

  **** Optimization is complete! (in 6 steps) ****
    Final optimized geometry and variables:
    Molecular point group: c1

    Geometry (in Angstrom), charge = 0, multiplicity = 1:

    O            1.542593135184     0.651193119433     1.093318279247
    C            1.184173745340    -0.028376173598     0.184689023977
    C           -0.096468403805    -0.827137804157     0.178367606678
    O            1.866450546918    -0.148110554648    -0.945066788518
    C           -1.323041640399     0.095326692612     0.172547173862
    H           -0.108808273646    -1.491172461564    -0.676471967767
    H           -0.100339062955    -1.430672282189     1.079997278320
    C           -2.638042367299    -0.683340664889     0.221123642460
    H           -1.302586217331     0.714838730462    -0.721487902182
    H           -1.259615247973     0.767753709013     1.022035560921
    C           -3.864009450891     0.228766084775     0.209257820348
    H           -2.686393865067    -1.365490051030    -0.624761596996
    H           -2.656156685191    -1.301939095151     1.115671675675
    H           -3.891450844535     0.837264971508    -0.690106876242
    H           -4.782077590246    -0.349045606901     0.245794384585
    H           -3.860704995878     0.900319534956     1.062780998364
    C            3.076386122081     0.581635454620    -1.043570460270
    H            2.888699972095     1.641594402437    -0.950589909331
    H            3.478056229054     0.356321919477    -2.019163562183
    H            3.768303029488     0.274468554407    -0.272763223707

  Mulliken Charges: (a.u.)
   Center  Symbol    Alpha    Beta     Spin     Total
       1     O     4.28712  4.28712  0.00000 -0.57425
       2     C     2.61213  2.61213  0.00000  0.77575
       3     C     3.19965  3.19965  0.00000 -0.39929
       4     O     4.30274  4.30274  0.00000 -0.60549
       5     C     3.16279  3.16279  0.00000 -0.32559
       6     H     0.40158  0.40158  0.00000  0.19685
       7     H     0.40124  0.40124  0.00000  0.19753
       8     C     3.15317  3.15317  0.00000 -0.30634
       9     H     0.41635  0.41635  0.00000  0.16729
      10     H     0.40490  0.40490  0.00000  0.19020
      11     C     3.24018  3.24018  0.00000 -0.48036
      12     H     0.42135  0.42135  0.00000  0.15729
      13     H     0.42032  0.42032  0.00000  0.15937
      14     H     0.42055  0.42055  0.00000  0.15889
      15     H     0.41773  0.41773  0.00000  0.16454
      16     H     0.41913  0.41913  0.00000  0.16174
      17     C     3.09348  3.09348  0.00000 -0.18696
      18     H     0.40871  0.40871  0.00000  0.18258
      19     H     0.40850  0.40850  0.00000  0.18300
      20     H     0.40838  0.40838  0.00000  0.18324

   Total alpha = 32.00000, Total beta = 32.00000, Total charge =  0.00000
