  ==> Input File <==

--------------------------------------------------------------------------
set {
	reference rhf
	basis cc-pvtz
}

set_num_threads( 4 )
memory 2 gb

molecule MOL {
0 1

H	 -2.171709	 0.882708	 0.500286
C	 -2.016894	 0.001719	 -0.114152
O	 -0.775228	 0.000056	 -0.739966
H	 -2.760846	 0.003757	 -0.898169
H	 -2.174774	 -0.879864	 0.498643
C	 0.378464	 0.385253	 -0.018927
C	 1.508346	 0.250505	 -1.033863
C	 0.274395	 1.836524	 0.453958
C	 0.628005	 -0.551378	 1.164732
H	 1.323642	 0.892945	 -1.885484
H	 1.570969	 -0.770189	 -1.389342
H	 2.460172	 0.523306	 -0.593891
H	 0.032760	 2.486694	 -0.378245
H	 1.218416	 2.159778	 0.876122
H	 -0.482620	 1.962884	 1.217845
H	 0.635292	 -1.582731	 0.833147
H	 1.587510	 -0.332264	 1.617741
H	 -0.125955	 -0.444849	 1.934643

	symmetry c1
}
set optking {
	frozen_dihedral = ("
		6 3 2 5
	")
}

ee = optimize('scf')
oeprop('DIPOLE', 'QUADRUPOLE', 'MULLIKEN_CHARGES')
f=open( 'psi4out.xyz', 'w' )
f.write( "18  " )
f.write( str(ee) + "\n" )
f.write( MOL.save_string_xyz() )
f.close()
--------------------------------------------------------------------------

    Molecular point group: c1
  Charge       = 0
  Multiplicity = 1
  Basis Set: CC-PVTZ
  Basis Set:
  @DF-RHF Final Energy:  -271.27614249491216
    Total Energy =                       -271.2761424949123921
    Molecular point group: c1
  Basis Set: CC-PVTZ
  Basis Set:
  Basis Set: CC-PVTZ
  Basis Set:
  @DF-RHF Final Energy:  -271.27572358357924
    Total Energy =                       -271.2757235835792926
  Basis Set: CC-PVTZ
  Basis Set:
  Basis Set: CC-PVTZ
  Basis Set:
  @DF-RHF Final Energy:  -271.27639721384497
    Total Energy =                       -271.2763972138450299
  Basis Set: CC-PVTZ
  Basis Set:
  Basis Set: CC-PVTZ
  Basis Set:
  @DF-RHF Final Energy:  -271.27640508022392
    Total Energy =                       -271.2764050802237534
  Basis Set: CC-PVTZ
  Basis Set:
  Basis Set: CC-PVTZ
  Basis Set:
  @DF-RHF Final Energy:  -271.27642100171374
    Total Energy =                       -271.2764210017139135
  Basis Set: CC-PVTZ
  Basis Set:
  Basis Set: CC-PVTZ
  Basis Set:
  @DF-RHF Final Energy:  -271.27642326118661
    Total Energy =                       -271.2764232611867783
  Basis Set: CC-PVTZ
  Basis Set:
  Charge       = 0
  Multiplicity = 1
  Basis Set: CC-PVTZ
  Basis Set:

    Orbital Energies (a.u.)
    -----------------------

    Doubly Occupied:

       1A    -20.540131     2A    -11.280225     3A    -11.258338
       4A    -11.207919     5A    -11.206279     6A    -11.201874
       7A     -1.373191     8A     -1.074468     9A     -0.947044
      10A     -0.940541    11A     -0.913283    12A     -0.753541
      13A     -0.656551    14A     -0.646823    15A     -0.639828
      16A     -0.592621    17A     -0.574386    18A     -0.553275
      19A     -0.535473    20A     -0.525178    21A     -0.515262
      22A     -0.490053    23A     -0.487700    24A     -0.440732
      25A     -0.406561

  @DF-RHF Final Energy:  -271.27642373592852

   => Energetics <=

    Nuclear Repulsion Energy =            272.6845793057773903
    One-Electron Energy =                -908.3994511812525161
    Two-Electron Energy =                 364.4384481395466082
    DFT Exchange-Correlation Energy =       0.0000000000000000
    Empirical Dispersion Energy =           0.0000000000000000
    PCM Polarization Energy =               0.0000000000000000
    EFP Energy =                            0.0000000000000000
    Total Energy =                       -271.2764237359285744
    Molecular point group: c1
  Basis Set: CC-PVTZ
  Basis Set:

  -Total Gradient:
     Atom            X                  Y                   Z
    ------   -----------------  -----------------  -----------------
       1       -0.000032702527    -0.000010005076     0.000007915071
       2        0.000549788567     0.001219864467     0.001271778596
       3        0.000084974837    -0.001707332017    -0.000023062173
       4       -0.000005171325    -0.000010993504     0.000013426666
       5       -0.000522072667    -0.000508383451    -0.001076596552
       6       -0.000166726196     0.001025172602    -0.000242672496
       7        0.000055295923    -0.000011595727     0.000015866623
       8       -0.000018180420    -0.000003942844     0.000015862676
       9        0.000014889695     0.000013977314     0.000044255246
      10       -0.000014808534     0.000007665482     0.000027925634
      11        0.000014524475    -0.000003246401    -0.000032779540
      12        0.000016664436    -0.000022826782    -0.000012161901
      13        0.000017174576     0.000008994204    -0.000014591923
      14       -0.000019753286    -0.000025678264    -0.000003909008
      15       -0.000000540077     0.000017874627     0.000000127386
      16        0.000023104544     0.000024235103    -0.000020561544
      17        0.000001750033     0.000003975537     0.000018065450
      18        0.000001787948    -0.000017755270     0.000011111789

  **** Optimization is complete! (in 7 steps) ****
    Final optimized geometry and variables:
    Molecular point group: c1

    Geometry (in Angstrom), charge = 0, multiplicity = 1:

    H           -2.154085722605     0.423765688787     0.667213526042
    C           -1.983248930183    -0.375014599386    -0.045559332290
    O           -0.762809168812    -0.264775516686    -0.704775213887
    H           -2.756066207040    -0.321350063950    -0.799989285116
    H           -2.081645950567    -1.327445984884     0.466445923060
    C            0.400190153537     0.078926612491     0.022600583500
    C            1.532381565731    -0.088612664912    -0.984803533794
    C            0.334649327880     1.534405510363     0.490170236671
    C            0.612425095761    -0.863002354732     1.208716790879
    H            1.367268113643     0.553326935325    -1.840769040495
    H            1.573897141815    -1.112324562951    -1.334634329586
    H            2.487766266854     0.165214883369    -0.541013920901
    H            0.138782744002     2.187663597552    -0.351200252845
    H            1.276899582999     1.827006153175     0.938290581164
    H           -0.438710732828     1.691951122877     1.231318976160
    H            0.615268065509    -1.894326716550     0.876630552904
    H            1.563629092602    -0.656571975962     1.684366683539
    H           -0.159915372835    -0.748447080336     1.959530735866

  Mulliken Charges: (a.u.)
   Center  Symbol    Alpha    Beta     Spin     Total
       1     H     0.46956  0.46956  0.00000  0.06089
       2     C     3.04513  3.04513  0.00000 -0.09025
       3     O     4.19098  4.19098  0.00000 -0.38196
       4     H     0.44278  0.44278  0.00000  0.11444
       5     H     0.46556  0.46556  0.00000  0.06889
       6     C     2.87601  2.87601  0.00000  0.24799
       7     C     3.14177  3.14177  0.00000 -0.28355
       8     C     3.15957  3.15957  0.00000 -0.31914
       9     C     3.16624  3.16624  0.00000 -0.33248
      10     H     0.44838  0.44838  0.00000  0.10323
      11     H     0.44941  0.44941  0.00000  0.10119
      12     H     0.45927  0.45927  0.00000  0.08146
      13     H     0.44629  0.44629  0.00000  0.10742
      14     H     0.44984  0.44984  0.00000  0.10032
      15     H     0.44894  0.44894  0.00000  0.10212
      16     H     0.44528  0.44528  0.00000  0.10944
      17     H     0.44675  0.44675  0.00000  0.10651
      18     H     0.44827  0.44827  0.00000  0.10347

   Total alpha = 25.00000, Total beta = 25.00000, Total charge =  0.00000
