  ==> Input File <==

--------------------------------------------------------------------------
set {
	reference rhf
	basis 6-31G*
}

set_num_threads( 1 )
memory 2 gb

molecule MOL {
0 1

H	 -4.031818	 -0.453427	 -0.000094
C	 -2.967712	 -0.297022	 -0.000064
C	 -2.458620	 0.992929	 0.000032
C	 -2.109895	 -1.385637	 -0.000122
H	 -3.124998	 1.836319	 0.000077
C	 -1.090278	 1.193236	 0.000070
H	 -2.506361	 -2.384847	 -0.000198
C	 -0.739812	 -1.187531	 -0.000085
H	 -0.678594	 2.184290	 0.000146
C	 -0.226438	 0.104061	 0.000012
H	 -0.072310	 -2.027032	 -0.000131
C	 1.239129	 0.373821	 0.000060
O	 1.918655	 -0.450377	 0.783351
O	 1.756707	 1.238603	 -0.634861
C	 3.321751	 -0.264905	 0.843296
H	 3.762364	 -0.392716	 -0.134620
H	 3.688990	 -1.019009	 1.521761
H	 3.557457	 0.721684	 1.214783

	symmetry c1
}
set optking {
	frozen_dihedral = ("
		12 13 15 16,
		10 12 13 15
	")
}

ee = energy('scf')
oeprop('DIPOLE', 'QUADRUPOLE', 'MULLIKEN_CHARGES')
f=open( 'psi4out.xyz', 'w' )
f.write( "18  " )
f.write( str(ee) + "\n" )
f.write( MOL.save_string_xyz() )
f.close()
--------------------------------------------------------------------------

    Molecular point group: c1

    Geometry (in Angstrom), charge = 0, multiplicity = 1:

       Center              X                  Y                   Z               Mass
    ------------   -----------------  -----------------  -----------------  -----------------
           H         -4.024497183779    -0.493178470936    -0.111194959399     1.007825032070
           C         -2.960391183779    -0.336773470936    -0.111164959399    12.000000000000
           C         -2.451299183779     0.953177529064    -0.111068959399    12.000000000000
           C         -2.102574183779    -1.425388470936    -0.111222959399    12.000000000000
           H         -3.117677183779     1.796567529064    -0.111023959399     1.007825032070
           C         -1.082957183779     1.153484529064    -0.111030959399    12.000000000000
           H         -2.499040183779    -2.424598470936    -0.111298959399     1.007825032070
           C         -0.732491183779    -1.227282470936    -0.111185959399    12.000000000000
           H         -0.671273183779     2.144538529064    -0.110954959399     1.007825032070
           C         -0.219117183779     0.064309529064    -0.111088959399    12.000000000000
           H         -0.064989183779    -2.066783470936    -0.111231959399     1.007825032070
           C          1.246449816221     0.334069529064    -0.111040959399    12.000000000000
           O          1.925975816221    -0.490128470936     0.672250040601    15.994914619560
           O          1.764027816221     1.198851529064    -0.745961959399    15.994914619560
           C          3.329071816221    -0.304656470936     0.732195040601    12.000000000000
           H          3.769684816221    -0.432467470936    -0.245720959399     1.007825032070
           H          3.696310816221    -1.058760470936     1.410660040601     1.007825032070
           H          3.564777816221     0.681932529064     1.103682040601     1.007825032070

  Charge       = 0
  Multiplicity = 1
  Basis Set: 6-31G*
  Basis Set:

    Orbital Energies (a.u.)
    -----------------------

    Doubly Occupied:

       1A    -20.608624     2A    -20.546546     3A    -11.378676
       4A    -11.282995     5A    -11.248429     6A    -11.245243
       7A    -11.243614     8A    -11.243045     9A    -11.238942
      10A    -11.238219    11A     -1.473434    12A     -1.364514
      13A     -1.166094    14A     -1.048647    15A     -1.025852
      16A     -0.978772    17A     -0.860731    18A     -0.836625
      19A     -0.778775    20A     -0.738604    21A     -0.684164
      22A     -0.678161    23A     -0.674397    24A     -0.630594
      25A     -0.627348    26A     -0.597690    27A     -0.588524
      28A     -0.554472    29A     -0.532496    30A     -0.516215
      31A     -0.506259    32A     -0.501157    33A     -0.458108
      34A     -0.445102    35A     -0.343649    36A     -0.342130

  @DF-RHF Final Energy:  -457.34613184575636

   => Energetics <=

    Nuclear Repulsion Energy =            492.3410954511160185
    One-Electron Energy =               -1598.9210452293593789
    Two-Electron Energy =                 649.2338179324882503
    DFT Exchange-Correlation Energy =       0.0000000000000000
    Empirical Dispersion Energy =           0.0000000000000000
    PCM Polarization Energy =               0.0000000000000000
    EFP Energy =                            0.0000000000000000
    Total Energy =                       -457.3461318457551670

  Mulliken Charges: (a.u.)
   Center  Symbol    Alpha    Beta     Spin     Total
       1     H     0.39581  0.39581  0.00000  0.20838
       2     C     3.09286  3.09286  0.00000 -0.18572
       3     C     3.10427  3.10427  0.00000 -0.20855
       4     C     3.10479  3.10479  0.00000 -0.20958
       5     H     0.39527  0.39527  0.00000  0.20945
       6     C     3.09264  3.09264  0.00000 -0.18528
       7     H     0.39589  0.39589  0.00000  0.20823
       8     C     3.09028  3.09028  0.00000 -0.18057
       9     H     0.38214  0.38214  0.00000  0.23571
      10     C     3.03846  3.03846  0.00000 -0.07692
      11     H     0.38655  0.38655  0.00000  0.22691
      12     C     2.61574  2.61574  0.00000  0.76851
      13     O     4.30350  4.30350  0.00000 -0.60700
      14     O     4.28534  4.28534  0.00000 -0.57067
      15     C     3.09361  3.09361  0.00000 -0.18723
      16     H     0.40797  0.40797  0.00000  0.18407
      17     H     0.40733  0.40733  0.00000  0.18534
      18     H     0.40754  0.40754  0.00000  0.18492

   Total alpha = 36.00000, Total beta = 36.00000, Total charge = -0.00000
