  ==> Input File <==

--------------------------------------------------------------------------
set {
	reference rhf
	basis 6-31G*
}

set_num_threads( 4 )
memory 2 gb

molecule MOL {
0 1

H	 -2.646374	 -0.642757	 1.268656
C	 -2.083525	 -0.384536	 0.393091
O	 -0.807605	 -0.127164	 0.768327
F	 -2.118945	 -1.383102	 -0.486752
F	 -2.621877	 0.670592	 -0.209486
C	 0.084052	 0.273579	 -0.209957
C	 0.616189	 1.638944	 0.205699
Cl	 -0.712276	 0.368751	 -1.789203
H	 0.917838	 -0.399893	 -0.304874
F	 1.486386	 2.081203	 -0.677083
F	 1.233425	 1.519084	 1.364185
F	 -0.341283	 2.524650	 0.335104

	symmetry c1
}
set optking {
	frozen_dihedral = ("
		9 6 3 2
	")
}

ee = optimize('scf')
oeprop('DIPOLE', 'QUADRUPOLE', 'MULLIKEN_CHARGES')
f=open( 'psi4out.xyz', 'w' )
f.write( "12  " )
f.write( str(ee) + "\n" )
f.write( MOL.save_string_xyz() )
f.close()
--------------------------------------------------------------------------

    Molecular point group: c1
  Charge       = 0
  Multiplicity = 1
  Basis Set: 6-31G*
  Basis Set:
  @DF-RHF Final Energy: -1146.28370421849172
    Total Energy =                      -1146.2837042184919483
    Molecular point group: c1
  Basis Set: 6-31G*
  Basis Set:
  Basis Set: 6-31G*
  Basis Set:
  @DF-RHF Final Energy: -1146.29736783295493
    Total Energy =                      -1146.2973678329549330
  Basis Set: 6-31G*
  Basis Set:
  Basis Set: 6-31G*
  Basis Set:
  @DF-RHF Final Energy: -1146.30187663329161
    Total Energy =                      -1146.3018766332907035
  Basis Set: 6-31G*
  Basis Set:
  Basis Set: 6-31G*
  Basis Set:
  @DF-RHF Final Energy: -1146.30350086660383
    Total Energy =                      -1146.3035008666042813
  Basis Set: 6-31G*
  Basis Set:
  Basis Set: 6-31G*
  Basis Set:
  @DF-RHF Final Energy: -1146.30369670951541
    Total Energy =                      -1146.3036967095160890
  Basis Set: 6-31G*
  Basis Set:
  Basis Set: 6-31G*
  Basis Set:
  @DF-RHF Final Energy: -1146.30372010055453
    Total Energy =                      -1146.3037201005547558
  Basis Set: 6-31G*
  Basis Set:
  Basis Set: 6-31G*
  Basis Set:
  @DF-RHF Final Energy: -1146.30372427760972
    Total Energy =                      -1146.3037242776097173
  Basis Set: 6-31G*
  Basis Set:
  Charge       = 0
  Multiplicity = 1
  Basis Set: 6-31G*
  Basis Set:

    Orbital Energies (a.u.)
    -----------------------

    Doubly Occupied:

       1A   -104.848245     2A    -26.358976     3A    -26.356947
       4A    -26.356782     5A    -26.336152     6A    -26.335466
       7A    -20.642461     8A    -11.525387     9A    -11.484511
      10A    -11.402685    11A    -10.583310    12A     -8.052693
      13A     -8.049078    14A     -8.048939    15A     -1.759779
      16A     -1.707092    17A     -1.656536    18A     -1.654654
      19A     -1.629913    20A     -1.474248    21A     -1.183040
      22A     -1.057611    23A     -0.984193    24A     -0.913526
      25A     -0.851020    26A     -0.848122    27A     -0.840842
      28A     -0.823198    29A     -0.803698    30A     -0.772873
      31A     -0.730842    32A     -0.722514    33A     -0.704198
      34A     -0.687494    35A     -0.678066    36A     -0.673062
      37A     -0.657749    38A     -0.656670    39A     -0.647246
      40A     -0.631772    41A     -0.591084    42A     -0.549446
      43A     -0.537712    44A     -0.479111    45A     -0.467790

  @DF-RHF Final Energy: -1146.30372513156453

   => Energetics <=

    Nuclear Repulsion Energy =            746.6380003604025433
    One-Electron Energy =               -3076.3699814240217165
    Two-Electron Energy =                1183.4282559320545261
    DFT Exchange-Correlation Energy =       0.0000000000000000
    Empirical Dispersion Energy =           0.0000000000000000
    PCM Polarization Energy =               0.0000000000000000
    EFP Energy =                            0.0000000000000000
    Total Energy =                      -1146.3037251315645335
    Molecular point group: c1
  Basis Set: 6-31G*
  Basis Set:

  -Total Gradient:
     Atom            X                  Y                   Z
    ------   -----------------  -----------------  -----------------
       1        0.000018322856     0.000022277139     0.000040150586
       2        0.000077464983    -0.000368096848     0.000013620923
       3       -0.000221363836     0.000492742300     0.000003163351
       4       -0.000026177217    -0.000091309581    -0.000031855828
       5        0.000040700830     0.000031513064    -0.000045875742
       6        0.000319180072     0.000089301184     0.000276857472
       7       -0.000000424328    -0.000032473236     0.000048356947
       8       -0.000021688228     0.000035008034    -0.000060692791
       9       -0.000207340918    -0.000202989666    -0.000241901593
      10        0.000050844336    -0.000005769436    -0.000013710942
      11       -0.000022675842     0.000042564932    -0.000026159898
      12       -0.000006842711    -0.000012767874     0.000038047484

  **** Optimization is complete! (in 8 steps) ****
    Final optimized geometry and variables:
    Molecular point group: c1

    Geometry (in Angstrom), charge = 0, multiplicity = 1:

    H           -2.018174108587    -1.413295518758     1.614465341103
    C           -1.600751066706    -1.141993731354     0.663662555746
    O           -0.300102055355    -0.828451244542     0.882554356314
    F           -1.717074386499    -2.160515314282    -0.180680973798
    F           -2.273827936947    -0.118788329507     0.156135796132
    C            0.626260804091    -0.408937892590    -0.066086255011
    C            1.169182643961     0.929390489063     0.425153377458
    CL           0.061262739178    -0.255956040545    -1.736557258947
    H            1.433835629439    -1.120171530102    -0.077694184980
    F            2.145644902442     1.344853213087    -0.353739290575
    F            1.656281034952     0.778794706686     1.640176138286
    F            0.236897330300     1.851234070592     0.463910252412

  Mulliken Charges: (a.u.)
   Center  Symbol    Alpha    Beta     Spin     Total
       1     H     0.40507  0.40507  0.00000  0.18985
       2     C     2.55829  2.55829  0.00000  0.88341
       3     O     4.31952  4.31952  0.00000 -0.63904
       4     F     4.68378  4.68378  0.00000 -0.36757
       5     F     4.68135  4.68135  0.00000 -0.36269
       6     C     3.02469  3.02469  0.00000 -0.04938
       7     C     2.43925  2.43925  0.00000  1.12150
       8    CL     8.49908  8.49908  0.00000  0.00184
       9     H     0.37012  0.37012  0.00000  0.25976
      10     F     4.67398  4.67398  0.00000 -0.34795
      11     F     4.67612  4.67612  0.00000 -0.35224
      12     F     4.66875  4.66875  0.00000 -0.33751

   Total alpha = 45.00000, Total beta = 45.00000, Total charge =  0.00000
