  ==> Input File <==

--------------------------------------------------------------------------
set {
	reference rhf
	basis cc-pvtz
}

set_num_threads( 4 )
memory 2 gb

molecule MOL {
0 1

H	 3.285259	 -0.477806	 -0.025692
C	 2.229369	 -0.285389	 -0.019596
C	 1.721220	 0.744432	 0.757955
C	 1.385342	 -1.064173	 -0.785514
H	 2.383513	 1.345303	 1.350505
C	 0.367301	 0.994617	 0.768629
H	 1.781236	 -1.859964	 -1.385897
C	 0.025825	 -0.811696	 -0.773756
H	 -0.044375	 1.785811	 1.362927
C	 -0.486398	 0.214248	 0.000000
H	 -0.636805	 -1.413885	 -1.367444
C	 -1.946525	 0.470130	 0.000000
O	 -2.779618	 -0.371226	 0.000000
H	 -2.227127	 1.528393	 0.000000

	symmetry c1
}
set optking {
	frozen_dihedral = ("
		8 10 12 14
	")
}

ee = optimize('scf')
oeprop('DIPOLE', 'QUADRUPOLE', 'MULLIKEN_CHARGES')
f=open( 'psi4out.xyz', 'w' )
f.write( "14  " )
f.write( str(ee) + "\n" )
f.write( MOL.save_string_xyz() )
f.close()
--------------------------------------------------------------------------

    Molecular point group: c1
  Charge       = 0
  Multiplicity = 1
  Basis Set: CC-PVTZ
  Basis Set:
  @DF-RHF Final Energy:  -343.54471473773236
    Total Energy =                       -343.5447147377320789
    Molecular point group: c1
  Basis Set: CC-PVTZ
  Basis Set:
  Basis Set: CC-PVTZ
  Basis Set:
  @DF-RHF Final Energy:  -343.54246812908360
    Total Energy =                       -343.5424681290838294
  Basis Set: CC-PVTZ
  Basis Set:
  Basis Set: CC-PVTZ
  Basis Set:
  @DF-RHF Final Energy:  -343.54542263855757
    Total Energy =                       -343.5454226385579659
  Basis Set: CC-PVTZ
  Basis Set:
  Basis Set: CC-PVTZ
  Basis Set:
  @DF-RHF Final Energy:  -343.54554684127544
    Total Energy =                       -343.5455468412750406
  Basis Set: CC-PVTZ
  Basis Set:
  Basis Set: CC-PVTZ
  Basis Set:
  @DF-RHF Final Energy:  -343.54554994726215
    Total Energy =                       -343.5455499472620318
  Basis Set: CC-PVTZ
  Basis Set:
  Charge       = 0
  Multiplicity = 1
  Basis Set: CC-PVTZ
  Basis Set:

    Orbital Energies (a.u.)
    -----------------------

    Doubly Occupied:

       1A    -20.556266     2A    -11.328743     3A    -11.250559
       4A    -11.247727     5A    -11.247412     6A    -11.245991
       7A    -11.243502     8A    -11.242008     9A     -1.411581
      10A     -1.176443    11A     -1.050976    12A     -1.035348
      13A     -0.891927    14A     -0.847347    15A     -0.795666
      16A     -0.725688    17A     -0.681890    18A     -0.657213
      19A     -0.630962    20A     -0.622096    21A     -0.605889
      22A     -0.553148    23A     -0.530795    24A     -0.511505
      25A     -0.508420    26A     -0.426236    27A     -0.354207
      28A     -0.352442

  @DF-RHF Final Energy:  -343.54555088770752

   => Energetics <=

    Nuclear Repulsion Energy =            323.7018709776424998
    One-Electron Energy =               -1107.0308709620401260
    Two-Electron Energy =                 439.7834490966903331
    DFT Exchange-Correlation Energy =       0.0000000000000000
    Empirical Dispersion Energy =           0.0000000000000000
    PCM Polarization Energy =               0.0000000000000000
    EFP Energy =                            0.0000000000000000
    Total Energy =                       -343.5455508877072361
    Molecular point group: c1
  Basis Set: CC-PVTZ
  Basis Set:

  -Total Gradient:
     Atom            X                  Y                   Z
    ------   -----------------  -----------------  -----------------
       1        0.000003649659     0.000014284895    -0.000004557994
       2       -0.000036785555    -0.000141713003    -0.000086452846
       3       -0.000138142917     0.000071358520     0.000072498642
       4        0.000171262823     0.000059817110     0.000041471344
       5        0.000008007385    -0.000005831232    -0.000011021618
       6        0.000168109257     0.000034591164     0.000039837131
       7       -0.000008416055    -0.000006322960     0.000003025880
       8        0.000619189801     0.003492739021    -0.003805194035
       9       -0.000006081992    -0.000011973472    -0.000004761329
      10       -0.001092996976    -0.004991553682     0.003583721844
      11       -0.000000966605    -0.000003099380    -0.000006157217
      12        0.000151798618     0.001290487597     0.006488279667
      13        0.000009033873     0.000024772377     0.000010223581
      14        0.000152338681     0.000172443043    -0.006320913053

  **** Optimization is complete! (in 6 steps) ****
    Final optimized geometry and variables:
    Molecular point group: c1

    Geometry (in Angstrom), charge = 0, multiplicity = 1:

    H            3.296319688117    -0.439622768051    -0.027766658412
    C            2.238667212740    -0.258549877589    -0.007192486735
    C            1.730395487208     0.764054338021     0.771445108950
    C            1.389949318788    -1.042474165393    -0.769294526726
    H            2.390027127828     1.375580895691     1.356019930190
    C            0.370489750898     1.005946270863     0.781256021995
    H            1.789698413191    -1.825175329314    -1.384579434883
    C            0.029201247063    -0.816514516931    -0.739609866766
    H           -0.025940492216     1.816043442995     1.365447471263
    C           -0.485617608904     0.199212624889     0.050684379958
    H           -0.640462094117    -1.422187023002    -1.317816369026
    C           -1.943403748310     0.493512039501     0.029091421355
    O           -2.788326595792    -0.325868014355    -0.090187587892
    H           -2.202825219529     1.557043586228     0.054320186481

  Mulliken Charges: (a.u.)
   Center  Symbol    Alpha    Beta     Spin     Total
       1     H     0.41999  0.41999  0.00000  0.16003
       2     C     3.07488  3.07488  0.00000 -0.14976
       3     C     3.06988  3.06988  0.00000 -0.13976
       4     C     3.06870  3.06870  0.00000 -0.13740
       5     H     0.42060  0.42060  0.00000  0.15880
       6     C     3.09288  3.09288  0.00000 -0.18576
       7     H     0.42008  0.42008  0.00000  0.15983
       8     C     3.08923  3.08923  0.00000 -0.17846
       9     H     0.42344  0.42344  0.00000  0.15312
      10     C     2.96307  2.96307  0.00000  0.07386
      11     H     0.41137  0.41137  0.00000  0.17726
      12     C     2.91915  2.91915  0.00000  0.16171
      13     O     4.16825  4.16825  0.00000 -0.33651
      14     H     0.45848  0.45848  0.00000  0.08304

   Total alpha = 28.00000, Total beta = 28.00000, Total charge =  0.00000
