                              Psi4 1.0.54 Driver

  ==> Input File <==

--------------------------------------------------------------------------
set {
	reference rhf
	basis cc-pvtz
}

set_num_threads( 4 )
memory 2 gb

molecule MOL {
0 1

H	 0.037734	 0.930220	 0.297898
N	 -0.000000	 0.000000	 -0.064300
H	 -0.824467	 -0.432424	 0.297898
H	 0.786740	 -0.497801	 0.297899

	symmetry c1
}
ee,wfn = energy('scf', return_wfn=True)
oeprop( wfn, 'DIPOLE', 'QUADRUPOLE', 'MULLIKEN_CHARGES')
oeprop( wfn, 'GRID_ESP')
f=open( 'psi4out.xyz', 'w' )
f.write( "4  " )
f.write( str(ee) + "\n" )
f.write( MOL.save_string_xyz() )
f.close()
--------------------------------------------------------------------------

    Molecular point group: c1

    Geometry (in Angstrom), charge = 0, multiplicity = 1:

       Center              X                  Y                   Z               Mass
    ------------   -----------------  -----------------  -----------------  -----------------
           H          0.037733585660     0.930220295957     0.297880936441     1.007825032070
           N         -0.000000414340     0.000000295957    -0.064317063559    14.003074004780
           H         -0.824467414340    -0.432423704043     0.297880936441     1.007825032070
           H          0.786739585660    -0.497800704043     0.297881936441     1.007825032070

  Charge       = 0
  Multiplicity = 1
  Basis Set: CC-PVTZ
  Basis Set:

    Orbital Energies (a.u.)
    -----------------------

    Doubly Occupied:

       1A    -15.528235     2A     -1.142637     3A     -0.630464
       4A     -0.630462     5A     -0.423957

  @DF-RHF Final Energy:   -56.21828366339863

   => Energetics <=

    Nuclear Repulsion Energy =             12.1087268521305376
    One-Electron Energy =                 -99.9425354114979569
    Two-Electron Energy =                  31.6155248959688073
    DFT Exchange-Correlation Energy =       0.0000000000000000
    Empirical Dispersion Energy =           0.0000000000000000
    PCM Polarization Energy =               0.0000000000000000
    EFP Energy =                            0.0000000000000000
    Total Energy =                        -56.2182836633986085

  Mulliken Charges: (a.u.)
   Center  Symbol    Alpha    Beta     Spin     Total
       1     H     0.41745  0.41745  0.00000  0.16510
       2     N     3.74765  3.74765  0.00000 -0.49530
       3     H     0.41745  0.41745  0.00000  0.16510
       4     H     0.41745  0.41745  0.00000  0.16510

   Total alpha =  5.00000, Total beta =  5.00000, Total charge = -0.00000

*** Psi4 exiting successfully. Buy a developer a beer!
