  ==> Input File <==

--------------------------------------------------------------------------
set {
	reference rhf
	basis 6-31G*
}

set_num_threads( 4 )
memory 2 gb

molecule MOL {
0 1

H	 1.147044	 0.506808	 -2.000100
C	 1.013217	 1.214499	 -1.173018
C	 0.692068	 0.589600	 0.160137
O	 1.123535	 2.382327	 -1.363116
C	 -0.558097	 -0.297372	 0.091132
H	 0.573661	 1.383758	 0.887992
H	 1.547608	 -0.015588	 0.457847
C	 -1.850991	 0.512573	 -0.019058
H	 -0.476753	 -0.965681	 -0.762987
H	 -0.604799	 -0.930658	 0.975228
C	 -3.096943	 -0.368295	 -0.099594
H	 -1.800724	 1.150330	 -0.898172
H	 -1.931651	 1.177355	 0.838044
H	 -3.060452	 -1.020287	 -0.967456
H	 -3.996858	 0.233488	 -0.175704
H	 -3.191959	 -0.995686	 0.782074

	symmetry c1
}
set optking {
	frozen_dihedral = ("
		6 3 5 9
	")
}

ee = optimize('scf')
oeprop('DIPOLE', 'QUADRUPOLE', 'MULLIKEN_CHARGES')
f=open( 'psi4out.xyz', 'w' )
f.write( "16  " )
f.write( str(ee) + "\n" )
f.write( MOL.save_string_xyz() )
f.close()
--------------------------------------------------------------------------

    Molecular point group: c1
  Charge       = 0
  Multiplicity = 1
  Basis Set: 6-31G*
  Basis Set:
  @DF-RHF Final Energy:  -270.01926621033192
    Total Energy =                       -270.0192662103318639
    Molecular point group: c1
  Basis Set: 6-31G*
  Basis Set:
  Basis Set: 6-31G*
  Basis Set:
  @DF-RHF Final Energy:  -270.01931225296437
    Total Energy =                       -270.0193122529640846
  Basis Set: 6-31G*
  Basis Set:
  Basis Set: 6-31G*
  Basis Set:
  @DF-RHF Final Energy:  -270.01843008229537
    Total Energy =                       -270.0184300822953674
  Basis Set: 6-31G*
  Basis Set:
  Basis Set: 6-31G*
  Basis Set:
  @DF-RHF Final Energy:  -270.01933165879637
    Total Energy =                       -270.0193316587962613
  Basis Set: 6-31G*
  Basis Set:
  Charge       = 0
  Multiplicity = 1
  Basis Set: 6-31G*
  Basis Set:

    Orbital Energies (a.u.)
    -----------------------

    Doubly Occupied:

       1A    -20.562893     2A    -11.326744     3A    -11.236258
       4A    -11.235334     5A    -11.226360     6A    -11.216950
       7A     -1.402754     8A     -1.095778     9A     -1.016693
      10A     -0.904389    11A     -0.818586    12A     -0.789613
      13A     -0.666213    14A     -0.656826    15A     -0.613188
      16A     -0.610914    17A     -0.589661    18A     -0.544388
      19A     -0.524953    20A     -0.521735    21A     -0.487822
      22A     -0.480439    23A     -0.466929    24A     -0.410332

  @DF-RHF Final Energy:  -270.01933236487537

   => Energetics <=

    Nuclear Repulsion Energy =            233.2923241155116898
    One-Electron Energy =                -827.8118092564802737
    Two-Electron Energy =                 324.5001527760934437
    DFT Exchange-Correlation Energy =       0.0000000000000000
    Empirical Dispersion Energy =           0.0000000000000000
    PCM Polarization Energy =               0.0000000000000000
    EFP Energy =                            0.0000000000000000
    Total Energy =                       -270.0193323648750834
    Molecular point group: c1
  Basis Set: 6-31G*
  Basis Set:

  -Total Gradient:
     Atom            X                  Y                   Z
    ------   -----------------  -----------------  -----------------
       1        0.000011569946    -0.000012247435     0.000015985772
       2       -0.000011380185    -0.000065591803    -0.000004558712
       3        0.000608533800    -0.000832544806     0.001165021963
       4       -0.000015949379     0.000051004144     0.000000948139
       5        0.000593040401    -0.000984028293     0.000743366314
       6       -0.000553169694     0.000862024745    -0.001024109420
       7       -0.000019141718    -0.000000914639    -0.000009074886
       8       -0.000015978373     0.000000813093    -0.000050031847
       9       -0.000603009834     0.000970100142    -0.000841797693
      10        0.000002687293     0.000002302564    -0.000041124211
      11        0.000002220616     0.000006339141     0.000033621541
      12       -0.000030104905    -0.000013694254     0.000005804588
      13        0.000035033952     0.000019810812    -0.000010304909
      14        0.000003562284     0.000004369892     0.000006983613
      15        0.000000634717     0.000002764636     0.000005086860
      16       -0.000008548925    -0.000010507942     0.000004182888

  **** Optimization is complete! (in 5 steps) ****
    Final optimized geometry and variables:
    Molecular point group: c1

    Geometry (in Angstrom), charge = 0, multiplicity = 1:

    H            1.595690032180    -0.169515764095    -1.592827752006
    C            1.477438640771     0.537555048684    -0.762334776267
    C            1.148638486361    -0.091105694430     0.568500989331
    O            1.609657827130     1.703745192077    -0.947763241393
    C           -0.108089492708    -0.971720505269     0.495919830441
    H            1.033797089420     0.705536573904     1.294341070055
    H            2.003460284112    -0.699214828182     0.859398591144
    C           -1.404887309098    -0.165418897539     0.382787547796
    H           -0.029704856175    -1.643791578018    -0.357393640820
    H           -0.149707096050    -1.600976395489     1.379861563770
    C           -2.646242974473    -1.053163073313     0.309780529661
    H           -1.365819812966     0.473795876664    -0.496207526858
    H           -1.484749432001     0.501376502053     1.237789658190
    H           -2.611567965143    -1.707477724702    -0.556692635659
    H           -3.549598833626    -0.456346260798     0.237005783864
    H           -2.733370355151    -1.679298605445     1.193239086228

  Mulliken Charges: (a.u.)
   Center  Symbol    Alpha    Beta     Spin     Total
       1     H     0.43239  0.43239  0.00000  0.13523
       2     C     2.83154  2.83154  0.00000  0.33692
       3     C     3.20811  3.20811  0.00000 -0.41622
       4     O     4.23704  4.23704  0.00000 -0.47409
       5     C     3.16612  3.16612  0.00000 -0.33224
       6     H     0.39948  0.39948  0.00000  0.20103
       7     H     0.40678  0.40678  0.00000  0.18644
       8     C     3.15422  3.15422  0.00000 -0.30844
       9     H     0.41978  0.41978  0.00000  0.16045
      10     H     0.41286  0.41286  0.00000  0.17427
      11     C     3.24038  3.24038  0.00000 -0.48075
      12     H     0.41636  0.41636  0.00000  0.16728
      13     H     0.41771  0.41771  0.00000  0.16458
      14     H     0.42089  0.42089  0.00000  0.15821
      15     H     0.41566  0.41566  0.00000  0.16868
      16     H     0.42068  0.42068  0.00000  0.15864

   Total alpha = 24.00000, Total beta = 24.00000, Total charge =  0.00000
