                              Psi4 1.0.54 Driver

  ==> Input File <==

--------------------------------------------------------------------------
set {
	reference rhf
	basis cc-pvtz
}

set_num_threads( 4 )
memory 2 gb

molecule MOL {
0 1

H	 -0.925999	 2.310268	 0.777449
C	 -0.795425	 1.301327	 0.447412
C	 -1.902502	 0.495240	 0.030571
C	 0.419707	 0.748889	 0.411360
H	 -2.892895	 0.909948	 0.047798
C	 -1.711464	 -0.763157	 -0.377495
H	 1.297086	 1.288781	 0.707776
N	 0.640204	 -0.530428	 -0.000115
H	 -2.515141	 -1.394534	 -0.695975
C	 -0.385191	 -1.362137	 -0.415631
C	 2.006991	 -1.033007	 -0.000020
O	 -0.173325	 -2.488077	 -0.775652
H	 2.182444	 -1.636914	 -0.880881
H	 2.678769	 -0.195442	 -0.002236
H	 2.183828	 -1.633244	 0.883082

	symmetry c1
}
set optking {
	frozen_dihedral = ("
		10 8 11 13
	")
}

ee,wfn = optimize('scf', return_wfn=True)
oeprop( wfn, 'DIPOLE', 'QUADRUPOLE', 'MULLIKEN_CHARGES')
f=open( 'psi4out.xyz', 'w' )
f.write( "15  " )
f.write( str(ee) + "\n" )
f.write( MOL.save_string_xyz() )
f.close()
--------------------------------------------------------------------------

    Molecular point group: c1
  Charge       = 0
  Multiplicity = 1
  Basis Set: CC-PVTZ
  Basis Set:
  @DF-RHF Final Energy:  -360.72281057620205
    Total Energy =                       -360.7228105762022210
    Molecular point group: c1
  Basis Set: CC-PVTZ
  Basis Set:
  Basis Set: CC-PVTZ
  Basis Set:
  @DF-RHF Final Energy:  -360.72324858685602
    Total Energy =                       -360.7232485868561866
  Basis Set: CC-PVTZ
  Basis Set:
  Basis Set: CC-PVTZ
  Basis Set:
  @DF-RHF Final Energy:  -360.72328721617214
    Total Energy =                       -360.7232872161724231
  Basis Set: CC-PVTZ
  Basis Set:
  Basis Set: CC-PVTZ
  Basis Set:
  @DF-RHF Final Energy:  -360.72329655271977
    Total Energy =                       -360.7232965527196598
  Basis Set: CC-PVTZ
  Basis Set:
  Basis Set: CC-PVTZ
  Basis Set:
  @DF-RHF Final Energy:  -360.72330170807373
    Total Energy =                       -360.7233017080737909
  Basis Set: CC-PVTZ
  Basis Set:
  Charge       = 0
  Multiplicity = 1
  Basis Set: CC-PVTZ
  Basis Set:

    Orbital Energies (a.u.)
    -----------------------

    Doubly Occupied:

       1A    -20.501968     2A    -15.617598     3A    -11.338034
       4A    -11.294326     5A    -11.265463     6A    -11.258157
       7A    -11.229700     8A    -11.227869     9A     -1.391178
      10A     -1.285908    11A     -1.118820    12A     -1.029229
      13A     -0.972584    14A     -0.876421    15A     -0.838940
      16A     -0.719556    17A     -0.702271    18A     -0.663923
      19A     -0.653024    20A     -0.626075    21A     -0.611940
      22A     -0.575548    23A     -0.553259    24A     -0.550875
      25A     -0.530964    26A     -0.484422    27A     -0.420609
      28A     -0.410484    29A     -0.310201

  @DF-RHF Final Energy:  -360.72330218069186

   => Energetics <=

    Nuclear Repulsion Energy =            358.7883489193778246
    One-Electron Energy =               -1200.9046117563302687
    Two-Electron Energy =                 481.3929606562601862
    DFT Exchange-Correlation Energy =       0.0000000000000000
    Empirical Dispersion Energy =           0.0000000000000000
    PCM Polarization Energy =               0.0000000000000000
    EFP Energy =                            0.0000000000000000
    Total Energy =                       -360.7233021806923148
    Molecular point group: c1
  Basis Set: CC-PVTZ
  Basis Set:

  -Total Gradient:
     Atom            X                  Y                   Z
    ------   -----------------  -----------------  -----------------
       1       -0.000003928873    -0.000000263707     0.000007365287
       2        0.000055434585    -0.000014513746     0.000010783574
       3       -0.000025556864    -0.000037139498    -0.000016974453
       4       -0.000033994554     0.000076427122    -0.000017757883
       5        0.000005007479     0.000008236417     0.000003072280
       6       -0.000037276097     0.000022146731     0.000015655353
       7        0.000006076917    -0.000008523038     0.000008608802
       8       -0.000205911228    -0.000600423762     0.001094133200
       9        0.000009168387    -0.000004734118    -0.000006715533
      10        0.000156959369     0.000305139280    -0.000688885761
      11        0.000365017777     0.001045888531    -0.000864846673
      12       -0.000011973625    -0.000037947606    -0.000007562594
      13       -0.000272967100    -0.000744572371     0.000451164200
      14       -0.000018182122    -0.000002848403     0.000003575802
      15        0.000012125951    -0.000006871837     0.000008384394

  **** Optimization is complete! (in 6 steps) ****
    Final optimized geometry and variables:
    Molecular point group: c1

    Geometry (in Angstrom), charge = 0, multiplicity = 1:

    H           -0.850696304437     2.784672495634     0.879332899557
    C           -0.680170210126     1.782940072856     0.545648199754
    C           -1.752817019711     0.939416898950     0.116272568545
    C            0.557656957423     1.279641964180     0.511894087694
    H           -2.757553350395     1.318356263711     0.127619555654
    C           -1.514038813072    -0.309899794964    -0.297453100745
    H            1.410092323566     1.853536715180     0.814511624873
    N            0.825503567860     0.013873802223     0.092246231514
    H           -2.291889381177    -0.968921697804    -0.624233365640
    C           -0.167314771943    -0.857284291896    -0.318109735442
    C            2.193851523052    -0.480885856577     0.087310452639
    O            0.103219855543    -1.977520502974    -0.656523816092
    H            2.352862739052    -1.084323759067    -0.789889038591
    H            2.873754165782     0.357412760598     0.086724844531
    H            2.382431205752    -1.096644060282     0.957139652975

  Mulliken Charges: (a.u.)
   Center  Symbol    Alpha    Beta     Spin     Total
       1     H     0.41392  0.41392  0.00000  0.17215
       2     C     3.10592  3.10592  0.00000 -0.21185
       3     C     3.06013  3.06013  0.00000 -0.12026
       4     C     3.03643  3.03643  0.00000 -0.07287
       5     H     0.41843  0.41843  0.00000  0.16314
       6     C     3.11837  3.11837  0.00000 -0.23673
       7     H     0.42036  0.42036  0.00000  0.15927
       8     N     3.50938  3.50938  0.00000 -0.01875
       9     H     0.40921  0.40921  0.00000  0.18158
      10     C     2.84533  2.84533  0.00000  0.30935
      11     C     3.09497  3.09497  0.00000 -0.18993
      12     O     4.23600  4.23600  0.00000 -0.47200
      13     H     0.43144  0.43144  0.00000  0.13711
      14     H     0.45510  0.45510  0.00000  0.08981
      15     H     0.44501  0.44501  0.00000  0.10998

   Total alpha = 29.00000, Total beta = 29.00000, Total charge = -0.00000

*** Psi4 exiting successfully. Buy a developer a beer!
