  ==> Input File <==

--------------------------------------------------------------------------
set {
	reference rhf
	basis 6-31G*
}

set_num_threads( 4 )
memory 2 gb

molecule MOL {
0 1

H	 -2.499100	 -0.730091	 -0.745082
O	 -2.347518	 -0.290803	 0.079804
C	 -1.184022	 0.487508	 -0.006784
C	 0.062599	 -0.378592	 0.031606
H	 -1.176523	 1.099369	 -0.904519
H	 -1.187323	 1.153111	 0.844927
O	 -0.322392	 -1.697189	 -0.198315
H	 0.553256	 -0.286077	 1.002522
H	 0.767959	 -0.037285	 -0.723749
C	 0.729363	 -2.609470	 -0.224699
H	 1.262408	 -2.629696	 0.724029
H	 0.308640	 -3.587819	 -0.411054
H	 1.439534	 -2.374102	 -1.014667

	symmetry c1
}
set optking {
	frozen_dihedral = ("
		8 4 3 5
	")
}

ee = optimize('scf')
oeprop('DIPOLE', 'QUADRUPOLE', 'MULLIKEN_CHARGES')
f=open( 'psi4out.xyz', 'w' )
f.write( "13  " )
f.write( str(ee) + "\n" )
f.write( MOL.save_string_xyz() )
f.close()
--------------------------------------------------------------------------

    Molecular point group: c1
  Charge       = 0
  Multiplicity = 1
  Basis Set: 6-31G*
  Basis Set:
  @DF-RHF Final Energy:  -267.93965795785101
    Total Energy =                       -267.9396579578510682
    Molecular point group: c1
  Basis Set: 6-31G*
  Basis Set:
  Basis Set: 6-31G*
  Basis Set:
  @DF-RHF Final Energy:  -267.94210024279471
    Total Energy =                       -267.9421002427944813
  Basis Set: 6-31G*
  Basis Set:
  Basis Set: 6-31G*
  Basis Set:
  @DF-RHF Final Energy:  -267.94467543248197
    Total Energy =                       -267.9446754324820859
  Basis Set: 6-31G*
  Basis Set:
  Basis Set: 6-31G*
  Basis Set:
  @DF-RHF Final Energy:  -267.94541219976554
    Total Energy =                       -267.9454121997654283
  Basis Set: 6-31G*
  Basis Set:
  Basis Set: 6-31G*
  Basis Set:
  @DF-RHF Final Energy:  -267.94552251037101
    Total Energy =                       -267.9455225103711200
  Basis Set: 6-31G*
  Basis Set:
  Basis Set: 6-31G*
  Basis Set:
  @DF-RHF Final Energy:  -267.94553482214599
    Total Energy =                       -267.9455348221459303
  Basis Set: 6-31G*
  Basis Set:
  Charge       = 0
  Multiplicity = 1
  Basis Set: 6-31G*
  Basis Set:

    Orbital Energies (a.u.)
    -----------------------

    Doubly Occupied:

       1A    -20.575094     2A    -20.541782     3A    -11.279467
       4A    -11.278573     5A    -11.268312     6A     -1.402179
       7A     -1.349162     8A     -1.017158     9A     -0.927982
      10A     -0.836266    11A     -0.700418    12A     -0.685767
      13A     -0.671352    14A     -0.630462    15A     -0.598094
      16A     -0.569384    17A     -0.547473    18A     -0.497302
      19A     -0.475478    20A     -0.444120    21A     -0.413990

  @DF-RHF Final Energy:  -267.94553549168370

   => Energetics <=

    Nuclear Repulsion Energy =            195.0374112718418473
    One-Electron Energy =                -752.5462642019189161
    Two-Electron Energy =                 289.5633174383934829
    DFT Exchange-Correlation Energy =       0.0000000000000000
    Empirical Dispersion Energy =           0.0000000000000000
    PCM Polarization Energy =               0.0000000000000000
    EFP Energy =                            0.0000000000000000
    Total Energy =                       -267.9455354916835859
    Molecular point group: c1
  Basis Set: 6-31G*
  Basis Set:

  -Total Gradient:
     Atom            X                  Y                   Z
    ------   -----------------  -----------------  -----------------
       1       -0.000022049079    -0.000011741076     0.000006450704
       2        0.000023057604    -0.000017165031    -0.000010798718
       3       -0.002940432041    -0.004497815105    -0.004954145367
       4       -0.004220279444    -0.005336154906     0.003485121920
       5        0.003192216025     0.004724503318     0.003552662746
       6        0.000014910042    -0.000011953617    -0.000001607267
       7        0.000018721790     0.000090082436     0.000001689397
       8        0.003957254551     0.005105707240    -0.002066910972
       9       -0.000028270789    -0.000012895636    -0.000005380821
      10       -0.000009700442    -0.000032474500    -0.000012827428
      11        0.000001685371     0.000007832436    -0.000006751222
      12        0.000015612158    -0.000009435320     0.000001177132
      13       -0.000002725744     0.000001509758     0.000011319893

  **** Optimization is complete! (in 7 steps) ****
    Final optimized geometry and variables:
    Molecular point group: c1

    Geometry (in Angstrom), charge = 0, multiplicity = 1:

    H           -1.622118551643    -0.142831477986    -0.265519675803
    O           -1.754783260320     0.717869680723     0.109552773786
    C           -0.548934863351     1.410562279124     0.056847128649
    C            0.688108116267     0.494367913384     0.158651163120
    H           -0.474056827121     2.031050992858    -0.833431805161
    H           -0.542125010825     2.099818629448     0.893475731493
    O            0.320227399810    -0.810087591296    -0.167753444574
    H            1.140097636218     0.548650035281     1.147105824685
    H            1.451218223023     0.844132239014    -0.535992227199
    C            1.364980988027    -1.733119737725    -0.138348563696
    H            1.807798537466    -1.793295414259     0.852800704619
    H            0.954735518908    -2.698078712713    -0.400698543450
    H            2.142186151064    -1.471598781130    -0.852661723747

  Mulliken Charges: (a.u.)
   Center  Symbol    Alpha    Beta     Spin     Total
       1     H     0.26558  0.26558  0.00000  0.46884
       2     O     4.37569  4.37569  0.00000 -0.75137
       3     C     2.99460  2.99460  0.00000  0.01079
       4     C     3.00724  3.00724  0.00000 -0.01449
       5     H     0.42801  0.42801  0.00000  0.14399
       6     H     0.41959  0.41959  0.00000  0.16083
       7     O     4.31640  4.31640  0.00000 -0.63280
       8     H     0.42457  0.42457  0.00000  0.15086
       9     H     0.42793  0.42793  0.00000  0.14414
      10     C     3.08044  3.08044  0.00000 -0.16088
      11     H     0.42472  0.42472  0.00000  0.15055
      12     H     0.40919  0.40919  0.00000  0.18163
      13     H     0.42605  0.42605  0.00000  0.14791

   Total alpha = 21.00000, Total beta = 21.00000, Total charge =  0.00000
