                              Psi4 1.0.54 Driver

  ==> Input File <==

--------------------------------------------------------------------------
set {
	reference rhf
	basis cc-pvtz
}

set_num_threads( 4 )
memory 2 gb

molecule MOL {
0 1

H	 1.992696	 1.485045	 -2.403776
O	 1.185656	 1.524429	 -1.925039
C	 1.347408	 0.944224	 -0.656491
C	 0.027642	 1.012027	 0.090274
H	 2.103945	 1.480373	 -0.089073
H	 1.681388	 -0.085400	 -0.750261
C	 -1.138737	 0.285728	 -0.581921
H	 -0.233258	 2.057944	 0.214757
H	 0.186557	 0.606876	 1.086674
C	 -1.933983	 -0.631436	 0.343653
H	 -0.763151	 -0.285569	 -1.422081
H	 -1.808359	 1.035291	 -0.992333
H	 -2.789188	 -1.049673	 -0.174718
H	 -1.335629	 -1.461368	 0.700418
H	 -2.305435	 -0.092167	 1.209725

	symmetry c1
}
set optking {
	frozen_dihedral = ("
		8 4 7 11
	")
}

ee,wfn = optimize('scf', return_wfn=True)
oeprop( wfn, 'DIPOLE', 'QUADRUPOLE', 'MULLIKEN_CHARGES')
f=open( 'psi4out.xyz', 'w' )
f.write( "15  " )
f.write( str(ee) + "\n" )
f.write( MOL.save_string_xyz() )
f.close()
--------------------------------------------------------------------------

    Molecular point group: c1
  Charge       = 0
  Multiplicity = 1
  Basis Set: CC-PVTZ
  Basis Set:
  @DF-RHF Final Energy:  -232.23370748677570
    Total Energy =                       -232.2337074867756428
    Molecular point group: c1
  Basis Set: CC-PVTZ
  Basis Set:
  Basis Set: CC-PVTZ
  Basis Set:
  @DF-RHF Final Energy:  -232.23421292910359
    Total Energy =                       -232.2342129291035917
  Basis Set: CC-PVTZ
  Basis Set:
  Basis Set: CC-PVTZ
  Basis Set:
  @DF-RHF Final Energy:  -232.23428813197688
    Total Energy =                       -232.2342881319767685
  Basis Set: CC-PVTZ
  Basis Set:
  Basis Set: CC-PVTZ
  Basis Set:
  @DF-RHF Final Energy:  -232.23428996499550
    Total Energy =                       -232.2342899649953551
  Basis Set: CC-PVTZ
  Basis Set:
  Charge       = 0
  Multiplicity = 1
  Basis Set: CC-PVTZ
  Basis Set:

    Orbital Energies (a.u.)
    -----------------------

    Doubly Occupied:

       1A    -20.546277     2A    -11.265987     3A    -11.210373
       4A    -11.207859     5A    -11.204402     6A     -1.364302
       7A     -1.064086     8A     -0.975365     9A     -0.858323
      10A     -0.787225    11A     -0.706194    12A     -0.648651
      13A     -0.602808    14A     -0.587931    15A     -0.554798
      16A     -0.538404    17A     -0.504373    18A     -0.476764
      19A     -0.470531    20A     -0.452972    21A     -0.432796

  @DF-RHF Final Energy:  -232.23429092026427

   => Energetics <=

    Nuclear Repulsion Energy =            188.8989649796862693
    One-Electron Energy =                -689.3456673391990535
    Two-Electron Energy =                 268.2124114392486831
    DFT Exchange-Correlation Energy =       0.0000000000000000
    Empirical Dispersion Energy =           0.0000000000000000
    PCM Polarization Energy =               0.0000000000000000
    EFP Energy =                            0.0000000000000000
    Total Energy =                       -232.2342909202640726
    Molecular point group: c1
  Basis Set: CC-PVTZ
  Basis Set:

  -Total Gradient:
     Atom            X                  Y                   Z
    ------   -----------------  -----------------  -----------------
       1       -0.000006811180     0.000004766545     0.000015399919
       2       -0.000031671032     0.000040875084    -0.000033728946
       3        0.000067576990    -0.000046657959    -0.000004922873
       4       -0.001255814777    -0.000148286150     0.002275732101
       5       -0.000009724328    -0.000006624584    -0.000001584830
       6       -0.000004702635    -0.000006394262     0.000039538099
       7        0.000645648511    -0.002161755221     0.001279996885
       8        0.000931815721     0.000474189347    -0.002113944500
       9       -0.000003387028     0.000001559436    -0.000021198933
      10       -0.000011845952    -0.000032684286    -0.000015999993
      11       -0.000332373620     0.001845294250    -0.001419433646
      12        0.000003142119     0.000011359471     0.000004501437
      13        0.000007127763    -0.000001403448     0.000010166991
      14       -0.000000634593     0.000012382413    -0.000005606572
      15        0.000001654042     0.000013379365    -0.000008915140

  **** Optimization is complete! (in 5 steps) ****
    Final optimized geometry and variables:
    Molecular point group: c1

    Geometry (in Angstrom), charge = 0, multiplicity = 1:

    H            2.014172537481     0.854165937561    -1.844919061635
    O            1.230703376056     0.926483598294    -1.332190880096
    C            1.401934554966     0.290011002206    -0.092621729491
    C            0.097794053367     0.363831867148     0.677380937460
    H            2.191803024159     0.774949289880     0.475797147005
    H            1.688736489593    -0.750185064628    -0.235770892806
    C           -1.067539744165    -0.374094421288    -0.008392120327
    H           -0.145114707062     1.413090557866     0.802927986061
    H            0.273598276052    -0.045738622097     1.667307061004
    C           -1.855849404215    -1.273728097097     0.937530786729
    H           -0.690184221110    -0.953440349129    -0.843668408851
    H           -1.740144570243     0.351305164066    -0.450979912829
    H           -2.679061794168    -1.758175957903     0.424716774388
    H           -1.224472035883    -2.049987250906     1.358032824488
    H           -2.270206522176    -0.704805346122     1.763669862672

  Mulliken Charges: (a.u.)
   Center  Symbol    Alpha    Beta     Spin     Total
       1     H     0.39571  0.39571  0.00000  0.20859
       2     O     4.19976  4.19976  0.00000 -0.39953
       3     C     2.97285  2.97285  0.00000  0.05430
       4     C     3.09165  3.09165  0.00000 -0.18330
       5     H     0.46562  0.46562  0.00000  0.06876
       6     H     0.47411  0.47411  0.00000  0.05179
       7     C     3.08335  3.08335  0.00000 -0.16670
       8     H     0.45005  0.45005  0.00000  0.09989
       9     H     0.45491  0.45491  0.00000  0.09018
      10     C     3.14853  3.14853  0.00000 -0.29706
      11     H     0.45161  0.45161  0.00000  0.09677
      12     H     0.44931  0.44931  0.00000  0.10137
      13     H     0.44962  0.44962  0.00000  0.10075
      14     H     0.45778  0.45778  0.00000  0.08443
      15     H     0.45513  0.45513  0.00000  0.08973

   Total alpha = 21.00000, Total beta = 21.00000, Total charge = -0.00000

*** Psi4 exiting successfully. Buy a developer a beer!
