  ==> Input File <==

--------------------------------------------------------------------------
set {
	reference rhf
	basis 6-31G*
}

set_num_threads( 4 )
memory 2 gb

molecule MOL {
0 1

H	 -3.042581	 -0.665861	 0.004336
O	 -2.245037	 -1.176175	 0.000806
C	 -1.162163	 -0.365336	 0.001020
C	 -0.216971	 -0.388175	 1.010683
C	 -1.027475	 0.513194	 -1.067098
H	 -0.321454	 -1.066670	 1.840563
C	 0.865370	 0.477577	 0.940518
H	 -1.781661	 0.505799	 -1.832778
C	 0.052884	 1.375213	 -1.136811
H	 1.601030	 0.464151	 1.725160
C	 1.005108	 1.352661	 -0.117629
C	 0.213085	 2.314137	 -2.309781
H	 1.848456	 2.019430	 -0.156509
H	 0.519620	 3.301530	 -1.981327
H	 -0.712174	 2.416127	 -2.864178
H	 0.971952	 1.947646	 -2.995456

	symmetry c1
}
set optking {
	frozen_dihedral = ("
		5 3 2 1
	")
}

ee = optimize('scf')
oeprop('DIPOLE', 'QUADRUPOLE', 'MULLIKEN_CHARGES')
f=open( 'psi4out.xyz', 'w' )
f.write( "16  " )
f.write( str(ee) + "\n" )
f.write( MOL.save_string_xyz() )
f.close()
--------------------------------------------------------------------------

    Molecular point group: c1
  Charge       = 0
  Multiplicity = 1
  Basis Set: 6-31G*
  Basis Set:
  @DF-RHF Final Energy:  -344.59028535466996
    Total Energy =                       -344.5902853546697884
    Molecular point group: c1
  Basis Set: 6-31G*
  Basis Set:
  Basis Set: 6-31G*
  Basis Set:
  @DF-RHF Final Energy:  -344.59161381447899
    Total Energy =                       -344.5916138144790466
  Basis Set: 6-31G*
  Basis Set:
  Basis Set: 6-31G*
  Basis Set:
  @DF-RHF Final Energy:  -344.59170169714162
    Total Energy =                       -344.5917016971413886
  Basis Set: 6-31G*
  Basis Set:
  Basis Set: 6-31G*
  Basis Set:
  @DF-RHF Final Energy:  -344.59171089802635
    Total Energy =                       -344.5917108980264061
  Basis Set: 6-31G*
  Basis Set:
  Basis Set: 6-31G*
  Basis Set:
  @DF-RHF Final Energy:  -344.59171278886942
    Total Energy =                       -344.5917127888691880
  Basis Set: 6-31G*
  Basis Set:
  Charge       = 0
  Multiplicity = 1
  Basis Set: 6-31G*
  Basis Set:

    Orbital Energies (a.u.)
    -----------------------

    Doubly Occupied:

       1A    -20.578177     2A    -11.288830     3A    -11.242261
       4A    -11.232397     5A    -11.222835     6A    -11.222037
       7A    -11.220360     8A    -11.219383     9A     -1.393853
      10A     -1.149978    11A     -1.043543    12A     -1.003094
      13A     -0.937251    14A     -0.832428    15A     -0.801223
      16A     -0.720977    17A     -0.677321    18A     -0.650396
      19A     -0.614246    20A     -0.590431    21A     -0.576603
      22A     -0.567247    23A     -0.552807    24A     -0.518005
      25A     -0.502144    26A     -0.480460    27A     -0.463946
      28A     -0.329440    29A     -0.314316

  @DF-RHF Final Energy:  -344.59171315448970

   => Energetics <=

    Nuclear Repulsion Energy =            345.1212222276495254
    One-Electron Energy =               -1151.5338894455242098
    Two-Electron Energy =                 461.8209540633848746
    DFT Exchange-Correlation Energy =       0.0000000000000000
    Empirical Dispersion Energy =           0.0000000000000000
    PCM Polarization Energy =               0.0000000000000000
    EFP Energy =                            0.0000000000000000
    Total Energy =                       -344.5917131544898666
    Molecular point group: c1
  Basis Set: 6-31G*
  Basis Set:

  -Total Gradient:
     Atom            X                  Y                   Z
    ------   -----------------  -----------------  -----------------
       1        0.000039949964     0.000087190283     0.002159246761
       2        0.000350248106    -0.000711171341    -0.003085362255
       3       -0.001251486226     0.001706923750     0.001748093962
       4        0.000013855302     0.000009758824    -0.000001416537
       5        0.000838388272    -0.001084442573    -0.000814710219
       6       -0.000010447823    -0.000005450752    -0.000007299888
       7       -0.000006630130     0.000005476374    -0.000008204096
       8        0.000016628348    -0.000002539432     0.000010848817
       9       -0.000001584960     0.000001961062    -0.000012342880
      10       -0.000001589962     0.000002242915     0.000000948510
      11        0.000011113616    -0.000017714064     0.000009085153
      12        0.000009518627    -0.000000056514     0.000007746741
      13       -0.000003950620     0.000002071707    -0.000010100989
      14       -0.000007664926     0.000005049082     0.000005266264
      15       -0.000002093079    -0.000002063109    -0.000010338215
      16        0.000005745498     0.000002763790     0.000008538871

  **** Optimization is complete! (in 6 steps) ****
    Final optimized geometry and variables:
    Molecular point group: c1

    Geometry (in Angstrom), charge = 0, multiplicity = 1:

    H           -2.678045816263    -1.238502000787     0.396681352151
    O           -1.856647993333    -1.710598129545     0.404133464655
    C           -0.806869311185    -0.836743422272     0.353123760781
    C            0.139917021574    -0.875227293114     1.358872185680
    C           -0.660380765780     0.031467294455    -0.718995429619
    H            0.013133626120    -1.561391405244     2.175371510870
    C            1.231906442733    -0.024630947661     1.286518221277
    H           -1.399881682093     0.023000122529    -1.501190427029
    C            0.425711468579     0.891856116258    -0.789830404153
    H            1.972595713322    -0.045685172641     2.066189406796
    C            1.373588214979     0.855386615460     0.228747953664
    C            0.597047172888     1.826921747807    -1.964713798394
    H            2.223758965562     1.514045521045     0.190556578737
    H            0.912633820394     2.812244994683    -1.638389610904
    H           -0.326696602032     1.938000115087    -2.520591385355
    H            1.352189807803     1.452500156111    -2.650134652464

  Mulliken Charges: (a.u.)
   Center  Symbol    Alpha    Beta     Spin     Total
       1     H     0.27232  0.27232  0.00000  0.45535
       2     O     4.38618  4.38618  0.00000 -0.77236
       3     C     2.80736  2.80736  0.00000  0.38529
       4     C     3.12314  3.12314  0.00000 -0.24628
       5     C     3.14388  3.14388  0.00000 -0.28776
       6     H     0.39345  0.39345  0.00000  0.21310
       7     C     3.09208  3.09208  0.00000 -0.18416
       8     H     0.40117  0.40117  0.00000  0.19765
       9     C     2.97274  2.97274  0.00000  0.05451
      10     H     0.39852  0.39852  0.00000  0.20296
      11     C     3.11902  3.11902  0.00000 -0.23803
      12     C     3.25405  3.25405  0.00000 -0.50809
      13     H     0.40269  0.40269  0.00000  0.19463
      14     H     0.41173  0.41173  0.00000  0.17654
      15     H     0.41342  0.41342  0.00000  0.17316
      16     H     0.40825  0.40825  0.00000  0.18350

   Total alpha = 29.00000, Total beta = 29.00000, Total charge =  0.00000
