                              Psi4 1.0.54 Driver

  ==> Input File <==

--------------------------------------------------------------------------
set {
	reference rhf
	basis cc-pvtz
}

set_num_threads( 4 )
memory 2 gb

molecule MOL {
0 1

H	 1.109378	 -0.546771	 -0.402011
C	 0.848385	 0.440008	 0.000011
C	 -0.623497	 0.751021	 0.000090
O	 1.696016	 1.165549	 0.390339
C	 -1.523725	 -0.474323	 -0.000013
H	 -0.813143	 1.382932	 -0.864897
H	 -0.813071	 1.382716	 0.865253
H	 -1.342980	 -1.087348	 -0.873016
H	 -2.565269	 -0.177464	 0.000070
H	 -1.342898	 -1.087564	 0.872820

	symmetry c1
}
set optking {
	frozen_dihedral = ("
		4 2 3 6
	")
}

ee,wfn = optimize('scf', return_wfn=True)
oeprop( wfn, 'DIPOLE', 'QUADRUPOLE', 'MULLIKEN_CHARGES')
f=open( 'psi4out.xyz', 'w' )
f.write( "10  " )
f.write( str(ee) + "\n" )
f.write( MOL.save_string_xyz() )
f.close()
--------------------------------------------------------------------------

    Molecular point group: c1
  Charge       = 0
  Multiplicity = 1
  Basis Set: CC-PVTZ
  Basis Set:
  @DF-RHF Final Energy:  -192.02219294644539
    Total Energy =                       -192.0221929464453865
    Molecular point group: c1
  Basis Set: CC-PVTZ
  Basis Set:
  Basis Set: CC-PVTZ
  Basis Set:
  @DF-RHF Final Energy:  -192.02164434737551
    Total Energy =                       -192.0216443473756271
  Basis Set: CC-PVTZ
  Basis Set:
  Basis Set: CC-PVTZ
  Basis Set:
  @DF-RHF Final Energy:  -192.02226604494513
    Total Energy =                       -192.0222660449450416
  Basis Set: CC-PVTZ
  Basis Set:
  Basis Set: CC-PVTZ
  Basis Set:
  @DF-RHF Final Energy:  -192.02246755052522
    Total Energy =                       -192.0224675505252492
  Basis Set: CC-PVTZ
  Basis Set:
  Charge       = 0
  Multiplicity = 1
  Basis Set: CC-PVTZ
  Basis Set:

    Orbital Energies (a.u.)
    -----------------------

    Doubly Occupied:

       1A    -20.552875     2A    -11.323586     3A    -11.238333
       4A    -11.230752     5A     -1.408647     6A     -1.067885
       7A     -0.903536     8A     -0.798156     9A     -0.666374
      10A     -0.643782    11A     -0.633289    12A     -0.557775
      13A     -0.546776    14A     -0.524764    15A     -0.493499
      16A     -0.415096

  @DF-RHF Final Energy:  -192.02246849643120

   => Energetics <=

    Nuclear Repulsion Energy =            117.1845799092742624
    One-Electron Energy =                -492.4038464773575470
    Two-Electron Energy =                 183.1967980716521822
    DFT Exchange-Correlation Energy =       0.0000000000000000
    Empirical Dispersion Energy =           0.0000000000000000
    PCM Polarization Energy =               0.0000000000000000
    EFP Energy =                            0.0000000000000000
    Total Energy =                       -192.0224684964311166
    Molecular point group: c1
  Basis Set: CC-PVTZ
  Basis Set:

  -Total Gradient:
     Atom            X                  Y                   Z
    ------   -----------------  -----------------  -----------------
       1       -0.000031063444    -0.000026352966    -0.000010469566
       2       -0.000039779012    -0.000305270019     0.001581393671
       3       -0.000163030088    -0.000919380120    -0.001078162594
       4        0.000025328400     0.000364630539    -0.001023379360
       5       -0.000003351702     0.000003332230     0.000003072032
       6        0.000221308697     0.000865422438     0.000530056664
       7       -0.000017209344     0.000006869274    -0.000008632437
       8        0.000002569819     0.000006492092     0.000006950860
       9        0.000002938266     0.000003407183     0.000000338506
      10        0.000002288412     0.000000849351    -0.000001167777

  **** Optimization is complete! (in 5 steps) ****
    Final optimized geometry and variables:
    Molecular point group: c1

    Geometry (in Angstrom), charge = 0, multiplicity = 1:

    H            0.992526118635    -1.042689541807    -0.509321963844
    C            0.748430019731    -0.051423828466    -0.104814482576
    C           -0.718102694035     0.304339685507    -0.079472879717
    O            1.612173786877     0.671669878233     0.251729828343
    C           -1.639336634049    -0.909638891278    -0.074909526604
    H           -0.900381119867     0.918447311252    -0.957626190130
    H           -0.888815382813     0.941194036784     0.779263662767
    H           -1.474740337478    -1.532993435586    -0.946806042466
    H           -2.677103856125    -0.602880287600    -0.080370714330
    H           -1.479655160753    -1.521477808121     0.805939147812

  Mulliken Charges: (a.u.)
   Center  Symbol    Alpha    Beta     Spin     Total
       1     H     0.46494  0.46494  0.00000  0.07013
       2     C     2.90372  2.90372  0.00000  0.19256
       3     C     3.08221  3.08221  0.00000 -0.16441
       4     O     4.16451  4.16451  0.00000 -0.32902
       5     C     3.15323  3.15323  0.00000 -0.30646
       6     H     0.44449  0.44449  0.00000  0.11103
       7     H     0.43947  0.43947  0.00000  0.12106
       8     H     0.45347  0.45347  0.00000  0.09307
       9     H     0.44412  0.44412  0.00000  0.11176
      10     H     0.44985  0.44985  0.00000  0.10030

   Total alpha = 16.00000, Total beta = 16.00000, Total charge = -0.00000

*** Psi4 exiting successfully. Buy a developer a beer!
