                              Psi4 1.0.54 Driver

  ==> Input File <==

--------------------------------------------------------------------------
set {
	reference rhf
	basis cc-pvtz
}

set_num_threads( 4 )
memory 2 gb

molecule MOL {
0 1

H	 1.855701	 2.343646	 0.645127
N	 1.009494	 1.821664	 0.561116
C	 1.263552	 0.494993	 0.021953
H	 0.402080	 2.339827	 -0.038794
C	 -0.016533	 -0.325589	 -0.026925
H	 1.978418	 0.003807	 0.673640
H	 1.711970	 0.519620	 -0.972179
C	 -1.280353	 0.525521	 0.047747
H	 -0.016686	 -0.912532	 -0.939714
H	 -0.014099	 -1.037598	 0.796369
C	 -2.560681	 -0.301323	 -0.007747
H	 -1.279957	 1.241025	 -0.770189
H	 -1.270445	 1.110526	 0.963468
H	 -2.617064	 -0.872870	 -0.928010
H	 -3.439525	 0.331102	 0.043462
H	 -2.609427	 -1.002736	 0.818585

	symmetry c1
}
set optking {
	frozen_dihedral = ("
		6 3 5 9
	")
}

ee,wfn = optimize('scf', return_wfn=True)
oeprop( wfn, 'DIPOLE', 'QUADRUPOLE', 'MULLIKEN_CHARGES')
f=open( 'psi4out.xyz', 'w' )
f.write( "16  " )
f.write( str(ee) + "\n" )
f.write( MOL.save_string_xyz() )
f.close()
--------------------------------------------------------------------------

    Molecular point group: c1
  Charge       = 0
  Multiplicity = 1
  Basis Set: CC-PVTZ
  Basis Set:
  @DF-RHF Final Energy:  -212.38968608120967
    Total Energy =                       -212.3896860812095042
    Molecular point group: c1
  Basis Set: CC-PVTZ
  Basis Set:
  Basis Set: CC-PVTZ
  Basis Set:
  @DF-RHF Final Energy:  -212.39002632682568
    Total Energy =                       -212.3900263268257049
  Basis Set: CC-PVTZ
  Basis Set:
  Basis Set: CC-PVTZ
  Basis Set:
  @DF-RHF Final Energy:  -212.39224971434817
    Total Energy =                       -212.3922497143483952
  Basis Set: CC-PVTZ
  Basis Set:
  Basis Set: CC-PVTZ
  Basis Set:
  @DF-RHF Final Energy:  -212.39244191896097
    Total Energy =                       -212.3924419189610262
  Basis Set: CC-PVTZ
  Basis Set:
  Basis Set: CC-PVTZ
  Basis Set:
  @DF-RHF Final Energy:  -212.39245517840146
    Total Energy =                       -212.3924551784014625
  Basis Set: CC-PVTZ
  Basis Set:
  Basis Set: CC-PVTZ
  Basis Set:
  @DF-RHF Final Energy:  -212.39245762984274
    Total Energy =                       -212.3924576298425677
  Basis Set: CC-PVTZ
  Basis Set:
  Charge       = 0
  Multiplicity = 1
  Basis Set: CC-PVTZ
  Basis Set:

    Orbital Energies (a.u.)
    -----------------------

    Doubly Occupied:

       1A    -15.525979     2A    -11.239367     3A    -11.208729
       4A    -11.207966     5A    -11.203342     6A     -1.177023
       7A     -1.054291     8A     -0.958070     9A     -0.852767
      10A     -0.776387    11A     -0.667066    12A     -0.644392
      13A     -0.598671    14A     -0.582927    15A     -0.549590
      16A     -0.524844    17A     -0.506837    18A     -0.470924
      19A     -0.464943    20A     -0.452510    21A     -0.380748

  @DF-RHF Final Energy:  -212.39245986016647

   => Energetics <=

    Nuclear Repulsion Energy =            189.5460063373637922
    One-Electron Energy =                -661.7821898746393572
    Two-Electron Energy =                 259.8437236771089829
    DFT Exchange-Correlation Energy =       0.0000000000000000
    Empirical Dispersion Energy =           0.0000000000000000
    PCM Polarization Energy =               0.0000000000000000
    EFP Energy =                            0.0000000000000000
    Total Energy =                       -212.3924598601665821
    Molecular point group: c1
  Basis Set: CC-PVTZ
  Basis Set:

  -Total Gradient:
     Atom            X                  Y                   Z
    ------   -----------------  -----------------  -----------------
       1       -0.000000650564    -0.000010181833    -0.000007817878
       2       -0.000016161738    -0.000012125197     0.000017528881
       3        0.001347169093    -0.003083105604    -0.006294718435
       4       -0.000000061750    -0.000006095322    -0.000002494698
       5        0.002561963155    -0.004838994980     0.004448268877
       6       -0.001523049750     0.003362944010     0.004635731193
       7        0.000002254103    -0.000008444127    -0.000003145026
       8        0.000026680953    -0.000001461399     0.000002074300
       9       -0.002379448123     0.004596581923    -0.002801773729
      10        0.000003539054    -0.000004194389     0.000004478711
      11       -0.000019402883    -0.000003745050     0.000004873005
      12       -0.000000993717     0.000007669984    -0.000010320225
      13       -0.000002997433     0.000007876910     0.000009512859
      14        0.000002003757    -0.000003247563    -0.000011160534
      15        0.000000696862     0.000001388912     0.000000264299
      16       -0.000001541020    -0.000004866278     0.000008698403

  **** Optimization is complete! (in 7 steps) ****
    Final optimized geometry and variables:
    Molecular point group: c1

    Geometry (in Angstrom), charge = 0, multiplicity = 1:

    H            2.480743559169     1.591302687599     0.495497310679
    N            1.548944875137     1.246949792293     0.403446343399
    C            1.561239217784    -0.102085498036    -0.152299954597
    H            1.059567774694     1.884270435604    -0.187749893620
    C            0.181710911158    -0.792069471047    -0.103936186959
    H            2.245364041931    -0.659546279103     0.475259858279
    H            1.946090915365    -0.127213789175    -1.169753652809
    C           -1.027110215429     0.145099681802    -0.062437188220
    H            0.074480017797    -1.395308096499    -1.000545717007
    H            0.132543157808    -1.458930265527     0.749542917713
    C           -2.347075660446    -0.619448448364    -0.071758732331
    H           -1.002403338247     0.813626076556    -0.920398175257
    H           -0.976304526573     0.770400707923     0.819184169419
    H           -2.444778191184    -1.229669074402    -0.963776832928
    H           -3.192413391056     0.058546580395    -0.041078836115
    H           -2.421628079751    -1.278496631194     0.787001718102

  Mulliken Charges: (a.u.)
   Center  Symbol    Alpha    Beta     Spin     Total
       1     H     0.42933  0.42933  0.00000  0.14134
       2     N     3.69080  3.69080  0.00000 -0.38160
       3     C     3.03506  3.03506  0.00000 -0.07011
       4     H     0.42760  0.42760  0.00000  0.14480
       5     C     3.08118  3.08118  0.00000 -0.16237
       6     H     0.45600  0.45600  0.00000  0.08800
       7     H     0.46262  0.46262  0.00000  0.07476
       8     C     3.09201  3.09201  0.00000 -0.18402
       9     H     0.45662  0.45662  0.00000  0.08676
      10     H     0.45431  0.45431  0.00000  0.09138
      11     C     3.15127  3.15127  0.00000 -0.30255
      12     H     0.45936  0.45936  0.00000  0.08129
      13     H     0.44310  0.44310  0.00000  0.11380
      14     H     0.45697  0.45697  0.00000  0.08606
      15     H     0.44896  0.44896  0.00000  0.10208
      16     H     0.45481  0.45481  0.00000  0.09038

   Total alpha = 21.00000, Total beta = 21.00000, Total charge =  0.00000

*** Psi4 exiting successfully. Buy a developer a beer!
