  ==> Input File <==

--------------------------------------------------------------------------
set {
	reference rhf
	basis 6-31G*
}

set_num_threads( 4 )
memory 2 gb

molecule MOL {
0 1

H	 -1.586456	 -0.533142	 0.785325
N	 -1.172117	 -0.314371	 -0.100254
C	 -0.024542	 0.565565	 0.069209
H	 -0.889504	 -1.184134	 -0.511008
C	 1.271298	 -0.229563	 -0.014192
H	 -0.049409	 1.297310	 -0.731596
H	 -0.046881	 1.125219	 1.006750
H	 1.332152	 -0.753033	 -0.961461
H	 2.134169	 0.422483	 0.080702
H	 1.326077	 -0.968298	 0.781395

	symmetry c1
}
set optking {
	frozen_dihedral = ("
		1 2 3 6
	")
}

ee = optimize('scf')
oeprop('DIPOLE', 'QUADRUPOLE', 'MULLIKEN_CHARGES')
f=open( 'psi4out.xyz', 'w' )
f.write( "10  " )
f.write( str(ee) + "\n" )
f.write( MOL.save_string_xyz() )
f.close()
--------------------------------------------------------------------------

    Molecular point group: c1
  Charge       = 0
  Multiplicity = 1
  Basis Set: 6-31G*
  Basis Set:
  @DF-RHF Final Energy:  -134.24264714932792
    Total Energy =                       -134.2426471493279223
    Molecular point group: c1
  Basis Set: 6-31G*
  Basis Set:
  Basis Set: 6-31G*
  Basis Set:
  @DF-RHF Final Energy:  -134.24442706480858
    Total Energy =                       -134.2444270648085762
  Basis Set: 6-31G*
  Basis Set:
  Basis Set: 6-31G*
  Basis Set:
  @DF-RHF Final Energy:  -134.24469731835143
    Total Energy =                       -134.2446973183514274
  Basis Set: 6-31G*
  Basis Set:
  Basis Set: 6-31G*
  Basis Set:
  @DF-RHF Final Energy:  -134.24471432099108
    Total Energy =                       -134.2447143209910791
  Basis Set: 6-31G*
  Basis Set:
  Basis Set: 6-31G*
  Basis Set:
  @DF-RHF Final Energy:  -134.24471588647950
    Total Energy =                       -134.2447158864793550
  Basis Set: 6-31G*
  Basis Set:
  Charge       = 0
  Multiplicity = 1
  Basis Set: 6-31G*
  Basis Set:

    Orbital Energies (a.u.)
    -----------------------

    Doubly Occupied:

       1A    -15.529779     2A    -11.242390     3A    -11.211889
       4A     -1.173349     5A     -0.988356     6A     -0.831753
       7A     -0.670629     8A     -0.602221     9A     -0.588695
      10A     -0.545128    11A     -0.508090    12A     -0.485018
      13A     -0.374768

  @DF-RHF Final Energy:  -134.24471600991887

   => Energetics <=

    Nuclear Repulsion Energy =             83.1697056528459910
    One-Electron Energy =                -345.3247163652953304
    Two-Electron Energy =                 127.9102947025304218
    DFT Exchange-Correlation Energy =       0.0000000000000000
    Empirical Dispersion Energy =           0.0000000000000000
    PCM Polarization Energy =               0.0000000000000000
    EFP Energy =                            0.0000000000000000
    Total Energy =                       -134.2447160099189034
    Molecular point group: c1
  Basis Set: 6-31G*
  Basis Set:

  -Total Gradient:
     Atom            X                  Y                   Z
    ------   -----------------  -----------------  -----------------
       1       -0.002037906252     0.002911585174    -0.000111534369
       2        0.002182790210    -0.003190863697     0.000619012851
       3        0.001443952990    -0.001691189269    -0.002505736246
       4       -0.000004814216    -0.000002636616     0.000002029313
       5       -0.000022445013     0.000006365609     0.000012912919
       6       -0.001587471962     0.001984456590     0.001977134013
       7        0.000004790306     0.000004017608     0.000002673353
       8        0.000004661582     0.000000934283    -0.000000521857
       9        0.000000967940    -0.000008794038     0.000000210815
      10        0.000015474416    -0.000013875644     0.000003819209

  **** Optimization is complete! (in 6 steps) ****
    Final optimized geometry and variables:
    Molecular point group: c1

    Geometry (in Angstrom), charge = 0, multiplicity = 1:

    H           -1.603166733221    -0.511882941152     0.825410764574
    N           -1.222854627652    -0.277783294079    -0.068085466810
    C           -0.035023961527     0.558356758946     0.047281905316
    H           -1.045603481038    -1.124171309613    -0.570670652209
    C            1.288372400945    -0.200557161108    -0.005359066873
    H           -0.060544573682     1.318751082891    -0.728079869308
    H           -0.100257478178     1.101601732361     0.985117976470
    H            1.386870983240    -0.742779746725    -0.942454539544
    H            2.132860091705     0.478049211106     0.071850624245
    H            1.357206565896    -0.920208156787     0.805660964536

  Mulliken Charges: (a.u.)
   Center  Symbol    Alpha    Beta     Spin     Total
       1     H     0.33133  0.33133  0.00000  0.33734
       2     N     3.92742  3.92742  0.00000 -0.85483
       3     C     3.05533  3.05533  0.00000 -0.11066
       4     H     0.33239  0.33239  0.00000  0.33522
       5     C     3.24735  3.24735  0.00000 -0.49470
       6     H     0.41849  0.41849  0.00000  0.16302
       7     H     0.42313  0.42313  0.00000  0.15374
       8     H     0.42215  0.42215  0.00000  0.15570
       9     H     0.41983  0.41983  0.00000  0.16033
      10     H     0.42258  0.42258  0.00000  0.15484

   Total alpha = 13.00000, Total beta = 13.00000, Total charge = -0.00000
