  ==> Input File <==

--------------------------------------------------------------------------
set {
	reference rhf
	basis 6-31G*
}

set_num_threads( 4 )
memory 2 gb

molecule MOL {
0 1

O	 0.518492	 1.231105	 -0.533142
C	 0.486307	 0.169203	 0.000779
C	 1.608116	 -0.841643	 0.000302
O	 -0.562404	 -0.275679	 0.678931
C	 2.990107	 -0.200498	 -0.000684
H	 1.468623	 -1.481519	 -0.865924
H	 1.469683	 -1.481289	 0.866878
H	 3.129736	 0.423364	 -0.875135
H	 3.757882	 -0.966877	 -0.001197
H	 3.130964	 0.423383	 0.873533
C	 -1.700647	 0.575611	 0.763240
C	 -2.750942	 -0.150262	 1.577060
H	 -2.050892	 0.795869	 -0.235959
H	 -1.409771	 1.508417	 1.226766
H	 -3.027464	 -1.084816	 1.102400
H	 -3.639868	 0.465735	 1.666541
H	 -2.382952	 -0.368367	 2.573187

	symmetry c1
}
set optking {
	frozen_dihedral = ("
		4 2 3 6
	")
}

ee = optimize('scf')
oeprop('DIPOLE', 'QUADRUPOLE', 'MULLIKEN_CHARGES')
f=open( 'psi4out.xyz', 'w' )
f.write( "17  " )
f.write( str(ee) + "\n" )
f.write( MOL.save_string_xyz() )
f.close()
--------------------------------------------------------------------------

    Molecular point group: c1
  Charge       = 0
  Multiplicity = 1
  Basis Set: 6-31G*
  Basis Set:
  @DF-RHF Final Energy:  -344.91086601367454
    Total Energy =                       -344.9108660136745925
    Molecular point group: c1
  Basis Set: 6-31G*
  Basis Set:
  Basis Set: 6-31G*
  Basis Set:
  @DF-RHF Final Energy:  -344.91107289931563
    Total Energy =                       -344.9110728993161956
  Basis Set: 6-31G*
  Basis Set:
  Basis Set: 6-31G*
  Basis Set:
  @DF-RHF Final Energy:  -344.91041511175615
    Total Energy =                       -344.9104151117559240
  Basis Set: 6-31G*
  Basis Set:
  Basis Set: 6-31G*
  Basis Set:
  @DF-RHF Final Energy:  -344.91119402435828
    Total Energy =                       -344.9111940243589061
  Basis Set: 6-31G*
  Basis Set:
  Basis Set: 6-31G*
  Basis Set:
  @DF-RHF Final Energy:  -344.91119619352440
    Total Energy =                       -344.9111961935244608
  Basis Set: 6-31G*
  Basis Set:
  Basis Set: 6-31G*
  Basis Set:
  @DF-RHF Final Energy:  -344.91119748368897
    Total Energy =                       -344.9111974836889658
  Basis Set: 6-31G*
  Basis Set:
  Charge       = 0
  Multiplicity = 1
  Basis Set: 6-31G*
  Basis Set:

    Orbital Energies (a.u.)
    -----------------------

    Doubly Occupied:

       1A    -20.602352     2A    -20.542724     3A    -11.371296
       4A    -11.284840     5A    -11.237023     6A    -11.222452
       7A    -11.217720     8A     -1.467951     9A     -1.361350
      10A     -1.069720    11A     -1.032128    12A     -0.910147
      13A     -0.848641    14A     -0.774101    15A     -0.694678
      16A     -0.688524    17A     -0.665338    18A     -0.626683
      19A     -0.585768    20A     -0.574064    21A     -0.557212
      22A     -0.525506    23A     -0.522835    24A     -0.511426
      25A     -0.503696    26A     -0.491952    27A     -0.452478
      28A     -0.434847

  @DF-RHF Final Energy:  -344.91119777540246

   => Energetics <=

    Nuclear Repulsion Energy =            314.7573615056086282
    One-Electron Energy =               -1093.7822109182523036
    Two-Electron Energy =                 434.1136516372411052
    DFT Exchange-Correlation Energy =       0.0000000000000000
    Empirical Dispersion Energy =           0.0000000000000000
    PCM Polarization Energy =               0.0000000000000000
    EFP Energy =                            0.0000000000000000
    Total Energy =                       -344.9111977754025702
    Molecular point group: c1
  Basis Set: 6-31G*
  Basis Set:

  -Total Gradient:
     Atom            X                  Y                   Z
    ------   -----------------  -----------------  -----------------
       1       -0.000004435163    -0.000029841123     0.000014580756
       2       -0.000296404823    -0.000305874021    -0.001208509981
       3       -0.000641889973    -0.000718239280     0.000972985721
       4        0.000315999074     0.000361531572     0.000809382626
       5        0.000001822319     0.000008237272     0.000007424304
       6        0.000623490611     0.000691617830    -0.000591369762
       7       -0.000005106199     0.000002355774    -0.000003473570
       8        0.000000037132     0.000002134637     0.000001603620
       9       -0.000000927050    -0.000004328015    -0.000000350268
      10       -0.000000384869    -0.000001270862    -0.000004803622
      11        0.000017665602    -0.000011585697     0.000001014813
      12       -0.000004690637     0.000001989015    -0.000000063348
      13       -0.000002801886     0.000000890348     0.000000518406
      14       -0.000002752280     0.000003492001     0.000000913095
      15       -0.000000177103    -0.000000803977     0.000000060754
      16       -0.000000047888    -0.000000382285     0.000000223330
      17        0.000000603128     0.000000076813    -0.000000136872

  **** Optimization is complete! (in 7 steps) ****
    Final optimized geometry and variables:
    Molecular point group: c1

    Geometry (in Angstrom), charge = 0, multiplicity = 1:

    O            0.466261569262     1.149182192886    -0.860177773818
    C            0.421620010396     0.086258174718    -0.327777750240
    C            1.540176260650    -0.929684225914    -0.342785714377
    O           -0.637172024689    -0.352046885255     0.336442905783
    C            2.919589114652    -0.278410140466    -0.403013891080
    H            1.384798682995    -1.545059486320    -1.225981141957
    H            1.438945252797    -1.579671003074     0.516918585967
    H            3.001333617366     0.369974350431    -1.265460086522
    H            3.690456566494    -1.038722568287    -0.467204905506
    H            3.109496218242     0.318674334743     0.482467635588
    C           -1.780724893718     0.495397839189     0.383374048205
    C           -2.845028654785    -0.222841831348     1.185697764930
    H           -2.110198122939     0.699217006390    -0.626335857198
    H           -1.502942281195     1.436054122328     0.838636802993
    H           -3.107852596960    -1.165604591344     0.719505328158
    H           -3.738041847123     0.390655306280     1.247228778407
    H           -2.497287026982    -0.424399616875     2.192509662385

  Mulliken Charges: (a.u.)
   Center  Symbol    Alpha    Beta     Spin     Total
       1     O     4.28701  4.28701  0.00000 -0.57402
       2     C     2.60393  2.60393  0.00000  0.79215
       3     C     3.20643  3.20643  0.00000 -0.41287
       4     O     4.31243  4.31243  0.00000 -0.62487
       5     C     3.24278  3.24278  0.00000 -0.48555
       6     H     0.40029  0.40029  0.00000  0.19942
       7     H     0.40064  0.40064  0.00000  0.19871
       8     H     0.40321  0.40321  0.00000  0.19357
       9     H     0.41686  0.41686  0.00000  0.16627
      10     H     0.41508  0.41508  0.00000  0.16983
      11     C     3.00300  3.00300  0.00000 -0.00601
      12     C     3.24852  3.24852  0.00000 -0.49704
      13     H     0.41035  0.41035  0.00000  0.17931
      14     H     0.40961  0.40961  0.00000  0.18078
      15     H     0.41184  0.41184  0.00000  0.17632
      16     H     0.41623  0.41623  0.00000  0.16754
      17     H     0.41178  0.41178  0.00000  0.17644

   Total alpha = 28.00000, Total beta = 28.00000, Total charge = -0.00000
