                              Psi4 1.0.54 Driver

  ==> Input File <==

--------------------------------------------------------------------------
set {
	reference rhf
	basis cc-pvtz
}

set_num_threads( 4 )
memory 2 gb

molecule MOL {
0 1

O	 -0.694481	 1.313155	 -0.204815
C	 -0.862519	 0.151932	 -0.046791
C	 -2.171428	 -0.477048	 0.339095
O	 0.085519	 -0.757083	 -0.192238
H	 -2.467997	 -1.191667	 -0.417688
H	 -2.923379	 0.287970	 0.444097
H	 -2.053854	 -1.015120	 1.270901
C	 1.392036	 -0.330828	 -0.560749
C	 2.456352	 -0.981025	 0.298539
H	 1.445672	 0.744850	 -0.498651
H	 1.496078	 -0.629135	 -1.593192
H	 3.438160	 -0.685304	 -0.053673
H	 2.359544	 -0.675086	 1.331212
H	 2.385811	 -2.060645	 0.243419

	symmetry c1
}
set optking {
	frozen_dihedral = ("
		10 8 4 2
	")
}

ee,wfn = optimize('scf', return_wfn=True)
oeprop( wfn, 'DIPOLE', 'QUADRUPOLE', 'MULLIKEN_CHARGES')
f=open( 'psi4out.xyz', 'w' )
f.write( "14  " )
f.write( str(ee) + "\n" )
f.write( MOL.save_string_xyz() )
f.close()
--------------------------------------------------------------------------

    Molecular point group: c1
  Charge       = 0
  Multiplicity = 1
  Basis Set: CC-PVTZ
  Basis Set:
  @DF-RHF Final Energy:  -305.98951104602486
    Total Energy =                       -305.9895110460250862
    Molecular point group: c1
  Basis Set: CC-PVTZ
  Basis Set:
  Basis Set: CC-PVTZ
  Basis Set:
  @DF-RHF Final Energy:  -305.98998458620270
    Total Energy =                       -305.9899845862028087
  Basis Set: CC-PVTZ
  Basis Set:
  Basis Set: CC-PVTZ
  Basis Set:
  @DF-RHF Final Energy:  -305.99021337201543
    Total Energy =                       -305.9902133720156030
  Basis Set: CC-PVTZ
  Basis Set:
  Basis Set: CC-PVTZ
  Basis Set:
  @DF-RHF Final Energy:  -305.98987911363923
    Total Energy =                       -305.9898791136394607
  Basis Set: CC-PVTZ
  Basis Set:
  Basis Set: CC-PVTZ
  Basis Set:
  @DF-RHF Final Energy:  -305.99023105236711
    Total Energy =                       -305.9902310523672782
  Basis Set: CC-PVTZ
  Basis Set:
  Charge       = 0
  Multiplicity = 1
  Basis Set: CC-PVTZ
  Basis Set:

    Orbital Energies (a.u.)
    -----------------------

    Doubly Occupied:

       1A    -20.593938     2A    -20.532489     3A    -11.368370
       4A    -11.282038     5A    -11.231207     6A    -11.220875
       7A     -1.469141     8A     -1.366171     9A     -1.058444
      10A     -1.000473    11A     -0.876806    12A     -0.777762
      13A     -0.698712    14A     -0.686327    15A     -0.664081
      16A     -0.613024    17A     -0.582556    18A     -0.564375
      19A     -0.562821    20A     -0.535131    21A     -0.517620
      22A     -0.498356    23A     -0.453089    24A     -0.442357

  @DF-RHF Final Energy:  -305.99023272426007

   => Energetics <=

    Nuclear Repulsion Energy =            246.2989116446004516
    One-Electron Energy =                -905.3859633146886381
    Two-Electron Energy =                 353.0968189458282609
    DFT Exchange-Correlation Energy =       0.0000000000000000
    Empirical Dispersion Energy =           0.0000000000000000
    PCM Polarization Energy =               0.0000000000000000
    EFP Energy =                            0.0000000000000000
    Total Energy =                       -305.9902327242598972
    Molecular point group: c1
  Basis Set: CC-PVTZ
  Basis Set:

  -Total Gradient:
     Atom            X                  Y                   Z
    ------   -----------------  -----------------  -----------------
       1       -0.000049191380     0.000111755120     0.000010793680
       2        0.000154832104    -0.000107427863     0.000623593911
       3        0.000026063614     0.000024763665    -0.000012576045
       4       -0.000333118016    -0.000044927943    -0.001120831281
       5        0.000017799080     0.000016891725     0.000011568954
       6        0.000026417275    -0.000010603163     0.000001688578
       7        0.000004756582     0.000020466708    -0.000011960444
       8        0.000337232828     0.000004869670     0.001157916343
       9        0.000014962409    -0.000012193979     0.000031524400
      10       -0.000204068030    -0.000023003969    -0.000704320276
      11       -0.000024336477     0.000003886837     0.000011314751
      12        0.000016052269     0.000000411499     0.000005173255
      13        0.000010138013    -0.000011429632    -0.000003822869
      14        0.000002459729     0.000026541324    -0.000000062958

  **** Optimization is complete! (in 6 steps) ****
    Final optimized geometry and variables:
    Molecular point group: c1

    Geometry (in Angstrom), charge = 0, multiplicity = 1:

    O           -0.746985675266     1.500065408732    -0.238258910654
    C           -0.898191422008     0.342992411474    -0.041546130248
    C           -2.206930942370    -0.291932500456     0.335530912297
    O            0.063109430583    -0.561013530560    -0.125609712070
    H           -2.474625934048    -1.036116870835    -0.403307312840
    H           -2.971938926187     0.464844140548     0.395459082177
    H           -2.104622516267    -0.796311999664     1.287620970264
    C            1.388601704759    -0.162559099995    -0.455829332058
    C            2.352693826972    -0.814847907498     0.509897408710
    H            1.457217929566     0.911518672632    -0.428576282531
    H            1.576300019707    -0.490800728785    -1.469769611761
    H            3.370929704264    -0.561118382909     0.238338188026
    H            2.174158431269    -0.473002638422     1.521954501655
    H            2.251388654750    -1.892590772947     0.488933799176

  Mulliken Charges: (a.u.)
   Center  Symbol    Alpha    Beta     Spin     Total
       1     O     4.19815  4.19815  0.00000 -0.39631
       2     C     2.80082  2.80082  0.00000  0.39836
       3     C     3.14028  3.14028  0.00000 -0.28057
       4     O     4.15682  4.15682  0.00000 -0.31364
       5     H     0.44573  0.44573  0.00000  0.10854
       6     H     0.43822  0.43822  0.00000  0.12357
       7     H     0.44630  0.44630  0.00000  0.10741
       8     C     2.98690  2.98690  0.00000  0.02621
       9     C     3.13388  3.13388  0.00000 -0.26776
      10     H     0.44137  0.44137  0.00000  0.11727
      11     H     0.45413  0.45413  0.00000  0.09174
      12     H     0.45425  0.45425  0.00000  0.09151
      13     H     0.45174  0.45174  0.00000  0.09652
      14     H     0.45142  0.45142  0.00000  0.09716

   Total alpha = 24.00000, Total beta = 24.00000, Total charge =  0.00000

*** Psi4 exiting successfully. Buy a developer a beer!
