  ==> Input File <==

--------------------------------------------------------------------------
set {
	reference rhf
	basis 6-31G*
}

set_num_threads( 4 )
memory 2 gb

molecule MOL {
0 1

O	 3.225979	 0.970355	 -0.599647
C	 2.701189	 0.057885	 -0.047330
C	 1.245376	 -0.013843	 0.345420
O	 3.347903	 -1.046386	 0.304773
C	 0.455112	 1.231400	 -0.050772
H	 0.838542	 -0.913825	 -0.103701
H	 1.208210	 -0.175333	 1.419774
C	 -0.998893	 1.219485	 0.433193
H	 0.482531	 1.345121	 -1.130325
H	 0.957290	 2.103070	 0.354729
C	 -1.883438	 0.145884	 -0.207175
H	 -1.431207	 2.195402	 0.224832
H	 -1.019646	 1.105716	 1.516076
C	 -3.347647	 0.245583	 0.225435
H	 -1.822183	 0.231698	 -1.291012
H	 -1.510341	 -0.844814	 0.042401
C	 -3.673712	 1.543573	 0.966403
H	 -3.593033	 -0.602336	 0.862659
H	 -3.988527	 0.162506	 -0.650962
C	 -5.136950	 1.633557	 1.398304
H	 -3.033486	 1.628673	 1.841909
H	 -3.433180	 2.392195	 0.329406
H	 -5.336863	 2.564113	 1.920517
H	 -5.399781	 0.817160	 2.065096
H	 -5.802477	 1.585935	 0.540936
C	 4.728119	 -1.109107	 -0.004993
H	 4.882018	 -1.033965	 -1.071845
H	 5.068212	 -2.067527	 0.355250
H	 5.265056	 -0.311663	 0.488280

	symmetry c1
}
set optking {
	frozen_dihedral = ("
		17 14 11 15
	")
}

ee = optimize('scf')
oeprop('DIPOLE', 'QUADRUPOLE', 'MULLIKEN_CHARGES')
f=open( 'psi4out.xyz', 'w' )
f.write( "29  " )
f.write( str(ee) + "\n" )
f.write( MOL.save_string_xyz() )
f.close()
--------------------------------------------------------------------------

    Molecular point group: c1
  Charge       = 0
  Multiplicity = 1
  Basis Set: 6-31G*
  Basis Set:
  @DF-RHF Final Energy:  -501.02993560611355
    Total Energy =                       -501.0299356061136677
    Molecular point group: c1
  Basis Set: 6-31G*
  Basis Set:
  Basis Set: 6-31G*
  Basis Set:
  @DF-RHF Final Energy:  -501.02987757734672
    Total Energy =                       -501.0298775773464968
  Basis Set: 6-31G*
  Basis Set:
  Basis Set: 6-31G*
  Basis Set:
  @DF-RHF Final Energy:  -501.03406040299944
    Total Energy =                       -501.0340604029991027
  Basis Set: 6-31G*
  Basis Set:
  Basis Set: 6-31G*
  Basis Set:
  @DF-RHF Final Energy:  -501.03469549872239
    Total Energy =                       -501.0346954987223853
  Basis Set: 6-31G*
  Basis Set:
  @DF-RHF Final Energy:  -501.03469377354520
    Total Energy =                       -501.0346937735457686
  @DF-RHF Final Energy:  -501.03375976834650
    Total Energy =                       -501.0337597683459308
  @DF-RHF Final Energy:  -501.03479598275669
    Total Energy =                       -501.0347959827568047
  Basis Set: 6-31G*
  Basis Set:
  @DF-RHF Final Energy:  -501.03479332714323
    Total Energy =                       -501.0347933271432339
  Basis Set: 6-31G*
  Basis Set:
  Basis Set: 6-31G*
  Basis Set:
  @DF-RHF Final Energy:  -501.03479749388930
    Total Energy =                       -501.0347974938895277
  Basis Set: 6-31G*
  Basis Set:
  Basis Set: 6-31G*
  Basis Set:
  @DF-RHF Final Energy:  -501.03479948475763
    Total Energy =                       -501.0347994847575137
  Basis Set: 6-31G*
  Basis Set:
  Charge       = 0
  Multiplicity = 1
  Basis Set: 6-31G*
  Basis Set:

    Orbital Energies (a.u.)
    -----------------------

    Doubly Occupied:

       1A    -20.603329     2A    -20.545156     3A    -11.371981
       4A    -11.280637     5A    -11.234671     6A    -11.219060
       7A    -11.217493     8A    -11.216389     9A    -11.215529
      10A    -11.214955    11A    -11.208755    12A     -1.469023
      13A     -1.362462    14A     -1.096367    15A     -1.064429
      16A     -1.017268    17A     -0.975825    18A     -0.929087
      19A     -0.863102    20A     -0.820248    21A     -0.773125
      22A     -0.757399    23A     -0.700897    24A     -0.682062
      25A     -0.672076    26A     -0.645934    27A     -0.628132
      28A     -0.606893    29A     -0.592664    30A     -0.581641
      31A     -0.564805    32A     -0.552322    33A     -0.547525
      34A     -0.524101    35A     -0.520677    36A     -0.498056
      37A     -0.491505    38A     -0.485122    39A     -0.482052
      40A     -0.456869    41A     -0.449784    42A     -0.446776
      43A     -0.441126    44A     -0.437125

  @DF-RHF Final Energy:  -501.03480016400613

   => Energetics <=

    Nuclear Repulsion Energy =            614.3707619036588312
    One-Electron Energy =               -1899.8822507356637743
    Two-Electron Energy =                 784.4766886679985873
    DFT Exchange-Correlation Energy =       0.0000000000000000
    Empirical Dispersion Energy =           0.0000000000000000
    PCM Polarization Energy =               0.0000000000000000
    EFP Energy =                            0.0000000000000000
    Total Energy =                       -501.0348001640063558
    Molecular point group: c1
  Basis Set: 6-31G*
  Basis Set:

  -Total Gradient:
     Atom            X                  Y                   Z
    ------   -----------------  -----------------  -----------------
       1        0.000013874651    -0.000004012963    -0.000002772227
       2       -0.000017697741    -0.000022766882    -0.000026581802
       3       -0.000042563318     0.000007161791     0.000018925678
       4        0.000015983570    -0.000000951095    -0.000016852437
       5        0.000006796586     0.000049778861     0.000038874590
       6       -0.000004134611    -0.000014198109     0.000002593528
       7       -0.000008086216     0.000000408014     0.000005268302
       8       -0.000045631262     0.000024388578    -0.000009565217
       9        0.000002834177     0.000024274973    -0.000003865318
      10        0.000005779933    -0.000021740778    -0.000000532452
      11        0.000536529381     0.004726977978     0.001617889897
      12       -0.000040662745     0.000020174943     0.000009601778
      13        0.000030174708     0.000017686941    -0.000027510353
      14       -0.001151009428     0.000865217186    -0.004282213305
      15       -0.000195846113    -0.004340380882    -0.000216435041
      16        0.000007484342    -0.000062446832    -0.000006610741
      17        0.000829182006    -0.001293690729     0.002920588456
      18        0.000050505454    -0.000051802498    -0.000000154249
      19        0.000016555044     0.000000511816    -0.000005546844
      20        0.000001285372     0.000039140953    -0.000012418148
      21       -0.000048549464    -0.000003326658    -0.000019783959
      22        0.000015143336     0.000041796125     0.000014182795
      23       -0.000007099986    -0.000001558397    -0.000001887776
      24        0.000017760357     0.000002088562    -0.000001940209
      25       -0.000002233758     0.000001883930    -0.000004051155
      26        0.000012460397    -0.000000646346     0.000016491273
      27       -0.000005941697     0.000000596270    -0.000000684352
      28        0.000001898122    -0.000000641612    -0.000002035621
      29        0.000005208894    -0.000003923141    -0.000002975089

  **** Optimization is complete! (in 11 steps) ****
    Final optimized geometry and variables:
    Molecular point group: c1

    Geometry (in Angstrom), charge = 0, multiplicity = 1:

    O            3.176692363830     0.468511962991    -0.900147429912
    C            2.629413710596    -0.413858414807    -0.321371222667
    C            1.180196411823    -0.424092689401     0.101438794218
    O            3.241451920910    -1.535639148075     0.037434672399
    C            0.429220182948     0.842891794989    -0.303013558963
    H            0.732763211619    -1.317146888646    -0.321647277103
    H            1.159370221005    -0.563685939731     1.179339423754
    C           -1.011733547688     0.906951148862     0.217702373599
    H            0.433675644688     0.932700136457    -1.385209334364
    H            0.977216913083     1.701202102193     0.070300868553
    C           -1.941757960119    -0.145652010488    -0.394943994253
    H           -1.395112904215     1.899880989240     0.005678348958
    H           -1.004337133652     0.808786624304     1.301514088464
    C           -3.434077553753    -0.107843641500     0.032656188008
    H           -1.878073315029    -0.092077195642    -1.479462805301
    H           -1.558751658364    -1.132434687783    -0.150119476765
    C           -3.932810756960     1.157479997022     0.739727706939
    H           -3.625505719392    -0.945882333461     0.699053192719
    H           -4.053595725644    -0.283947522240    -0.842450037554
    C           -5.415436318696     1.062264481600     1.100502464846
    H           -3.357809445652     1.329569393104     1.644436706159
    H           -3.778325100066     2.027907035205     0.106597987315
    H           -5.755213754195     1.961599799613     1.604898222371
    H           -5.605399662897     0.220825592194     1.761092482864
    H           -6.028105458273     0.929126485148     0.213305236099
    C            4.611766894902    -1.655717245602    -0.298285113933
    H            4.746616188241    -1.604319746723    -1.369118888998
    H            4.922911135595    -2.620164413787     0.071887807249
    H            5.188191563731    -0.871042855976     0.170287588622

  Mulliken Charges: (a.u.)
   Center  Symbol    Alpha    Beta     Spin     Total
       1     O     4.28597  4.28597  0.00000 -0.57194
       2     C     2.60469  2.60469  0.00000  0.79063
       3     C     3.21004  3.21004  0.00000 -0.42008
       4     O     4.30750  4.30750  0.00000 -0.61500
       5     C     3.15396  3.15396  0.00000 -0.30791
       6     H     0.39876  0.39876  0.00000  0.20249
       7     H     0.40133  0.40133  0.00000  0.19734
       8     C     3.15906  3.15906  0.00000 -0.31812
       9     H     0.41314  0.41314  0.00000  0.17372
      10     H     0.40848  0.40848  0.00000  0.18304
      11     C     3.15940  3.15940  0.00000 -0.31879
      12     H     0.41567  0.41567  0.00000  0.16866
      13     H     0.42346  0.42346  0.00000  0.15308
      14     C     3.15332  3.15332  0.00000 -0.30663
      15     H     0.42085  0.42085  0.00000  0.15830
      16     H     0.42155  0.42155  0.00000  0.15690
      17     C     3.15499  3.15499  0.00000 -0.30999
      18     H     0.42286  0.42286  0.00000  0.15428
      19     H     0.42046  0.42046  0.00000  0.15908
      20     C     3.23929  3.23929  0.00000 -0.47858
      21     H     0.42094  0.42094  0.00000  0.15812
      22     H     0.42228  0.42228  0.00000  0.15545
      23     H     0.41908  0.41908  0.00000  0.16185
      24     H     0.42208  0.42208  0.00000  0.15583
      25     H     0.42172  0.42172  0.00000  0.15656
      26     C     3.09239  3.09239  0.00000 -0.18477
      27     H     0.40908  0.40908  0.00000  0.18184
      28     H     0.40852  0.40852  0.00000  0.18296
      29     H     0.40915  0.40915  0.00000  0.18171

   Total alpha = 44.00000, Total beta = 44.00000, Total charge = -0.00000
