  ==> Input File <==

--------------------------------------------------------------------------
set {
	reference rhf
	basis 6-31G*
}

set_num_threads( 1 )
memory 2 gb

molecule MOL {
0 1

H	 -3.301617	 0.570527	 0.000000
C	 -2.250981	 0.344174	 0.000000
C	 -1.813665	 -0.976045	 0.000000
C	 -1.315303	 1.358057	 0.000000
H	 -2.528860	 -1.779366	 0.000000
C	 -0.467298	 -1.270142	 0.000000
H	 -1.635074	 2.385107	 0.000000
C	 0.047081	 1.078114	 0.000000
H	 -0.115948	 -2.285222	 0.000000
C	 0.472063	 -0.241155	 0.000000
H	 0.749976	 1.888426	 0.000000
O	 1.765256	 -0.628444	 0.000000
C	 2.430192	 -0.827581	 1.213786
H	 2.468770	 0.084677	 1.799986
H	 3.435880	 -1.128767	 0.961415
H	 1.960983	 -1.610871	 1.799986

	symmetry c1
}
set optking {
	frozen_dihedral = ("
		10 12 13 14
	")
}

ee = energy('scf')
oeprop('DIPOLE', 'QUADRUPOLE', 'MULLIKEN_CHARGES')
f=open( 'psi4out.xyz', 'w' )
f.write( "16  " )
f.write( str(ee) + "\n" )
f.write( MOL.save_string_xyz() )
f.close()
--------------------------------------------------------------------------

    Molecular point group: c1

    Geometry (in Angstrom), charge = 0, multiplicity = 1:

       Center              X                  Y                   Z               Mass
    ------------   -----------------  -----------------  -----------------  -----------------
           H         -3.250740288087     0.740408834741    -0.177336227115     1.007825032070
           C         -2.200104288087     0.514055834741    -0.177336227115    12.000000000000
           C         -1.762788288087    -0.806163165259    -0.177336227115    12.000000000000
           C         -1.264426288087     1.527938834741    -0.177336227115    12.000000000000
           H         -2.477983288087    -1.609484165259    -0.177336227115     1.007825032070
           C         -0.416421288087    -1.100260165259    -0.177336227115    12.000000000000
           H         -1.584197288087     2.554988834741    -0.177336227115     1.007825032070
           C          0.097957711913     1.247995834741    -0.177336227115    12.000000000000
           H         -0.065071288087    -2.115340165259    -0.177336227115     1.007825032070
           C          0.522939711913    -0.071273165259    -0.177336227115    12.000000000000
           H          0.800852711913     2.058307834741    -0.177336227115     1.007825032070
           O          1.816132711913    -0.458562165259    -0.177336227115    15.994914619560
           C          2.481068711913    -0.657699165259     1.036449772885    12.000000000000
           H          2.519646711913     0.254558834741     1.622649772885     1.007825032070
           H          3.486756711913    -0.958885165259     0.784078772885     1.007825032070
           H          2.011859711913    -1.440989165259     1.622649772885     1.007825032070

  Charge       = 0
  Multiplicity = 1
  Basis Set: 6-31G*
  Basis Set:

    Orbital Energies (a.u.)
    -----------------------

    Doubly Occupied:

       1A    -20.569866     2A    -11.286942     3A    -11.276420
       4A    -11.232613     5A    -11.231345     6A    -11.226660
       7A    -11.225310     8A    -11.222059     9A     -1.404567
      10A     -1.146590    11A     -1.017304    12A     -1.015672
      13A     -0.934823    14A     -0.832870    15A     -0.805960
      16A     -0.714712    17A     -0.668936    18A     -0.663501
      19A     -0.637660    20A     -0.610742    21A     -0.599161
      22A     -0.584193    23A     -0.530341    24A     -0.506205
      25A     -0.503905    26A     -0.480105    27A     -0.433157
      28A     -0.334349    29A     -0.319323

  @DF-RHF Final Energy:  -344.57812055775520

   => Energetics <=

    Nuclear Repulsion Energy =            347.7962616917748733
    One-Electron Energy =               -1156.7180544535669924
    Two-Electron Energy =                 464.3436722040375457
    DFT Exchange-Correlation Energy =       0.0000000000000000
    Empirical Dispersion Energy =           0.0000000000000000
    PCM Polarization Energy =               0.0000000000000000
    EFP Energy =                            0.0000000000000000
    Total Energy =                       -344.5781205577546302

  Mulliken Charges: (a.u.)
   Center  Symbol    Alpha    Beta     Spin     Total
       1     H     0.39949  0.39949  0.00000  0.20102
       2     C     3.10549  3.10549  0.00000 -0.21098
       3     C     3.09659  3.09659  0.00000 -0.19317
       4     C     3.09719  3.09719  0.00000 -0.19439
       5     H     0.39958  0.39958  0.00000  0.20084
       6     C     3.12021  3.12021  0.00000 -0.24041
       7     H     0.39909  0.39909  0.00000  0.20182
       8     C     3.12332  3.12332  0.00000 -0.24665
       9     H     0.39566  0.39566  0.00000  0.20867
      10     C     2.79872  2.79872  0.00000  0.40255
      11     H     0.39537  0.39537  0.00000  0.20925
      12     O     4.33268  4.33268  0.00000 -0.66536
      13     C     3.07935  3.07935  0.00000 -0.15871
      14     H     0.42319  0.42319  0.00000  0.15362
      15     H     0.41005  0.41005  0.00000  0.17991
      16     H     0.42401  0.42401  0.00000  0.15197

   Total alpha = 29.00000, Total beta = 29.00000, Total charge =  0.00000
