  ==> Input File <==

--------------------------------------------------------------------------
set {
	reference rhf
	basis 6-31G*
}

set_num_threads( 4 )
memory 2 gb

molecule MOL {
0 1

H	 -1.033395	 1.664957	 -0.785158
C	 -0.384928	 0.806752	 -0.967538
N	 0.538815	 0.649616	 0.000000
O	 -0.513851	 0.110054	 -1.930449
C	 1.521968	 -0.411503	 0.000000
H	 0.538395	 1.301545	 0.750514
H	 2.150599	 -0.357004	 -0.881901
H	 0.999455	 -1.354525	 0.000000
H	 2.150599	 -0.357004	 0.881901

	symmetry c1
}
set optking {
	frozen_dihedral = ("
		6 3 5 7
	")
}

ee = optimize('scf')
oeprop('DIPOLE', 'QUADRUPOLE', 'MULLIKEN_CHARGES')
f=open( 'psi4out.xyz', 'w' )
f.write( "9  " )
f.write( str(ee) + "\n" )
f.write( MOL.save_string_xyz() )
f.close()
--------------------------------------------------------------------------

    Molecular point group: c1
  Charge       = 0
  Multiplicity = 1
  Basis Set: 6-31G*
  Basis Set:
  @DF-RHF Final Energy:  -207.96037672240163
    Total Energy =                       -207.9603767224016622
    Molecular point group: c1
  Basis Set: 6-31G*
  Basis Set:
  Basis Set: 6-31G*
  Basis Set:
  @DF-RHF Final Energy:  -207.96095298359694
    Total Energy =                       -207.9609529835969681
  Basis Set: 6-31G*
  Basis Set:
  Basis Set: 6-31G*
  Basis Set:
  @DF-RHF Final Energy:  -207.96099801046063
    Total Energy =                       -207.9609980104606848
  Basis Set: 6-31G*
  Basis Set:
  Basis Set: 6-31G*
  Basis Set:
  @DF-RHF Final Energy:  -207.96098810815187
    Total Energy =                       -207.9609881081519234
  Basis Set: 6-31G*
  Basis Set:
  Charge       = 0
  Multiplicity = 1
  Basis Set: 6-31G*
  Basis Set:

    Orbital Energies (a.u.)
    -----------------------

    Doubly Occupied:

       1A    -20.525775     2A    -15.590297     3A    -11.342458
       4A    -11.261419     5A     -1.389144     6A     -1.235794
       7A     -0.967775     8A     -0.808226     9A     -0.746721
      10A     -0.640807    11A     -0.626683    12A     -0.592475
      13A     -0.558525    14A     -0.531867    15A     -0.423445
      16A     -0.391074

  @DF-RHF Final Energy:  -207.96103524581065

   => Energetics <=

    Nuclear Repulsion Energy =            122.7264703715240870
    One-Electron Energy =                -526.1100432677603749
    Two-Electron Energy =                 195.4225376504256815
    DFT Exchange-Correlation Energy =       0.0000000000000000
    Empirical Dispersion Energy =           0.0000000000000000
    PCM Polarization Energy =               0.0000000000000000
    EFP Energy =                            0.0000000000000000
    Total Energy =                       -207.9610352458105922
    Molecular point group: c1
  Basis Set: 6-31G*
  Basis Set:

  -Total Gradient:
     Atom            X                  Y                   Z
    ------   -----------------  -----------------  -----------------
       1       -0.000025579341     0.000004562500     0.000001982733
       2       -0.000000351183    -0.000004095103    -0.000097281104
       3        0.000059590948    -0.000029565517     0.000006867614
       4       -0.000029180024     0.000026498665     0.000049427610
       5       -0.000052270918     0.000103855187     0.000015521975
       6       -0.000007216654    -0.000014523083     0.000007760404
       7        0.000020019697    -0.000020309189     0.000010659448
       8        0.000013824941    -0.000036422014     0.000002509112
       9        0.000021162534    -0.000030001447     0.000002552210

  **** Optimization is complete! (in 5 steps) ****
    Final optimized geometry and variables:
    Molecular point group: c1

    Geometry (in Angstrom), charge = 0, multiplicity = 1:

    H           -1.342361151813     1.388513706299    -0.084695735644
    C           -0.685134908643     0.532598969546    -0.246530281849
    N            0.230435602342     0.381813135393     0.726840791548
    O           -0.790483961323    -0.181212790738    -1.199938669044
    C            1.197686291719    -0.695034832814     0.703373851511
    H            0.234750905629     1.027620047205     1.481258844796
    H            1.819802066347    -0.635717726536    -0.180605971799
    H            0.703457219631    -1.658270485758     0.708744683602
    H            1.825290583354    -0.617116493499     1.580656964520

  Mulliken Charges: (a.u.)
   Center  Symbol    Alpha    Beta     Spin     Total
       1     H     0.42694  0.42694  0.00000  0.14611
       2     C     2.74735  2.74735  0.00000  0.50529
       3     N     3.87540  3.87540  0.00000 -0.75079
       4     O     4.28312  4.28312  0.00000 -0.56624
       5     C     3.13574  3.13574  0.00000 -0.27147
       6     H     0.30728  0.30728  0.00000  0.38545
       7     H     0.40400  0.40400  0.00000  0.19200
       8     H     0.40408  0.40408  0.00000  0.19184
       9     H     0.41610  0.41610  0.00000  0.16781

   Total alpha = 16.00000, Total beta = 16.00000, Total charge =  0.00000
