  ==> Input File <==

--------------------------------------------------------------------------
set {
	reference rhf
	basis 6-31G*
}

set_num_threads( 1 )
memory 2 gb

molecule MOL {
0 1

H	 1.556515	 -0.089308	 -1.756187
C	 1.294695	 0.819997	 -1.201735
C	 0.692068	 0.589600	 0.160137
O	 1.491073	 1.889095	 -1.681938
C	 -0.558097	 -0.297372	 0.091132
H	 0.468539	 1.554294	 0.600456
H	 1.445563	 0.103282	 0.778661
C	 -1.850991	 0.512573	 -0.019058
H	 -0.476753	 -0.965681	 -0.762987
H	 -0.604799	 -0.930658	 0.975228
C	 -3.096943	 -0.368295	 -0.099594
H	 -1.800724	 1.150330	 -0.898172
H	 -1.931651	 1.177355	 0.838044
H	 -3.060452	 -1.020287	 -0.967456
H	 -3.996858	 0.233488	 -0.175704
H	 -3.191959	 -0.995686	 0.782074

	symmetry c1
}
set optking {
	frozen_dihedral = ("
		9 5 8 12,
		4 2 3 6
	")
}

ee = energy('scf')
oeprop('DIPOLE', 'QUADRUPOLE', 'MULLIKEN_CHARGES')
f=open( 'psi4out.xyz', 'w' )
f.write( "16  " )
f.write( str(ee) + "\n" )
f.write( MOL.save_string_xyz() )
f.close()
--------------------------------------------------------------------------

    Molecular point group: c1

    Geometry (in Angstrom), charge = 0, multiplicity = 1:

       Center              X                  Y                   Z               Mass
    ------------   -----------------  -----------------  -----------------  -----------------
           H          1.905809951531    -0.618076487905    -1.287719277933     1.007825032070
           C          1.643989951531     0.291228512095    -0.733267277933    12.000000000000
           C          1.041362951531     0.060831512095     0.628604722067    12.000000000000
           O          1.840367951531     1.360326512095    -1.213470277933    15.994914619560
           C         -0.208802048469    -0.826140487905     0.559599722067    12.000000000000
           H          0.817833951531     1.025525512095     1.068923722067     1.007825032070
           H          1.794857951531    -0.425486487905     1.247128722067     1.007825032070
           C         -1.501696048469    -0.016195487905     0.449409722067    12.000000000000
           H         -0.127458048469    -1.494449487905    -0.294519277933     1.007825032070
           H         -0.255504048469    -1.459426487905     1.443695722067     1.007825032070
           C         -2.747648048469    -0.897063487905     0.368873722067    12.000000000000
           H         -1.451429048469     0.621561512095    -0.429704277933     1.007825032070
           H         -1.582356048469     0.648586512095     1.306511722067     1.007825032070
           H         -2.711157048469    -1.549055487905    -0.498988277933     1.007825032070
           H         -3.647563048469    -0.295280487905     0.292763722067     1.007825032070
           H         -2.842664048469    -1.524454487905     1.250541722067     1.007825032070

  Charge       = 0
  Multiplicity = 1
  Basis Set: 6-31G*
  Basis Set:

    Orbital Energies (a.u.)
    -----------------------

    Doubly Occupied:

       1A    -20.562917     2A    -11.326912     3A    -11.235556
       4A    -11.234448     5A    -11.226230     6A    -11.216456
       7A     -1.402782     8A     -1.096028     9A     -1.016872
      10A     -0.904367    11A     -0.814455    12A     -0.793479
      13A     -0.669661    14A     -0.655107    15A     -0.615024
      16A     -0.607449    17A     -0.591124    18A     -0.537676
      19A     -0.527776    20A     -0.523674    21A     -0.485721
      22A     -0.481718    23A     -0.465440    24A     -0.411037

  @DF-RHF Final Energy:  -270.01718248259346

   => Energetics <=

    Nuclear Repulsion Energy =            232.2505412755390353
    One-Electron Energy =                -825.7316398903786876
    Two-Electron Energy =                 323.4639161322460268
    DFT Exchange-Correlation Energy =       0.0000000000000000
    Empirical Dispersion Energy =           0.0000000000000000
    PCM Polarization Energy =               0.0000000000000000
    EFP Energy =                            0.0000000000000000
    Total Energy =                       -270.0171824825936255

  Mulliken Charges: (a.u.)
   Center  Symbol    Alpha    Beta     Spin     Total
       1     H     0.43135  0.43135  0.00000  0.13730
       2     C     2.83306  2.83306  0.00000  0.33388
       3     C     3.20907  3.20907  0.00000 -0.41815
       4     O     4.23650  4.23650  0.00000 -0.47300
       5     C     3.16679  3.16679  0.00000 -0.33358
       6     H     0.39811  0.39811  0.00000  0.20377
       7     H     0.40653  0.40653  0.00000  0.18695
       8     C     3.15319  3.15319  0.00000 -0.30638
       9     H     0.41859  0.41859  0.00000  0.16282
      10     H     0.41410  0.41410  0.00000  0.17181
      11     C     3.24064  3.24064  0.00000 -0.48129
      12     H     0.41580  0.41580  0.00000  0.16839
      13     H     0.41870  0.41870  0.00000  0.16261
      14     H     0.42063  0.42063  0.00000  0.15875
      15     H     0.41601  0.41601  0.00000  0.16799
      16     H     0.42093  0.42093  0.00000  0.15814

   Total alpha = 24.00000, Total beta = 24.00000, Total charge = -0.00000
