  ==> Input File <==

--------------------------------------------------------------------------
set {
	reference rhf
	basis 6-31G*
}

set_num_threads( 4 )
memory 2 gb

molecule MOL {
0 1

H	 -3.301617	 0.570527	 0.000000
C	 -2.250981	 0.344174	 0.000000
C	 -1.813665	 -0.976045	 0.000000
C	 -1.315303	 1.358057	 0.000000
H	 -2.528860	 -1.779366	 0.000000
C	 -0.467298	 -1.270142	 0.000000
H	 -1.635074	 2.385107	 0.000000
C	 0.047081	 1.078114	 0.000000
H	 -0.115948	 -2.285222	 0.000000
C	 0.472063	 -0.241155	 0.000000
H	 0.749976	 1.888426	 0.000000
O	 1.765256	 -0.628444	 0.000000
C	 2.604306	 -0.246200	 -1.051170
H	 2.253200	 -0.635131	 -2.001322
H	 3.573791	 -0.668267	 -0.832610
H	 2.692957	 0.833256	 -1.116346

	symmetry c1
}
set optking {
	frozen_dihedral = ("
		13 12 10 8
	")
}

ee = optimize('scf')
oeprop('DIPOLE', 'QUADRUPOLE', 'MULLIKEN_CHARGES')
f=open( 'psi4out.xyz', 'w' )
f.write( "16  " )
f.write( str(ee) + "\n" )
f.write( MOL.save_string_xyz() )
f.close()
--------------------------------------------------------------------------

    Molecular point group: c1
  Charge       = 0
  Multiplicity = 1
  Basis Set: 6-31G*
  Basis Set:
  @DF-RHF Final Energy:  -344.57914738245046
    Total Energy =                       -344.5791473824504578
    Molecular point group: c1
  Basis Set: 6-31G*
  Basis Set:
  Basis Set: 6-31G*
  Basis Set:
  @DF-RHF Final Energy:  -344.58007300478243
    Total Energy =                       -344.5800730047823208
  Basis Set: 6-31G*
  Basis Set:
  Basis Set: 6-31G*
  Basis Set:
  @DF-RHF Final Energy:  -344.58025397468339
    Total Energy =                       -344.5802539746837283
  Basis Set: 6-31G*
  Basis Set:
  Basis Set: 6-31G*
  Basis Set:
  @DF-RHF Final Energy:  -344.58027431613380
    Total Energy =                       -344.5802743161336821
  Basis Set: 6-31G*
  Basis Set:
  Charge       = 0
  Multiplicity = 1
  Basis Set: 6-31G*
  Basis Set:

    Orbital Energies (a.u.)
    -----------------------

    Doubly Occupied:

       1A    -20.574170     2A    -11.287639     3A    -11.276259
       4A    -11.233685     5A    -11.232500     6A    -11.226125
       7A    -11.224667     8A    -11.222895     9A     -1.402248
      10A     -1.147250    11A     -1.018166    12A     -1.014380
      13A     -0.935158    14A     -0.833467    15A     -0.805954
      16A     -0.715382    17A     -0.666075    18A     -0.661926
      19A     -0.640337    20A     -0.613839    21A     -0.593790
      22A     -0.583005    23A     -0.529454    24A     -0.508771
      25A     -0.505076    26A     -0.482212    27A     -0.441613
      28A     -0.335011    29A     -0.316401

  @DF-RHF Final Energy:  -344.58027631764469

   => Energetics <=

    Nuclear Repulsion Energy =            347.9128957356407454
    One-Electron Energy =               -1156.9314358623084900
    Two-Electron Energy =                 464.4382638090232831
    DFT Exchange-Correlation Energy =       0.0000000000000000
    Empirical Dispersion Energy =           0.0000000000000000
    PCM Polarization Energy =               0.0000000000000000
    EFP Energy =                            0.0000000000000000
    Total Energy =                       -344.5802763176444614
    Molecular point group: c1
  Basis Set: 6-31G*
  Basis Set:

  -Total Gradient:
     Atom            X                  Y                   Z
    ------   -----------------  -----------------  -----------------
       1       -0.000022893375    -0.000046371242    -0.000002841007
       2        0.000058497746     0.000135434211     0.000097214818
       3        0.000101352331    -0.000090064825    -0.000057769753
       4       -0.000157670710    -0.000040164353    -0.000089848748
       5       -0.000029007996     0.000022530689     0.000004997196
       6       -0.000073675895    -0.000086985607    -0.000000265854
       7        0.000023521932    -0.000021589692     0.000005677541
       8        0.000145117404    -0.000095780030     0.000018482607
       9       -0.000011777518     0.000007669207     0.000019031216
      10       -0.000224702312     0.000337378123    -0.000023678223
      11        0.000006593542    -0.000012739612     0.000015309816
      12        0.000138452470    -0.000143430942     0.000044473266
      13        0.000057813340     0.000046099753    -0.000075725766
      14       -0.000009381650    -0.000006564555     0.000040742153
      15        0.000004288981    -0.000012829540    -0.000008334434
      16       -0.000006528293     0.000007408415     0.000012535172

  **** Optimization is complete! (in 5 steps) ****
    Final optimized geometry and variables:
    Molecular point group: c1

    Geometry (in Angstrom), charge = 0, multiplicity = 1:

    H           -3.264333575718     0.676856669918     0.143006572838
    C           -2.216927826423     0.434789291510     0.142777186165
    C           -1.804827849399    -0.888309962074     0.169085413894
    C           -1.266688584472     1.442517499995     0.121054987506
    H           -2.533900658225    -1.678724187187     0.189607952255
    C           -0.456516022162    -1.202954126481     0.164978599051
    H           -1.575256465623     2.472741644669     0.109462717339
    C            0.085003307775     1.137407479608     0.125173637806
    H           -0.121253808829    -2.223405568942     0.186117657082
    C            0.488661325446    -0.189350584246     0.142282751689
    H            0.818024950036     1.923030318897     0.130305316478
    O            1.802695191425    -0.541651456234     0.181093373255
    C            2.613787504280    -0.108656395757    -0.880286129777
    H            2.204353341715    -0.423395376402    -1.834646911395
    H            3.581494629264    -0.566741677364    -0.735714901266
    H            2.732602054932     0.968994789407    -0.884410387962

  Mulliken Charges: (a.u.)
   Center  Symbol    Alpha    Beta     Spin     Total
       1     H     0.40018  0.40018  0.00000  0.19964
       2     C     3.10729  3.10729  0.00000 -0.21458
       3     C     3.09570  3.09570  0.00000 -0.19140
       4     C     3.09525  3.09525  0.00000 -0.19051
       5     H     0.39839  0.39839  0.00000  0.20322
       6     C     3.12239  3.12239  0.00000 -0.24479
       7     H     0.39877  0.39877  0.00000  0.20246
       8     C     3.12669  3.12669  0.00000 -0.25339
       9     H     0.39326  0.39326  0.00000  0.21347
      10     C     2.79537  2.79537  0.00000  0.40925
      11     H     0.39641  0.39641  0.00000  0.20718
      12     O     4.33183  4.33183  0.00000 -0.66366
      13     C     3.08385  3.08385  0.00000 -0.16770
      14     H     0.42113  0.42113  0.00000  0.15774
      15     H     0.40927  0.40927  0.00000  0.18147
      16     H     0.42420  0.42420  0.00000  0.15159

   Total alpha = 29.00000, Total beta = 29.00000, Total charge =  0.00000
