                              Psi4 1.0.54 Driver

  ==> Input File <==

--------------------------------------------------------------------------
set {
	reference rhf
	basis cc-pvtz
}

set_num_threads( 4 )
memory 2 gb

molecule MOL {
0 1

O	 2.889804	 1.317642	 0.285866
C	 2.841259	 0.166180	 -0.000295
C	 1.542794	 -0.614730	 -0.000853
C	 4.084499	 -0.602817	 -0.386589
C	 0.288398	 0.247429	 0.000314
H	 1.557171	 -1.273139	 -0.866508
H	 1.557484	 -1.274998	 0.863344
C	 -0.993089	 -0.581367	 -0.000217
H	 0.305153	 0.900562	 -0.864701
H	 0.305567	 0.898805	 0.866656
C	 -2.258482	 0.271340	 0.000669
H	 -1.002280	 -1.233920	 -0.870484
H	 -1.002061	 -1.235367	 0.868958
C	 -3.544441	 -0.550271	 -0.000253
H	 -2.250545	 0.925250	 -0.867923
H	 -2.250598	 0.923423	 0.870642
C	 -4.804551	 0.308747	 0.000556
H	 -3.553737	 -1.201524	 -0.870151
H	 -3.553831	 -1.203282	 0.868313
H	 -4.842050	 0.949078	 -0.874436
H	 -5.698404	 -0.304480	 -0.000254
H	 -4.842277	 0.947103	 0.876982
H	 3.975892	 -1.012515	 -1.384788
H	 4.943606	 0.049249	 -0.352898
H	 4.232977	 -1.437475	 0.289682

	symmetry c1
}
set optking {
	frozen_dihedral = ("
		1 2 3 6
	")
}

ee,wfn = optimize('scf', return_wfn=True)
oeprop( wfn, 'DIPOLE', 'QUADRUPOLE', 'MULLIKEN_CHARGES')
f=open( 'psi4out.xyz', 'w' )
f.write( "25  " )
f.write( str(ee) + "\n" )
f.write( MOL.save_string_xyz() )
f.close()
--------------------------------------------------------------------------

    Molecular point group: c1
  Charge       = 0
  Multiplicity = 1
  Basis Set: CC-PVTZ
  Basis Set:
  @DF-RHF Final Energy:  -387.27426856566865
    Total Energy =                       -387.2742685656685353
    Molecular point group: c1
  Basis Set: CC-PVTZ
  Basis Set:
  Basis Set: CC-PVTZ
  Basis Set:
  @DF-RHF Final Energy:  -387.27325138301052
    Total Energy =                       -387.2732513830102334
  Basis Set: CC-PVTZ
  Basis Set:
  Basis Set: CC-PVTZ
  Basis Set:
  @DF-RHF Final Energy:  -387.27438972159604
    Total Energy =                       -387.2743897215957531
  Basis Set: CC-PVTZ
  Basis Set:
  Basis Set: CC-PVTZ
  Basis Set:
  @DF-RHF Final Energy:  -387.27448029500039
    Total Energy =                       -387.2744802950007852
  Basis Set: CC-PVTZ
  Basis Set:
  Basis Set: CC-PVTZ
  Basis Set:
  @DF-RHF Final Energy:  -387.27450059089705
    Total Energy =                       -387.2745005908966505
  Basis Set: CC-PVTZ
  Basis Set:
  Basis Set: CC-PVTZ
  Basis Set:
  @DF-RHF Final Energy:  -387.27451108358383
    Total Energy =                       -387.2745110835844571
  Basis Set: CC-PVTZ
  Basis Set:
  Basis Set: CC-PVTZ
  Basis Set:
  @DF-RHF Final Energy:  -387.27451688670646
    Total Energy =                       -387.2745168867063512
  Basis Set: CC-PVTZ
  Basis Set:
  Charge       = 0
  Multiplicity = 1
  Basis Set: CC-PVTZ
  Basis Set:

    Orbital Energies (a.u.)
    -----------------------

    Doubly Occupied:

       1A    -20.538270     2A    -11.320543     3A    -11.230172
       4A    -11.226756     5A    -11.215709     6A    -11.215022
       7A    -11.213682     8A    -11.211725     9A    -11.206570
      10A     -1.398568    11A     -1.095435    12A     -1.057836
      13A     -1.015735    14A     -0.970341    15A     -0.891798
      16A     -0.815008    17A     -0.791633    18A     -0.731027
      19A     -0.663228    20A     -0.653589    21A     -0.633788
      22A     -0.625562    23A     -0.597385    24A     -0.585397
      25A     -0.568204    26A     -0.560312    27A     -0.541659
      28A     -0.528154    29A     -0.513338    30A     -0.491332
      31A     -0.490249    32A     -0.473852    33A     -0.464183
      34A     -0.463254    35A     -0.452980    36A     -0.400768

  @DF-RHF Final Energy:  -387.27451703480529

   => Energetics <=

    Nuclear Repulsion Energy =            439.0921356120683186
    One-Electron Energy =               -1395.0271693995014175
    Two-Electron Energy =                 568.6605167526272453
    DFT Exchange-Correlation Energy =       0.0000000000000000
    Empirical Dispersion Energy =           0.0000000000000000
    PCM Polarization Energy =               0.0000000000000000
    EFP Energy =                            0.0000000000000000
    Total Energy =                       -387.2745170348058537
    Molecular point group: c1
  Basis Set: CC-PVTZ
  Basis Set:

  -Total Gradient:
     Atom            X                  Y                   Z
    ------   -----------------  -----------------  -----------------
       1        0.000104610062    -0.000151041986     0.000735780461
       2       -0.000065731284     0.000101072690    -0.000944463301
       3       -0.000351809725     0.000549083401    -0.000178405134
       4        0.000012137028     0.000013189420     0.000014061623
       5       -0.000001351324     0.000013487563    -0.000015848743
       6        0.000315632659    -0.000513232508     0.000413215758
       7        0.000008300928    -0.000001436604     0.000000465390
       8       -0.000000493963    -0.000004431137    -0.000014186232
       9       -0.000003630157     0.000001334927    -0.000003642975
      10        0.000000334901     0.000001456256    -0.000004679888
      11        0.000000481798     0.000003345575     0.000003327446
      12       -0.000002451159     0.000003694238    -0.000006120874
      13        0.000000326403    -0.000005269506    -0.000004514804
      14        0.000002375129    -0.000003840362     0.000013668866
      15        0.000003568036    -0.000005794791    -0.000001362347
      16       -0.000002157102     0.000006828199    -0.000000453942
      17        0.000002633565     0.000001821614     0.000002569755
      18        0.000001901299     0.000003631432     0.000000071952
      19       -0.000002848917    -0.000004602181     0.000000721145
      20        0.000000388750     0.000000425378    -0.000000485348
      21        0.000002458229    -0.000000692544    -0.000000252998
      22       -0.000000861372     0.000000102096     0.000000236481
      23        0.000008301416     0.000000070574     0.000037031836
      24       -0.000037043346    -0.000040680191    -0.000015438919
      25        0.000004928140     0.000031478454    -0.000031295209

  **** Optimization is complete! (in 8 steps) ****
    Final optimized geometry and variables:
    Molecular point group: c1

    Geometry (in Angstrom), charge = 0, multiplicity = 1:

    O            2.889818931831     1.324066532758     0.176598734171
    C            2.840362407566     0.168677083684    -0.093032486723
    C            1.543047734060    -0.613790247240    -0.065726026514
    C            4.082039731888    -0.608030236755    -0.466249757403
    C            0.287721837657     0.246379760357    -0.022234273872
    H            1.528078977650    -1.290676101206    -0.915536706391
    H            1.593123057282    -1.256654510700     0.811818213274
    C           -0.991384506216    -0.583632724703     0.040077900744
    H            0.265684784793     0.888323823972    -0.896936428912
    H            0.341743587078     0.908049710103     0.833457235044
    C           -2.256864285856     0.267757228358     0.083960110334
    H           -1.036421431180    -1.247326111098    -0.820584362415
    H           -0.962058885986    -1.226262274639     0.917203630309
    C           -3.540215131532    -0.555149803711     0.151074589934
    H           -2.288178081041     0.909087192081    -0.793541286707
    H           -2.211881849553     0.932302330858     0.943253891438
    C           -4.800506990274     0.302455942514     0.194804744967
    H           -3.586502088953    -1.218869702445    -0.708175571953
    H           -3.510451592916    -1.195586453296     1.028491305145
    H           -4.877507807493     0.930014301400    -0.686863999363
    H           -5.692471836732    -0.311705716892     0.242102568714
    H           -4.800798024376     0.953393300991     1.062743105723
    H            4.041703383975    -0.862849924216    -1.520238294850
    H            4.961054139844    -0.011440833981    -0.276802125262
    H            4.136735417509    -1.537841372996     0.088239520591

  Mulliken Charges: (a.u.)
   Center  Symbol    Alpha    Beta     Spin     Total
       1     O     4.17201  4.17201  0.00000 -0.34401
       2     C     2.86143  2.86143  0.00000  0.27715
       3     C     3.11432  3.11432  0.00000 -0.22865
       4     C     3.15217  3.15217  0.00000 -0.30433
       5     C     3.08442  3.08442  0.00000 -0.16884
       6     H     0.44544  0.44544  0.00000  0.10911
       7     H     0.44467  0.44467  0.00000  0.11066
       8     C     3.08988  3.08988  0.00000 -0.17975
       9     H     0.44941  0.44941  0.00000  0.10117
      10     H     0.44222  0.44222  0.00000  0.11556
      11     C     3.08620  3.08620  0.00000 -0.17240
      12     H     0.45620  0.45620  0.00000  0.08760
      13     H     0.45551  0.45551  0.00000  0.08898
      14     C     3.08432  3.08432  0.00000 -0.16865
      15     H     0.45419  0.45419  0.00000  0.09163
      16     H     0.45344  0.45344  0.00000  0.09313
      17     C     3.15037  3.15037  0.00000 -0.30073
      18     H     0.45527  0.45527  0.00000  0.08946
      19     H     0.45503  0.45503  0.00000  0.08994
      20     H     0.45491  0.45491  0.00000  0.09017
      21     H     0.44865  0.44865  0.00000  0.10269
      22     H     0.45465  0.45465  0.00000  0.09069
      23     H     0.44877  0.44877  0.00000  0.10246
      24     H     0.43565  0.43565  0.00000  0.12869
      25     H     0.45086  0.45086  0.00000  0.09827

   Total alpha = 36.00000, Total beta = 36.00000, Total charge =  0.00000

*** Psi4 exiting successfully. Buy a developer a beer!
