                              Psi4 1.0.54 Driver

  ==> Input File <==

--------------------------------------------------------------------------
set {
	reference rhf
	basis cc-pvtz
}

set_num_threads( 4 )
memory 2 gb

molecule MOL {
0 1

H	 -1.088256	 -1.364742	 0.152233
O	 -1.432053	 -0.565244	 -0.200812
C	 -0.727158	 0.534527	 0.310686
C	 0.680222	 0.664433	 -0.252229
H	 -1.306802	 1.408001	 0.044211
H	 -0.690821	 0.490158	 1.397609
C	 0.985841	 -0.311260	 -1.384778
H	 0.822382	 1.683123	 -0.597615
H	 1.382481	 0.504743	 0.561393
H	 0.342216	 -0.141793	 -2.241021
H	 2.007802	 -0.201053	 -1.726836
H	 0.855319	 -1.340244	 -1.063665

	symmetry c1
}
set optking {
	frozen_dihedral = ("
		8 4 3 2
	")
}

ee,wfn = optimize('scf', return_wfn=True)
oeprop( wfn, 'DIPOLE', 'QUADRUPOLE', 'MULLIKEN_CHARGES')
f=open( 'psi4out.xyz', 'w' )
f.write( "12  " )
f.write( str(ee) + "\n" )
f.write( MOL.save_string_xyz() )
f.close()
--------------------------------------------------------------------------

    Molecular point group: c1
  Charge       = 0
  Multiplicity = 1
  Basis Set: CC-PVTZ
  Basis Set:
  @DF-RHF Final Energy:  -193.18164788922007
    Total Energy =                       -193.1816478892199882
    Molecular point group: c1
  Basis Set: CC-PVTZ
  Basis Set:
  Basis Set: CC-PVTZ
  Basis Set:
  @DF-RHF Final Energy:  -193.18235334017157
    Total Energy =                       -193.1823533401715736
  Basis Set: CC-PVTZ
  Basis Set:
  Basis Set: CC-PVTZ
  Basis Set:
  @DF-RHF Final Energy:  -193.18298803843794
    Total Energy =                       -193.1829880384378271
  Basis Set: CC-PVTZ
  Basis Set:
  Basis Set: CC-PVTZ
  Basis Set:
  @DF-RHF Final Energy:  -193.18300629357148
    Total Energy =                       -193.1830062935712817
  Basis Set: CC-PVTZ
  Basis Set:
  Basis Set: CC-PVTZ
  Basis Set:
  @DF-RHF Final Energy:  -193.18300991081603
    Total Energy =                       -193.1830099108160255
  Basis Set: CC-PVTZ
  Basis Set:
  Charge       = 0
  Multiplicity = 1
  Basis Set: CC-PVTZ
  Basis Set:

    Orbital Energies (a.u.)
    -----------------------

    Doubly Occupied:

       1A    -20.546772     2A    -11.266399     3A    -11.216640
       4A    -11.207892     5A     -1.364424     6A     -1.044184
       7A     -0.925871     8A     -0.808227     9A     -0.690226
      10A     -0.631455    11A     -0.625600    12A     -0.575890
      13A     -0.527611    14A     -0.511701    15A     -0.493073
      16A     -0.457599    17A     -0.433450

  @DF-RHF Final Energy:  -193.18301007157405

   => Energetics <=

    Nuclear Repulsion Energy =            133.4333682337472453
    One-Electron Energy =                -526.5787302323221866
    Two-Electron Energy =                 199.9623519270011229
    DFT Exchange-Correlation Energy =       0.0000000000000000
    Empirical Dispersion Energy =           0.0000000000000000
    PCM Polarization Energy =               0.0000000000000000
    EFP Energy =                            0.0000000000000000
    Total Energy =                       -193.1830100715737899
    Molecular point group: c1
  Basis Set: CC-PVTZ
  Basis Set:

  -Total Gradient:
     Atom            X                  Y                   Z
    ------   -----------------  -----------------  -----------------
       1       -0.000011463385    -0.000000344122    -0.000005870294
       2       -0.001001656534     0.001412282632    -0.002092828273
       3        0.001130231260    -0.002227502387     0.002218029428
       4        0.001028125068     0.001795415101     0.002896164042
       5        0.000016463464     0.000019441925     0.000008903849
       6        0.000017073932     0.000006414484    -0.000010682513
       7       -0.000011450107    -0.000001674748    -0.000012539798
       8       -0.001160588787    -0.001012417072    -0.003014185332
       9        0.000002506589     0.000008467770     0.000011676735
      10        0.000011421305    -0.000007841361    -0.000001524192
      11       -0.000017287637    -0.000006555416     0.000007164362
      12       -0.000003375168     0.000014313193    -0.000004308012

  **** Optimization is complete! (in 6 steps) ****
    Final optimized geometry and variables:
    Molecular point group: c1

    Geometry (in Angstrom), charge = 0, multiplicity = 1:

    H           -0.945491629991    -1.419194959641     0.615666001991
    O           -1.298235652211    -0.632772646192     0.242138183197
    C           -0.578027477565     0.486351027549     0.685329065614
    C            0.844489231792     0.624825286891     0.096313347475
    H           -1.175419635103     1.335708980486     0.385174571227
    H           -0.533618638852     0.499928889029     1.770041285476
    C            1.159356138083    -0.335979744089    -1.048994497041
    H            0.957301805522     1.634310944982    -0.283393215172
    H            1.584586839258     0.498708799939     0.879317533794
    H            0.448357394223    -0.233426559653    -1.858360679610
    H            2.149887973765    -0.132724733775    -1.439419245923
    H            1.141368420285    -1.370883033869    -0.728619472620

  Mulliken Charges: (a.u.)
   Center  Symbol    Alpha    Beta     Spin     Total
       1     H     0.39484  0.39484  0.00000  0.21033
       2     O     4.19953  4.19953  0.00000 -0.39906
       3     C     2.97490  2.97490  0.00000  0.05019
       4     C     3.10692  3.10692  0.00000 -0.21385
       5     H     0.45592  0.45592  0.00000  0.08817
       6     H     0.46385  0.46385  0.00000  0.07229
       7     C     3.13979  3.13979  0.00000 -0.27958
       8     H     0.45284  0.45284  0.00000  0.09432
       9     H     0.45240  0.45240  0.00000  0.09519
      10     H     0.44705  0.44705  0.00000  0.10589
      11     H     0.45015  0.45015  0.00000  0.09969
      12     H     0.46180  0.46180  0.00000  0.07641

   Total alpha = 17.00000, Total beta = 17.00000, Total charge =  0.00000

*** Psi4 exiting successfully. Buy a developer a beer!
