  ==> Input File <==

--------------------------------------------------------------------------
set {
	reference rhf
	basis cc-pvtz
}

set_num_threads( 4 )
memory 2 gb

molecule MOL {
0 1

H	 -3.144994	 -1.202467	 -0.018751
O	 -2.321472	 -0.864941	 -0.318626
C	 -2.021813	 0.336996	 0.342658
C	 -0.669613	 0.837286	 -0.127252
H	 -2.780861	 1.084746	 0.127159
H	 -2.006390	 0.184138	 1.420053
C	 0.490865	 -0.082543	 0.241244
H	 -0.708709	 0.967192	 -1.204587
H	 -0.507562	 1.822272	 0.303070
C	 1.839800	 0.429565	 -0.255472
H	 0.305636	 -1.070211	 -0.165276
H	 0.527397	 -0.195943	 1.322876
C	 2.386141	 1.582229	 0.580390
H	 2.555991	 -0.387601	 -0.252033
H	 1.747272	 0.748328	 -1.290613
H	 2.523155	 1.283792	 1.614352
H	 3.344527	 1.921652	 0.204101
H	 1.708090	 2.429328	 0.569693

	symmetry c1
}
set optking {
	frozen_dihedral = ("
		14 10 7 11
	")
}

ee = optimize('scf')
oeprop('DIPOLE', 'QUADRUPOLE', 'MULLIKEN_CHARGES')
f=open( 'psi4out.xyz', 'w' )
f.write( "18  " )
f.write( str(ee) + "\n" )
f.write( MOL.save_string_xyz() )
f.close()
--------------------------------------------------------------------------

    Molecular point group: c1
  Charge       = 0
  Multiplicity = 1
  Basis Set: CC-PVTZ
  Basis Set:
  @DF-RHF Final Energy:  -271.28463736635206
    Total Energy =                       -271.2846373663519444
    Molecular point group: c1
  Basis Set: CC-PVTZ
  Basis Set:
  Basis Set: CC-PVTZ
  Basis Set:
  @DF-RHF Final Energy:  -271.28485745787867
    Total Energy =                       -271.2848574578788430
  Basis Set: CC-PVTZ
  Basis Set:
  Basis Set: CC-PVTZ
  Basis Set:
  @DF-RHF Final Energy:  -271.28488456492494
    Total Energy =                       -271.2848845649247664
  Basis Set: CC-PVTZ
  Basis Set:
  Charge       = 0
  Multiplicity = 1
  Basis Set: CC-PVTZ
  Basis Set:

    Orbital Energies (a.u.)
    -----------------------

    Doubly Occupied:

       1A    -20.546184     2A    -11.265964     3A    -11.210271
       4A    -11.209306     5A    -11.205024     6A    -11.203913
       7A     -1.364120     8A     -1.076139     9A     -1.008224
      10A     -0.916041    11A     -0.828144    12A     -0.775871
      13A     -0.708504    14A     -0.636952    15A     -0.615612
      16A     -0.609836    17A     -0.570840    18A     -0.551213
      19A     -0.523470    20A     -0.506383    21A     -0.494716
      22A     -0.462387    23A     -0.457509    24A     -0.449966
      25A     -0.430766

  @DF-RHF Final Energy:  -271.28488540085277

   => Energetics <=

    Nuclear Repulsion Energy =            251.2200374548779394
    One-Electron Energy =                -865.7551332282581598
    Two-Electron Energy =                 343.2502103725275333
    DFT Exchange-Correlation Energy =       0.0000000000000000
    Empirical Dispersion Energy =           0.0000000000000000
    PCM Polarization Energy =               0.0000000000000000
    EFP Energy =                            0.0000000000000000
    Total Energy =                       -271.2848854008527155
    Molecular point group: c1
  Basis Set: CC-PVTZ
  Basis Set:

  -Total Gradient:
     Atom            X                  Y                   Z
    ------   -----------------  -----------------  -----------------
       1        0.000007887692     0.000014237812     0.000009408203
       2        0.000042220591    -0.000025884155     0.000014495190
       3       -0.000034272119     0.000036096031    -0.000043374098
       4        0.000001245457    -0.000001472099     0.000032670860
       5       -0.000019230978     0.000013163458     0.000009153161
       6        0.000011399543    -0.000013565038    -0.000022715883
       7       -0.001058785746     0.000844772913    -0.002104302213
       8        0.000007075893    -0.000008167407     0.000003326928
       9       -0.000005147137    -0.000027887230     0.000001799366
      10        0.000731789741     0.000337650949     0.002343170752
      11        0.000776188911    -0.000737875454     0.001425721225
      12       -0.000003610014    -0.000003443158     0.000002662934
      13       -0.000020090361    -0.000005305166     0.000026286187
      14       -0.000448120501    -0.000374081938    -0.001658144287
      15        0.000002343840     0.000004952445    -0.000010891271
      16       -0.000009228195    -0.000014269929     0.000003254084
      17        0.000003441783    -0.000016920979    -0.000022384091
      18        0.000014891598    -0.000022001056    -0.000010137046

  **** Optimization is complete! (in 4 steps) ****
    Final optimized geometry and variables:
    Molecular point group: c1

    Geometry (in Angstrom), charge = 0, multiplicity = 1:

    H           -3.031446797883    -1.579312801900    -0.115405016799
    O           -2.211776613156    -1.228119939258    -0.409823282580
    C           -1.929797464334    -0.029071891457     0.264195575433
    C           -0.582680787631     0.494577149607    -0.195570867296
    H           -2.697998224454     0.710776317934     0.053781647677
    H           -1.915660262237    -0.192616979306     1.339982222186
    C            0.584503915676    -0.422864558116     0.161863869042
    H           -0.619974782045     0.635422759457    -1.271652388834
    H           -0.441055668978     1.475857992879     0.246823453815
    C            1.947743338213     0.079853289963    -0.320268924505
    H            0.399922910812    -1.406498544233    -0.251157834998
    H            0.616854748040    -0.554194863400     1.242057734744
    C            2.521342629202     1.235910667166     0.494308798656
    H            2.649720486251    -0.747816989585    -0.308216636865
    H            1.867587784865     0.379274827487    -1.362281599383
    H            2.646999297925     0.953219012184     1.534460904534
    H            3.491841888419     1.534090974975     0.114083367875
    H            1.879127658834     2.108661418234     0.465066074342

  Mulliken Charges: (a.u.)
   Center  Symbol    Alpha    Beta     Spin     Total
       1     H     0.39573  0.39573  0.00000  0.20854
       2     O     4.19860  4.19860  0.00000 -0.39720
       3     C     2.97272  2.97272  0.00000  0.05456
       4     C     3.09088  3.09088  0.00000 -0.18175
       5     H     0.46524  0.46524  0.00000  0.06952
       6     H     0.47331  0.47331  0.00000  0.05337
       7     C     3.09488  3.09488  0.00000 -0.18976
       8     H     0.45226  0.45226  0.00000  0.09547
       9     H     0.45431  0.45431  0.00000  0.09137
      10     C     3.09065  3.09065  0.00000 -0.18130
      11     H     0.43898  0.43898  0.00000  0.12204
      12     H     0.45994  0.45994  0.00000  0.08012
      13     C     3.14947  3.14947  0.00000 -0.29894
      14     H     0.44831  0.44831  0.00000  0.10339
      15     H     0.45576  0.45576  0.00000  0.08848
      16     H     0.45572  0.45572  0.00000  0.08856
      17     H     0.44758  0.44758  0.00000  0.10485
      18     H     0.45566  0.45566  0.00000  0.08867

   Total alpha = 25.00000, Total beta = 25.00000, Total charge = -0.00000
