                              Psi4 1.0.54 Driver

  ==> Input File <==

--------------------------------------------------------------------------
set {
	reference rhf
	basis cc-pvtz
}

set_num_threads( 4 )
memory 2 gb

molecule MOL {
0 1

H	 -1.024821	 -0.546942	 1.316451
C	 -0.214332	 0.164388	 1.205659
N	 0.526300	 -0.128137	 0.000000
H	 0.432388	 0.062119	 2.067828
H	 -0.648934	 1.166110	 1.221296
C	 -0.247113	 0.037112	 -1.209233
H	 1.346317	 0.437156	 -0.040925
H	 -0.996493	 -0.743733	 -1.271440
H	 0.397975	 -0.057351	 -2.073512
H	 -0.763794	 0.997171	 -1.271673

	symmetry c1
}
set optking {
	frozen_dihedral = ("
		2 3 6 8
	")
}

ee,wfn = optimize('scf', return_wfn=True)
oeprop( wfn, 'DIPOLE', 'QUADRUPOLE', 'MULLIKEN_CHARGES')
f=open( 'psi4out.xyz', 'w' )
f.write( "10  " )
f.write( str(ee) + "\n" )
f.write( MOL.save_string_xyz() )
f.close()
--------------------------------------------------------------------------

    Molecular point group: c1
  Charge       = 0
  Multiplicity = 1
  Basis Set: CC-PVTZ
  Basis Set:
  @DF-RHF Final Energy:  -134.29297271144435
    Total Energy =                       -134.2929727114443494
    Molecular point group: c1
  Basis Set: CC-PVTZ
  Basis Set:
  Basis Set: CC-PVTZ
  Basis Set:
  @DF-RHF Final Energy:  -134.29298341338387
    Total Energy =                       -134.2929834133838085
  Basis Set: CC-PVTZ
  Basis Set:
  Charge       = 0
  Multiplicity = 1
  Basis Set: CC-PVTZ
  Basis Set:

    Orbital Energies (a.u.)
    -----------------------

    Doubly Occupied:

       1A    -15.532740     2A    -11.234293     3A    -11.234274
       4A     -1.201144     5A     -0.948416     6A     -0.854561
       7A     -0.662590     8A     -0.614036     9A     -0.592442
      10A     -0.539740    11A     -0.510012    12A     -0.506744
      13A     -0.364914

  @DF-RHF Final Energy:  -134.29298424113381

   => Energetics <=

    Nuclear Repulsion Energy =             84.7445230583644644
    One-Electron Energy =                -348.4831999285013353
    Two-Electron Energy =                 129.4456926290031049
    DFT Exchange-Correlation Energy =       0.0000000000000000
    Empirical Dispersion Energy =           0.0000000000000000
    PCM Polarization Energy =               0.0000000000000000
    EFP Energy =                            0.0000000000000000
    Total Energy =                       -134.2929842411337802
    Molecular point group: c1
  Basis Set: CC-PVTZ
  Basis Set:

  -Total Gradient:
     Atom            X                  Y                   Z
    ------   -----------------  -----------------  -----------------
       1       -0.000012301427     0.000000714084     0.000024435036
       2        0.000299784050     0.000732160477    -0.000088594235
       3       -0.000233397093    -0.001183311955    -0.000072904936
       4       -0.000010563045     0.000005886370     0.000011963011
       5       -0.000008935929     0.000006147952     0.000002888041
       6       -0.000656147328     0.001069410643     0.000692614574
       7       -0.000055052723    -0.000035336190    -0.000032730739
       8        0.000703392244    -0.000626118101    -0.000520969851
       9       -0.000024537692    -0.000004534453    -0.000007679229
      10       -0.000002241056     0.000034981175    -0.000009021673

  **** Optimization is complete! (in 3 steps) ****
    Final optimized geometry and variables:
    Molecular point group: c1

    Geometry (in Angstrom), charge = 0, multiplicity = 1:

    H           -1.036516636765    -0.589318170579     1.320187182182
    C           -0.224997857640     0.120881410446     1.208391135623
    N            0.513978639509    -0.171203116659     0.001452199372
    H            0.422420743814     0.017340589546     2.069881801187
    H           -0.658389865197     1.122992974887     1.224095209849
    C           -0.261925516337    -0.006351567776    -1.206686364823
    H            1.329204108933     0.400768703770    -0.040573446443
    H           -1.012197096292    -0.786399566728    -1.270760043375
    H            0.382871967389    -0.107456175070    -2.070570929393
    H           -0.771079273640     0.957140498225    -1.272735554602

  Mulliken Charges: (a.u.)
   Center  Symbol    Alpha    Beta     Spin     Total
       1     H     0.45708  0.45708  0.00000  0.08583
       2     C     3.08130  3.08130  0.00000 -0.16260
       3     N     3.62825  3.62825  0.00000 -0.25650
       4     H     0.45246  0.45246  0.00000  0.09508
       5     H     0.47459  0.47459  0.00000  0.05083
       6     C     3.08012  3.08012  0.00000 -0.16025
       7     H     0.44074  0.44074  0.00000  0.11853
       8     H     0.45653  0.45653  0.00000  0.08694
       9     H     0.45321  0.45321  0.00000  0.09358
      10     H     0.47572  0.47572  0.00000  0.04856

   Total alpha = 13.00000, Total beta = 13.00000, Total charge =  0.00000

*** Psi4 exiting successfully. Buy a developer a beer!
