  ==> Input File <==

--------------------------------------------------------------------------
set {
	reference rhf
	basis 6-31G*
}

set_num_threads( 1 )
memory 2 gb

molecule MOL {
0 1

H	 -3.161837	 0.500524	 -0.000234
C	 -2.367097	 -0.232926	 -0.000000
O	 -1.158440	 0.455814	 -0.000122
H	 -2.468853	 -0.861886	 -0.882833
H	 -2.468942	 -0.861421	 0.883154
C	 -0.029776	 -0.365156	 0.000148
C	 1.212077	 0.508798	 0.025998
H	 -0.027387	 -1.000336	 -0.886666
H	 -0.046152	 -1.025542	 0.868208
C	 2.502583	 -0.309415	 0.027715
H	 1.187183	 1.167870	 -0.836362
H	 1.168636	 1.142822	 0.906240
H	 2.577348	 -0.933710	 -0.858338
H	 3.372114	 0.338965	 0.046805
H	 2.558388	 -0.959564	 0.896390

	symmetry c1
}
set optking {
	frozen_dihedral = ("
		6 3 2 4,
		11 7 6 8
	")
}

ee = energy('scf')
oeprop('DIPOLE', 'QUADRUPOLE', 'MULLIKEN_CHARGES')
f=open( 'psi4out.xyz', 'w' )
f.write( "15  " )
f.write( str(ee) + "\n" )
f.write( MOL.save_string_xyz() )
f.close()
--------------------------------------------------------------------------

    Molecular point group: c1

    Geometry (in Angstrom), charge = 0, multiplicity = 1:

       Center              X                  Y                   Z               Mass
    ------------   -----------------  -----------------  -----------------  -----------------
           H         -3.161780924919     0.500597739834    -0.010788587126     1.007825032070
           C         -2.367040924919    -0.232852260166    -0.010554587126    12.000000000000
           O         -1.158383924919     0.455887739834    -0.010676587126    15.994914619560
           H         -2.468796924919    -0.861812260166    -0.893387587126     1.007825032070
           H         -2.468885924919    -0.861347260166     0.872599412874     1.007825032070
           C         -0.029719924919    -0.365082260166    -0.010406587126    12.000000000000
           C          1.212133075081     0.508871739834     0.015443412874    12.000000000000
           H         -0.027330924919    -1.000262260166    -0.897220587126     1.007825032070
           H         -0.046095924919    -1.025468260166     0.857653412874     1.007825032070
           C          2.502639075081    -0.309341260166     0.017160412874    12.000000000000
           H          1.187239075081     1.167943739834    -0.846916587126     1.007825032070
           H          1.168692075081     1.142895739834     0.895685412874     1.007825032070
           H          2.577404075081    -0.933636260166    -0.868892587126     1.007825032070
           H          3.372170075081     0.339038739834     0.036250412874     1.007825032070
           H          2.558444075081    -0.959490260166     0.885835412874     1.007825032070

  Charge       = 0
  Multiplicity = 1
  Basis Set: 6-31G*
  Basis Set:

    Orbital Energies (a.u.)
    -----------------------

    Doubly Occupied:

       1A    -20.553475     2A    -11.266265     3A    -11.264017
       4A    -11.214274     5A    -11.212939     6A     -1.378404
       7A     -1.057291     8A     -0.955345     9A     -0.877277
      10A     -0.809104    11A     -0.674902    12A     -0.654058
      13A     -0.630259    14A     -0.607624    15A     -0.565522
      16A     -0.541218    17A     -0.502823    18A     -0.489091
      19A     -0.478062    20A     -0.461444    21A     -0.413862

  @DF-RHF Final Energy:  -232.13945189696989

   => Energetics <=

    Nuclear Repulsion Energy =            189.7311975341242487
    One-Electron Energy =                -690.5267963702547149
    Two-Electron Energy =                 268.6561469391594983
    DFT Exchange-Correlation Energy =       0.0000000000000000
    Empirical Dispersion Energy =           0.0000000000000000
    PCM Polarization Energy =               0.0000000000000000
    EFP Energy =                            0.0000000000000000
    Total Energy =                       -232.1394518969709679

  Mulliken Charges: (a.u.)
   Center  Symbol    Alpha    Beta     Spin     Total
       1     H     0.41215  0.41215  0.00000  0.17569
       2     C     3.07932  3.07932  0.00000 -0.15864
       3     O     4.30579  4.30579  0.00000 -0.61158
       4     H     0.43044  0.43044  0.00000  0.13912
       5     H     0.43039  0.43039  0.00000  0.13922
       6     C     2.98151  2.98151  0.00000  0.03698
       7     C     3.15983  3.15983  0.00000 -0.31967
       8     H     0.43335  0.43335  0.00000  0.13329
       9     H     0.43353  0.43353  0.00000  0.13295
      10     C     3.24791  3.24791  0.00000 -0.49581
      11     H     0.41430  0.41430  0.00000  0.17141
      12     H     0.41438  0.41438  0.00000  0.17125
      13     H     0.42083  0.42083  0.00000  0.15835
      14     H     0.41541  0.41541  0.00000  0.16919
      15     H     0.42087  0.42087  0.00000  0.15826

   Total alpha = 21.00000, Total beta = 21.00000, Total charge = -0.00000
