  ==> Input File <==

--------------------------------------------------------------------------
set {
	reference rhf
	basis cc-pvtz
}

set_num_threads( 4 )
memory 2 gb

molecule MOL {
0 1

H	 0.000319	 0.067619	 2.122832
C	 0.000184	 -0.484981	 1.207864
C	 0.000181	 -1.865081	 1.200238
C	 0.000000	 0.179985	 0.000046
H	 0.000325	 -2.400844	 2.128932
C	 -0.000003	 -2.552036	 -0.000010
N	 0.000000	 1.644631	 0.000076
C	 -0.000183	 -0.484932	 -1.207800
H	 -0.000000	 -3.625035	 -0.000032
C	 -0.000184	 -1.865032	 -1.200230
O	 1.050559	 2.194174	 -0.000073
O	 -1.050559	 2.194174	 -0.000074
H	 -0.000326	 0.067706	 -2.122744
H	 -0.000323	 -2.400757	 -2.128946

	symmetry c1
}
set optking {
	frozen_dihedral = ("
		2 4 7 11
	")
}

ee = optimize('scf')
oeprop('DIPOLE', 'QUADRUPOLE', 'MULLIKEN_CHARGES')
f=open( 'psi4out.xyz', 'w' )
f.write( "14  " )
f.write( str(ee) + "\n" )
f.write( MOL.save_string_xyz() )
f.close()
--------------------------------------------------------------------------

    Molecular point group: c1
  Charge       = 0
  Multiplicity = 1
  Basis Set: CC-PVTZ
  Basis Set:
  @DF-RHF Final Energy:  -434.31969762657815
    Total Energy =                       -434.3196976265778630
    Molecular point group: c1
  Basis Set: CC-PVTZ
  Basis Set:
  Basis Set: CC-PVTZ
  Basis Set:
  @DF-RHF Final Energy:  -434.31986782818529
    Total Energy =                       -434.3198678281851244
  Basis Set: CC-PVTZ
  Basis Set:
  Basis Set: CC-PVTZ
  Basis Set:
  @DF-RHF Final Energy:  -434.31947533393713
    Total Energy =                       -434.3194753339371346
  Basis Set: CC-PVTZ
  Basis Set:
  Basis Set: CC-PVTZ
  Basis Set:
  @DF-RHF Final Energy:  -434.31988445942255
    Total Energy =                       -434.3198844594228376
  Basis Set: CC-PVTZ
  Basis Set:
  Basis Set: CC-PVTZ
  Basis Set:
  @DF-RHF Final Energy:  -434.31988971751196
    Total Energy =                       -434.3198897175118418
  Basis Set: CC-PVTZ
  Basis Set:
  Charge       = 0
  Multiplicity = 1
  Basis Set: CC-PVTZ
  Basis Set:

    Orbital Energies (a.u.)
    -----------------------

    Doubly Occupied:

       1A    -20.598814     2A    -20.598758     3A    -15.848444
       4A    -11.308460     5A    -11.267274     6A    -11.267236
       7A    -11.260924     8A    -11.260647     9A    -11.257718
      10A     -1.646075    11A     -1.429254    12A     -1.206534
      13A     -1.096644    14A     -1.056897    15A     -0.959224
      16A     -0.875167    17A     -0.831653    18A     -0.786431
      19A     -0.740730    20A     -0.738954    21A     -0.718381
      22A     -0.651705    23A     -0.650434    24A     -0.625844
      25A     -0.561892    26A     -0.553449    27A     -0.533677
      28A     -0.501174    29A     -0.485302    30A     -0.459752
      31A     -0.371402    32A     -0.370595

  @DF-RHF Final Energy:  -434.31992003835973

   => Energetics <=

    Nuclear Repulsion Energy =            417.2452523628026597
    One-Electron Energy =               -1418.0914585342793544
    Two-Electron Energy =                 566.5262861331173099
    DFT Exchange-Correlation Energy =       0.0000000000000000
    Empirical Dispersion Energy =           0.0000000000000000
    PCM Polarization Energy =               0.0000000000000000
    EFP Energy =                            0.0000000000000000
    Total Energy =                       -434.3199200383594416
    Molecular point group: c1
  Basis Set: CC-PVTZ
  Basis Set:

  -Total Gradient:
     Atom            X                  Y                   Z
    ------   -----------------  -----------------  -----------------
       1        0.000001285930     0.000004776264     0.000021593776
       2        0.000005551563    -0.000003751486    -0.000018879562
       3        0.000001128405    -0.000000103280     0.000014791424
       4       -0.000019877900     0.000039064013     0.000024872447
       5       -0.000001014974    -0.000006748498     0.000010128955
       6        0.000000126951    -0.000027518296     0.000000744173
       7        0.000018153564    -0.000138492489    -0.000053480636
       8        0.000006102099    -0.000003155349     0.000012133057
       9        0.000000242109     0.000013413568    -0.000000299259
      10       -0.000000643694     0.000001590113    -0.000015419657
      11        0.000034042016     0.000060381147     0.000019263856
      12       -0.000044646972     0.000063122055     0.000016319155
      13       -0.000000796378     0.000004705862    -0.000021349536
      14        0.000000347280    -0.000007283624    -0.000010418195

  **** Optimization is complete! (in 6 steps) ****
    Final optimized geometry and variables:
    Molecular point group: c1

    Geometry (in Angstrom), charge = 0, multiplicity = 1:

    H            0.000253301646     0.073032447642     2.126623754581
    C            0.000117344282    -0.477915565110     1.207011495633
    C            0.000150359078    -1.859449264325     1.198803845889
    C           -0.000091074714     0.177649790244    -0.000023156695
    H            0.000282409095    -2.394671995278     2.128044832328
    C            0.000015180433    -2.547677428435    -0.000019511427
    N            0.000010235221     1.644091627556    -0.000046951551
    C           -0.000170239373    -0.477929012097    -1.207060886053
    H            0.000047093412    -3.620236977658    -0.000016282563
    C           -0.000143590340    -1.859459388155    -1.198851218461
    O            1.054262777325     2.183229318352    -0.000277506223
    O           -1.054185515053     2.183361528204     0.000430069345
    H           -0.000273914652     0.073017440051    -2.126673992547
    H           -0.000224430789    -2.394692444987    -2.128087055569

  Mulliken Charges: (a.u.)
   Center  Symbol    Alpha    Beta     Spin     Total
       1     H     0.41507  0.41507  0.00000  0.16987
       2     C     3.08382  3.08382  0.00000 -0.16764
       3     C     3.06378  3.06378  0.00000 -0.12757
       4     C     2.92378  2.92378  0.00000  0.15243
       5     H     0.41736  0.41736  0.00000  0.16529
       6     C     3.07911  3.07911  0.00000 -0.15822
       7     N     3.29353  3.29353  0.00000  0.41293
       8     C     3.08382  3.08382  0.00000 -0.16765
       9     H     0.41804  0.41804  0.00000  0.16392
      10     C     3.06378  3.06378  0.00000 -0.12757
      11     O     4.16273  4.16273  0.00000 -0.32547
      12     O     4.16274  4.16274  0.00000 -0.32548
      13     H     0.41507  0.41507  0.00000  0.16986
      14     H     0.41736  0.41736  0.00000  0.16529

   Total alpha = 32.00000, Total beta = 32.00000, Total charge = -0.00000
