  ==> Input File <==

--------------------------------------------------------------------------
set {
	reference rhf
	basis cc-pvtz
}

set_num_threads( 4 )
memory 2 gb

molecule MOL {
0 1

H	 2.427871	 -0.135970	 -0.835693
C	 1.804491	 -0.767375	 -0.212890
N	 0.526300	 -0.128137	 0.000000
H	 2.312125	 -0.897837	 0.734384
H	 1.731641	 -1.742650	 -0.698795
C	 -0.247113	 0.037112	 -1.209233
H	 -0.001344	 -0.639054	 0.673955
H	 -0.996493	 -0.743733	 -1.271440
H	 0.397975	 -0.057351	 -2.073512
H	 -0.763794	 0.997171	 -1.271673

	symmetry c1
}
set optking {
	frozen_dihedral = ("
		2 3 6 8
	")
}

ee = optimize('scf')
oeprop('DIPOLE', 'QUADRUPOLE', 'MULLIKEN_CHARGES')
f=open( 'psi4out.xyz', 'w' )
f.write( "10  " )
f.write( str(ee) + "\n" )
f.write( MOL.save_string_xyz() )
f.close()
--------------------------------------------------------------------------

    Molecular point group: c1
  Charge       = 0
  Multiplicity = 1
  Basis Set: CC-PVTZ
  Basis Set:
  @DF-RHF Final Energy:  -134.28798112905437
    Total Energy =                       -134.2879811290544012
    Molecular point group: c1
  Basis Set: CC-PVTZ
  Basis Set:
  Basis Set: CC-PVTZ
  Basis Set:
  @DF-RHF Final Energy:  -134.28890518217864
    Total Energy =                       -134.2889051821785529
  Basis Set: CC-PVTZ
  Basis Set:
  Basis Set: CC-PVTZ
  Basis Set:
  @DF-RHF Final Energy:  -134.28899650983095
    Total Energy =                       -134.2889965098309517
  Basis Set: CC-PVTZ
  Basis Set:
  Basis Set: CC-PVTZ
  Basis Set:
  @DF-RHF Final Energy:  -134.28900133177549
    Total Energy =                       -134.2890013317754381
  Basis Set: CC-PVTZ
  Basis Set:
  Charge       = 0
  Multiplicity = 1
  Basis Set: CC-PVTZ
  Basis Set:

    Orbital Energies (a.u.)
    -----------------------

    Doubly Occupied:

       1A    -15.528883     2A    -11.234352     3A    -11.233807
       4A     -1.196202     5A     -0.948041     6A     -0.855283
       7A     -0.661706     8A     -0.608026     9A     -0.589312
      10A     -0.543890    11A     -0.513357    12A     -0.507259
      13A     -0.357040

  @DF-RHF Final Energy:  -134.28900205145240

   => Energetics <=

    Nuclear Repulsion Energy =             84.5008684261076723
    One-Electron Energy =                -348.0254232421117422
    Two-Electron Energy =                 129.2355527645516133
    DFT Exchange-Correlation Energy =       0.0000000000000000
    Empirical Dispersion Energy =           0.0000000000000000
    PCM Polarization Energy =               0.0000000000000000
    EFP Energy =                            0.0000000000000000
    Total Energy =                       -134.2890020514524565
    Molecular point group: c1
  Basis Set: CC-PVTZ
  Basis Set:

  -Total Gradient:
     Atom            X                  Y                   Z
    ------   -----------------  -----------------  -----------------
       1       -0.000006335197     0.000002598827     0.000002258221
       2        0.001018905324     0.002104885418    -0.000394625576
       3       -0.001984110091    -0.002505748123     0.001054836490
       4       -0.000012425060     0.000006936355    -0.000003346321
       5       -0.000012757743     0.000014289115     0.000011815523
       6        0.002975507487    -0.001440229665    -0.002291392758
       7        0.000006813906    -0.000001723403     0.000006240246
       8       -0.001976816815     0.001812572346     0.001571379334
       9       -0.000006375046     0.000005196119     0.000031496118
      10       -0.000002406766     0.000001223010     0.000011338723

  **** Optimization is complete! (in 5 steps) ****
    Final optimized geometry and variables:
    Molecular point group: c1

    Geometry (in Angstrom), charge = 0, multiplicity = 1:

    H            1.748963727552     0.163804487613    -0.343106562844
    C            1.122872778659    -0.459912520462     0.283697086383
    N           -0.160963960378     0.174375213101     0.473650464610
    H            1.620111851199    -0.564137864959     1.240013768295
    H            1.069578465243    -1.448278068976    -0.177855120577
    C           -0.956147979728     0.337155383290    -0.729596505992
    H           -0.681811181879    -0.289163725311     1.183183648205
    H           -1.728847454207    -0.421392201153    -0.836780769266
    H           -0.323118209033     0.296946135058    -1.606796984075
    H           -1.453551171007     1.301039150786    -0.730475440348

  Mulliken Charges: (a.u.)
   Center  Symbol    Alpha    Beta     Spin     Total
       1     H     0.45691  0.45691  0.00000  0.08617
       2     C     3.08093  3.08093  0.00000 -0.16186
       3     N     3.63534  3.63534  0.00000 -0.27068
       4     H     0.45321  0.45321  0.00000  0.09357
       5     H     0.47496  0.47496  0.00000  0.05009
       6     C     3.07951  3.07951  0.00000 -0.15902
       7     H     0.43883  0.43883  0.00000  0.12234
       8     H     0.46537  0.46537  0.00000  0.06927
       9     H     0.45999  0.45999  0.00000  0.08002
      10     H     0.45495  0.45495  0.00000  0.09010

   Total alpha = 13.00000, Total beta = 13.00000, Total charge =  0.00000
