  ==> Input File <==

--------------------------------------------------------------------------
set {
	reference rhf
	basis 6-31G*
}

set_num_threads( 1 )
memory 2 gb

molecule MOL {
0 1

O	 -1.622273	 -0.689283	 2.045875
C	 -1.486972	 0.195482	 1.264111
C	 -2.254065	 1.489893	 1.284477
O	 -0.632575	 0.154573	 0.251549
H	 -2.799838	 1.606828	 0.355281
H	 -2.939406	 1.492091	 2.118826
H	 -1.565100	 2.322479	 1.367459
C	 0.160891	 -1.019931	 0.106212
C	 1.589627	 -0.672828	 0.480843
H	 0.089836	 -1.367806	 -0.916050
H	 -0.238459	 -1.792301	 0.749618
C	 2.246377	 0.346236	 -0.452210
H	 2.163194	 -1.597435	 0.473358
H	 1.604769	 -0.303424	 1.502885
C	 3.691736	 0.652107	 -0.061850
H	 2.219579	 -0.032311	 -1.472055
H	 1.666466	 1.263317	 -0.447249
H	 4.134505	 1.377213	 -0.737283
H	 4.305508	 -0.243868	 -0.089969
H	 3.748266	 1.059562	 0.943567

	symmetry c1
}
set optking {
	frozen_dihedral = ("
		16 12 9 8,
		12 9 8 10,
		1 2 4 8
	")
}

ee = energy('scf')
oeprop('DIPOLE', 'QUADRUPOLE', 'MULLIKEN_CHARGES')
f=open( 'psi4out.xyz', 'w' )
f.write( "20  " )
f.write( str(ee) + "\n" )
f.write( MOL.save_string_xyz() )
f.close()
--------------------------------------------------------------------------

    Molecular point group: c1

    Geometry (in Angstrom), charge = 0, multiplicity = 1:

       Center              X                  Y                   Z               Mass
    ------------   -----------------  -----------------  -----------------  -----------------
           O         -1.827222424552    -0.750900806801     1.424904268633    15.994914619560
           C         -1.691921424552     0.133864193199     0.643140268633    12.000000000000
           C         -2.459014424552     1.428275193199     0.663506268633    12.000000000000
           O         -0.837524424552     0.092955193199    -0.369421731367    15.994914619560
           H         -3.004787424552     1.545210193199    -0.265689731367     1.007825032070
           H         -3.144355424552     1.430473193199     1.497855268633     1.007825032070
           H         -1.770049424552     2.260861193199     0.746488268633     1.007825032070
           C         -0.044058424552    -1.081548806801    -0.514758731367    12.000000000000
           C          1.384677575448    -0.734445806801    -0.140127731367    12.000000000000
           H         -0.115113424552    -1.429423806801    -1.537020731367     1.007825032070
           H         -0.443408424552    -1.853918806801     0.128647268633     1.007825032070
           C          2.041427575448     0.284618193199    -1.073180731367    12.000000000000
           H          1.958244575448    -1.659052806801    -0.147612731367     1.007825032070
           H          1.399819575448    -0.365041806801     0.881914268633     1.007825032070
           C          3.486786575448     0.590489193199    -0.682820731367    12.000000000000
           H          2.014629575448    -0.093928806801    -2.093025731367     1.007825032070
           H          1.461516575448     1.201699193199    -1.068219731367     1.007825032070
           H          3.929555575448     1.315595193199    -1.358253731367     1.007825032070
           H          4.100558575448    -0.305485806801    -0.710939731367     1.007825032070
           H          3.543316575448     0.997944193199     0.322596268633     1.007825032070

  Charge       = 0
  Multiplicity = 1
  Basis Set: 6-31G*
  Basis Set:

    Orbital Energies (a.u.)
    -----------------------

    Doubly Occupied:

       1A    -20.601672     2A    -20.544076     3A    -11.376524
       4A    -11.278631     5A    -11.234339     6A    -11.222088
       7A    -11.219077     8A    -11.212175     9A     -1.469027
      10A     -1.363017    11A     -1.083719    12A     -1.028671
      13A     -0.979697    14A     -0.882778    15A     -0.816114
      16A     -0.762094    17A     -0.698612    18A     -0.686289
      19A     -0.660643    20A     -0.629980    21A     -0.596744
      22A     -0.593198    23A     -0.569079    24A     -0.565453
      25A     -0.538683    26A     -0.525613    27A     -0.517164
      28A     -0.489275    29A     -0.473934    30A     -0.464105
      31A     -0.443293    32A     -0.439891

  @DF-RHF Final Energy:  -383.94276979844352

   => Energetics <=

    Nuclear Repulsion Energy =            388.7961539143190635
    One-Electron Energy =               -1293.5464905208157234
    Two-Electron Energy =                 520.8075668080541618
    DFT Exchange-Correlation Energy =       0.0000000000000000
    Empirical Dispersion Energy =           0.0000000000000000
    PCM Polarization Energy =               0.0000000000000000
    EFP Energy =                            0.0000000000000000
    Total Energy =                       -383.9427697984424412

  Mulliken Charges: (a.u.)
   Center  Symbol    Alpha    Beta     Spin     Total
       1     O     4.28417  4.28417  0.00000 -0.56834
       2     C     2.61915  2.61915  0.00000  0.76170
       3     C     3.28254  3.28254  0.00000 -0.56508
       4     O     4.30685  4.30685  0.00000 -0.61369
       5     H     0.39975  0.39975  0.00000  0.20051
       6     H     0.39669  0.39669  0.00000  0.20661
       7     H     0.40075  0.40075  0.00000  0.19850
       8     C     3.02017  3.02017  0.00000 -0.04034
       9     C     3.16166  3.16166  0.00000 -0.32332
      10     H     0.41287  0.41287  0.00000  0.17426
      11     H     0.38915  0.38915  0.00000  0.22170
      12     C     3.15426  3.15426  0.00000 -0.30852
      13     H     0.42067  0.42067  0.00000  0.15867
      14     H     0.41424  0.41424  0.00000  0.17151
      15     C     3.24003  3.24003  0.00000 -0.48005
      16     H     0.42357  0.42357  0.00000  0.15287
      17     H     0.41306  0.41306  0.00000  0.17389
      18     H     0.41807  0.41807  0.00000  0.16386
      19     H     0.42156  0.42156  0.00000  0.15687
      20     H     0.42081  0.42081  0.00000  0.15838

   Total alpha = 32.00000, Total beta = 32.00000, Total charge = -0.00000
