  ==> Input File <==

--------------------------------------------------------------------------
set {
	reference rhf
	basis 6-31G*
}

set_num_threads( 4 )
memory 2 gb

molecule MOL {
0 1

H	 -0.367348	 2.047014	 -0.308205
C	 0.352277	 1.337084	 0.083769
N	 -0.000016	 0.000074	 -0.335546
H	 1.328359	 1.600444	 -0.307950
H	 0.381933	 1.450534	 1.172486
C	 -0.016110	 -0.127678	 -1.774882
C	 0.838426	 -0.999423	 0.285887
H	 -0.352713	 -1.120225	 -2.052192
H	 -0.708195	 0.590395	 -2.200151
H	 0.965875	 0.036985	 -2.230377
H	 0.770068	 -0.917863	 1.364798
H	 0.500191	 -1.990197	 0.004102
H	 1.892908	 -0.908446	 0.005318

	symmetry c1
}
set optking {
	frozen_dihedral = ("
		6 3 2 1
	")
}

ee = optimize('scf')
oeprop('DIPOLE', 'QUADRUPOLE', 'MULLIKEN_CHARGES')
f=open( 'psi4out.xyz', 'w' )
f.write( "13  " )
f.write( str(ee) + "\n" )
f.write( MOL.save_string_xyz() )
f.close()
--------------------------------------------------------------------------

    Molecular point group: c1
  Charge       = 0
  Multiplicity = 1
  Basis Set: 6-31G*
  Basis Set:
  @DF-RHF Final Energy:  -173.26827603627174
    Total Energy =                       -173.2682760362718000
    Molecular point group: c1
  Basis Set: 6-31G*
  Basis Set:
  Basis Set: 6-31G*
  Basis Set:
  @DF-RHF Final Energy:  -173.26906939247186
    Total Energy =                       -173.2690693924718062
  Basis Set: 6-31G*
  Basis Set:
  Basis Set: 6-31G*
  Basis Set:
  @DF-RHF Final Energy:  -173.26918827864247
    Total Energy =                       -173.2691882786424458
  Basis Set: 6-31G*
  Basis Set:
  Charge       = 0
  Multiplicity = 1
  Basis Set: 6-31G*
  Basis Set:

    Orbital Energies (a.u.)
    -----------------------

    Doubly Occupied:

       1A    -15.543953     2A    -11.235864     3A    -11.235814
       4A    -11.235789     5A     -1.225524     6A     -0.951659
       7A     -0.951520     8A     -0.806486     9A     -0.641938
      10A     -0.630537    11A     -0.630323    12A     -0.544596
      13A     -0.543929    14A     -0.517176    15A     -0.501207
      16A     -0.500975    17A     -0.347179

  @DF-RHF Final Energy:  -173.26918941156430

   => Energetics <=

    Nuclear Repulsion Energy =            139.2952649201864688
    One-Electron Energy =                -509.0399681325129109
    Two-Electron Energy =                 196.4755138007621724
    DFT Exchange-Correlation Energy =       0.0000000000000000
    Empirical Dispersion Energy =           0.0000000000000000
    PCM Polarization Energy =               0.0000000000000000
    EFP Energy =                            0.0000000000000000
    Total Energy =                       -173.2691894115642697
    Molecular point group: c1
  Basis Set: 6-31G*
  Basis Set:

  -Total Gradient:
     Atom            X                  Y                   Z
    ------   -----------------  -----------------  -----------------
       1       -0.000371142758    -0.000082631835     0.000525456059
       2        0.000604403820     0.000011565373    -0.000758301396
       3       -0.000722023712     0.000125228946     0.000102982901
       4        0.000008713984    -0.000026798670    -0.000012958742
       5       -0.000013714103    -0.000043840369    -0.000002442751
       6        0.000496392290     0.000031168543     0.000056634062
       7       -0.000029339821     0.000028066191     0.000017403533
       8        0.000009788823     0.000004841389     0.000080129860
       9       -0.000023087414     0.000015332821    -0.000028401782
      10        0.000005796586    -0.000023844814    -0.000001087683
      11        0.000020576193    -0.000017467829     0.000008955819
      12        0.000013927156    -0.000014342456     0.000006007865
      13       -0.000000291042    -0.000007277288     0.000005622253

  **** Optimization is complete! (in 4 steps) ****
    Final optimized geometry and variables:
    Molecular point group: c1

    Geometry (in Angstrom), charge = 0, multiplicity = 1:

    H           -0.669952002920     1.995288667713     0.124148475612
    C            0.047563132749     1.283827246108     0.517489733628
    N           -0.314841356611    -0.054563045115     0.109918973675
    H            1.045304367287     1.579875044350     0.177893648134
    H            0.025830110595     1.356178795459     1.599011167871
    C           -0.338346611817    -0.189056234766    -1.328815682742
    C            0.526782900832    -1.053762153590     0.728637405040
    H           -0.682724961990    -1.180673703381    -1.599911448145
    H           -1.027363832839     0.531686800576    -1.754807079973
    H            0.642945476911    -0.032910408812    -1.788597884934
    H            0.466445270760    -0.969150609909     1.807779886701
    H            0.184829212325    -2.044752239229     0.452081305879
    H            1.579197763196    -0.965709730001     0.439707535867

  Mulliken Charges: (a.u.)
   Center  Symbol    Alpha    Beta     Spin     Total
       1     H     0.41644  0.41644  0.00000  0.16712
       2     C     3.14310  3.14310  0.00000 -0.28621
       3     N     3.76561  3.76561  0.00000 -0.53121
       4     H     0.43494  0.43494  0.00000  0.13011
       5     H     0.41693  0.41693  0.00000  0.16613
       6     C     3.14311  3.14311  0.00000 -0.28621
       7     C     3.14307  3.14307  0.00000 -0.28613
       8     H     0.41665  0.41665  0.00000  0.16671
       9     H     0.41669  0.41669  0.00000  0.16661
      10     H     0.43502  0.43502  0.00000  0.12995
      11     H     0.41663  0.41663  0.00000  0.16674
      12     H     0.41670  0.41670  0.00000  0.16660
      13     H     0.43510  0.43510  0.00000  0.12979

   Total alpha = 17.00000, Total beta = 17.00000, Total charge =  0.00000
