  ==> Input File <==

--------------------------------------------------------------------------
set {
	reference rhf
	basis cc-pvtz
}

set_num_threads( 4 )
memory 2 gb

molecule MOL {
0 1

O	 0.179153	 1.100243	 0.576056
C	 0.029490	 0.077183	 0.000078
C	 -1.232113	 -0.748027	 0.000015
O	 0.973585	 -0.486405	 -0.734962
C	 -2.501422	 0.088592	 -0.000052
H	 -1.188777	 -1.400384	 -0.865133
H	 -1.188857	 -1.400312	 0.865225
H	 -2.548170	 0.725504	 -0.873205
H	 -3.371613	 -0.556398	 -0.000040
H	 -2.548215	 0.725571	 0.873047
C	 2.214581	 0.184302	 -0.822850
H	 2.088033	 1.164821	 -1.257364
H	 2.838551	 -0.425564	 -1.455740
H	 2.662275	 0.287094	 0.154518

	symmetry c1
}
set optking {
	frozen_dihedral = ("
		4 2 3 6
	")
}

ee = optimize('scf')
oeprop('DIPOLE', 'QUADRUPOLE', 'MULLIKEN_CHARGES')
f=open( 'psi4out.xyz', 'w' )
f.write( "14  " )
f.write( str(ee) + "\n" )
f.write( MOL.save_string_xyz() )
f.close()
--------------------------------------------------------------------------

    Molecular point group: c1
  Charge       = 0
  Multiplicity = 1
  Basis Set: CC-PVTZ
  Basis Set:
  @DF-RHF Final Energy:  -305.98637515578503
    Total Energy =                       -305.9863751557845717
    Molecular point group: c1
  Basis Set: CC-PVTZ
  Basis Set:
  Basis Set: CC-PVTZ
  Basis Set:
  @DF-RHF Final Energy:  -305.98662776718305
    Total Energy =                       -305.9866277671832222
  Basis Set: CC-PVTZ
  Basis Set:
  Basis Set: CC-PVTZ
  Basis Set:
  @DF-RHF Final Energy:  -305.98658943655983
    Total Energy =                       -305.9865894365598251
  Basis Set: CC-PVTZ
  Basis Set:
  Basis Set: CC-PVTZ
  Basis Set:
  @DF-RHF Final Energy:  -305.98671833618653
    Total Energy =                       -305.9867183361867546
  Basis Set: CC-PVTZ
  Basis Set:
  Charge       = 0
  Multiplicity = 1
  Basis Set: CC-PVTZ
  Basis Set:

    Orbital Energies (a.u.)
    -----------------------

    Doubly Occupied:

       1A    -20.598956     2A    -20.533201     3A    -11.365265
       4A    -11.279243     5A    -11.236631     6A    -11.217571
       7A     -1.473559     8A     -1.366161     9A     -1.065296
      10A     -0.981334    11A     -0.880048    12A     -0.772782
      13A     -0.702055    14A     -0.685136    15A     -0.675588
      16A     -0.620210    17A     -0.603655    18A     -0.554630
      19A     -0.539476    20A     -0.519746    21A     -0.515657
      22A     -0.497181    23A     -0.461009    24A     -0.441127

  @DF-RHF Final Energy:  -305.98671898030318

   => Energetics <=

    Nuclear Repulsion Energy =            247.5622147142581468
    One-Electron Energy =                -907.9268283378487467
    Two-Electron Energy =                 354.3778946432872772
    DFT Exchange-Correlation Energy =       0.0000000000000000
    Empirical Dispersion Energy =           0.0000000000000000
    PCM Polarization Energy =               0.0000000000000000
    EFP Energy =                            0.0000000000000000
    Total Energy =                       -305.9867189803032943
    Molecular point group: c1
  Basis Set: CC-PVTZ
  Basis Set:

  -Total Gradient:
     Atom            X                  Y                   Z
    ------   -----------------  -----------------  -----------------
       1       -0.000007182443    -0.000089809449    -0.000099087648
       2        0.000519855657    -0.000739595756     0.001463237673
       3       -0.000847203825     0.001295244660    -0.001125012081
       4       -0.000263019119     0.000499238210    -0.000978137528
       5        0.000035167648    -0.000037812755    -0.000038867094
       6        0.000574155726    -0.000845634349     0.000697967529
       7        0.000017436227    -0.000032254982     0.000019695445
       8       -0.000011511286     0.000010452518    -0.000002081259
       9       -0.000007566298     0.000001443022     0.000000755535
      10        0.000015822091    -0.000013614559     0.000000298127
      11       -0.000037540401    -0.000089914115     0.000104050855
      12       -0.000025367844     0.000010822109    -0.000011093376
      13        0.000006630843     0.000011667107    -0.000014545891
      14        0.000030323024     0.000019768339    -0.000017180286

  **** Optimization is complete! (in 5 steps) ****
    Final optimized geometry and variables:
    Molecular point group: c1

    Geometry (in Angstrom), charge = 0, multiplicity = 1:

    O            0.192385947235     1.048380883841     0.730784192986
    C            0.056132862702     0.027575292168     0.146337615043
    C           -1.202936345141    -0.803430573648     0.155150845043
    O            1.012555954435    -0.524020011234    -0.580042381092
    C           -2.469525774474     0.041588435302     0.197313568271
    H           -1.189007627482    -1.474410610693    -0.691905573871
    H           -1.142214547251    -1.426298238949     1.043183025951
    H           -2.561719498287     0.651394921609    -0.693470730819
    H           -3.341815337811    -0.597131774404     0.258674421625
    H           -2.463013615082     0.700981883872     1.053363211618
    C            2.259703372265     0.140682268007    -0.620286752724
    H            2.148871932063     1.132135572368    -1.033340200561
    H            2.895325549685    -0.457729128627    -1.252499119163
    H            2.683382756239     0.216779688823     0.370110820551

  Mulliken Charges: (a.u.)
   Center  Symbol    Alpha    Beta     Spin     Total
       1     O     4.20065  4.20065  0.00000 -0.40130
       2     C     2.80621  2.80621  0.00000  0.38759
       3     C     3.08885  3.08885  0.00000 -0.17770
       4     O     4.14446  4.14446  0.00000 -0.28893
       5     C     3.14238  3.14238  0.00000 -0.28476
       6     H     0.43814  0.43814  0.00000  0.12373
       7     H     0.44632  0.44632  0.00000  0.10736
       8     H     0.45305  0.45305  0.00000  0.09391
       9     H     0.44986  0.44986  0.00000  0.10027
      10     H     0.44207  0.44207  0.00000  0.11586
      11     C     3.03427  3.03427  0.00000 -0.06854
      12     H     0.45403  0.45403  0.00000  0.09194
      13     H     0.44523  0.44523  0.00000  0.10954
      14     H     0.45448  0.45448  0.00000  0.09104

   Total alpha = 24.00000, Total beta = 24.00000, Total charge = -0.00000
