  ==> Input File <==

--------------------------------------------------------------------------
set {
	reference rhf
	basis cc-pvtz
}

set_num_threads( 4 )
memory 2 gb

molecule MOL {
0 1

H	 -1.093061	 -0.813325	 -0.860100
N	 -0.625934	 -0.663929	 -0.000707
C	 -1.146957	 -1.304342	 1.183987
C	 0.468494	 0.129045	 -0.002160
H	 -2.161872	 -0.982363	 1.384650
H	 -0.523857	 -1.032058	 2.018674
H	 -1.139146	 -2.382663	 1.078150
C	 1.785715	 -0.615093	 0.000603
O	 0.413285	 1.323206	 0.000532
H	 1.866994	 -1.243310	 -0.878792
H	 2.591506	 0.100263	 0.006422
H	 1.860358	 -1.250360	 0.875522

	symmetry c1
}
set optking {
	frozen_dihedral = ("
		3 2 4 9
	")
}

ee = optimize('scf')
oeprop('DIPOLE', 'QUADRUPOLE', 'MULLIKEN_CHARGES')
f=open( 'psi4out.xyz', 'w' )
f.write( "12  " )
f.write( str(ee) + "\n" )
f.write( MOL.save_string_xyz() )
f.close()
--------------------------------------------------------------------------

    Molecular point group: c1
  Charge       = 0
  Multiplicity = 1
  Basis Set: CC-PVTZ
  Basis Set:
  @DF-RHF Final Energy:  -247.06037630524688
    Total Energy =                       -247.0603763052471322
    Molecular point group: c1
  Basis Set: CC-PVTZ
  Basis Set:
  Basis Set: CC-PVTZ
  Basis Set:
  @DF-RHF Final Energy:  -247.06523081196775
    Total Energy =                       -247.0652308119679219
  Basis Set: CC-PVTZ
  Basis Set:
  Basis Set: CC-PVTZ
  Basis Set:
  @DF-RHF Final Energy:  -247.07033838047926
    Total Energy =                       -247.0703383804793702
  Basis Set: CC-PVTZ
  Basis Set:
  Basis Set: CC-PVTZ
  Basis Set:
  @DF-RHF Final Energy:  -247.05196455290982
    Total Energy =                       -247.0519645529100785
  Basis Set: CC-PVTZ
  Basis Set:
  @DF-RHF Final Energy:  -247.07667967271030
    Total Energy =                       -247.0766796727104406
  @DF-RHF Final Energy:  -247.08096595553803
    Total Energy =                       -247.0809659555379199
  @DF-RHF Final Energy:  -247.07751142118167
    Total Energy =                       -247.0775114211817822
  @DF-RHF Final Energy:  -247.08247193643811
    Total Energy =                       -247.0824719364379689
  @DF-RHF Final Energy:  -247.08293371693901
    Total Energy =                       -247.0829337169391238
  @DF-RHF Final Energy:  -247.08357748681007
    Total Energy =                       -247.0835774868099861
  @DF-RHF Final Energy:  -247.08378393420693
    Total Energy =                       -247.0837839342068492
  @DF-RHF Final Energy:  -247.08381473173125
    Total Energy =                       -247.0838147317311950
  Basis Set: CC-PVTZ
  Basis Set:
  @DF-RHF Final Energy:  -247.08382418319215
    Total Energy =                       -247.0838241831921778
  Basis Set: CC-PVTZ
  Basis Set:
  Basis Set: CC-PVTZ
  Basis Set:
  @DF-RHF Final Energy:  -247.08378526196302
    Total Energy =                       -247.0837852619630439
  Basis Set: CC-PVTZ
  Basis Set:
  Basis Set: CC-PVTZ
  Basis Set:
  @DF-RHF Final Energy:  -247.08382534657949
    Total Energy =                       -247.0838253465792036
  Basis Set: CC-PVTZ
  Basis Set:
  Charge       = 0
  Multiplicity = 1
  Basis Set: CC-PVTZ
  Basis Set:

    Orbital Energies (a.u.)
    -----------------------

    Doubly Occupied:

       1A    -20.536922     2A    -15.561938     3A    -11.345124
       4A    -11.262659     5A    -11.228895     6A     -1.411072
       7A     -1.221790     8A     -1.010663     9A     -0.938433
      10A     -0.769123    11A     -0.682425    12A     -0.662144
      13A     -0.634124    14A     -0.602396    15A     -0.577439
      16A     -0.566519    17A     -0.548560    18A     -0.502237
      19A     -0.439085    20A     -0.400904

  @DF-RHF Final Energy:  -247.08382559380544

   => Energetics <=

    Nuclear Repulsion Energy =            181.3414273280937437
    One-Electron Energy =                -695.0456003624997265
    Two-Electron Energy =                 266.6203474406003693
    DFT Exchange-Correlation Energy =       0.0000000000000000
    Empirical Dispersion Energy =           0.0000000000000000
    PCM Polarization Energy =               0.0000000000000000
    EFP Energy =                            0.0000000000000000
    Total Energy =                       -247.0838255938056705
    Molecular point group: c1
  Basis Set: CC-PVTZ
  Basis Set:

  -Total Gradient:
     Atom            X                  Y                   Z
    ------   -----------------  -----------------  -----------------
       1       -0.000036951179    -0.000094943996     0.000000497828
       2        0.005920358963    -0.005596232699     0.004349098815
       3       -0.004502015950     0.004446507738    -0.000567561187
       4        0.000029982013    -0.000317846514    -0.011697839076
       5        0.000002185376    -0.000002169143     0.000011684841
       6       -0.000010711450    -0.000015994687     0.000007521580
       7       -0.000010858028     0.000011466031    -0.000001447807
       8        0.000034371412    -0.000018320822    -0.000159247244
       9       -0.001408092222     0.001593391289     0.007991699643
      10       -0.000006616719    -0.000010169809     0.000024204236
      11       -0.000005703962    -0.000000288243     0.000017638099
      12       -0.000005948253     0.000004600854     0.000023750272

  **** Optimization is complete! (in 16 steps) ****
    Final optimized geometry and variables:
    Molecular point group: c1

    Geometry (in Angstrom), charge = 0, multiplicity = 1:

    H           -1.477070887043    -0.299594432724    -0.809626111254
    N           -0.711715624997    -0.659417373984    -0.276613099848
    C           -1.217546256406    -1.006199687806     1.050850819499
    C            0.282217516221     0.334296743056    -0.300813788280
    H           -1.610654880805    -0.145613387582     1.584060819877
    H           -0.438447289423    -1.456787448825     1.649955146475
    H           -2.006236584101    -1.735835046205     0.937917053969
    C            1.674140091870    -0.137569248958     0.027414684951
    O            0.036585023945     1.463638439671    -0.569932883660
    H            2.057569561888    -0.678018576032    -0.830369259876
    H            2.310023855123     0.708639352319     0.234459070505
    H            1.676111336345    -0.821371932915     0.865226637909

  Mulliken Charges: (a.u.)
   Center  Symbol    Alpha    Beta     Spin     Total
       1     H     0.43433  0.43433  0.00000  0.13135
       2     N     3.63007  3.63007  0.00000 -0.26014
       3     C     3.08537  3.08537  0.00000 -0.17075
       4     C     2.83561  2.83561  0.00000  0.32878
       5     H     0.45875  0.45875  0.00000  0.08249
       6     H     0.45309  0.45309  0.00000  0.09381
       7     H     0.44647  0.44647  0.00000  0.10707
       8     C     3.13945  3.13945  0.00000 -0.27891
       9     O     4.18115  4.18115  0.00000 -0.36229
      10     H     0.44548  0.44548  0.00000  0.10903
      11     H     0.43882  0.43882  0.00000  0.12236
      12     H     0.45140  0.45140  0.00000  0.09720

   Total alpha = 20.00000, Total beta = 20.00000, Total charge = -0.00000
