                              Psi4 1.0.54 Driver

  ==> Input File <==

--------------------------------------------------------------------------
set {
	reference rhf
	basis cc-pvtz
}

set_num_threads( 4 )
memory 2 gb

molecule MOL {
0 1

H	 0.149983	 4.242375	 -0.111172
O	 -0.156931	 3.713131	 -0.824338
C	 -0.156887	 2.361553	 -0.459126
C	 1.249897	 1.799066	 -0.410555
H	 -0.643670	 2.206979	 0.498620
H	 -0.730145	 1.832680	 -1.207024
O	 1.172093	 0.457955	 -0.054438
H	 1.847533	 2.353467	 0.314956
H	 1.723113	 1.919076	 -1.382789
C	 2.395478	 -0.199028	 -0.000366
H	 2.505946	 -0.901710	 -0.823354
H	 3.174616	 0.545641	 -0.071768
H	 2.513730	 -0.742241	 0.934223

	symmetry c1
}
set optking {
	frozen_dihedral = ("
		4 7 10 13
	")
}

ee,wfn = optimize('scf', return_wfn=True)
oeprop( wfn, 'DIPOLE', 'QUADRUPOLE', 'MULLIKEN_CHARGES')
f=open( 'psi4out.xyz', 'w' )
f.write( "13  " )
f.write( str(ee) + "\n" )
f.write( MOL.save_string_xyz() )
f.close()
--------------------------------------------------------------------------

    Molecular point group: c1
  Charge       = 0
  Multiplicity = 1
  Basis Set: CC-PVTZ
  Basis Set:
  @DF-RHF Final Energy:  -268.05792613433096
    Total Energy =                       -268.0579261343308417
    Molecular point group: c1
  Basis Set: CC-PVTZ
  Basis Set:
  Basis Set: CC-PVTZ
  Basis Set:
  @DF-RHF Final Energy:  -268.05867977520870
    Total Energy =                       -268.0586797752084181
  Basis Set: CC-PVTZ
  Basis Set:
  Basis Set: CC-PVTZ
  Basis Set:
  @DF-RHF Final Energy:  -268.05893069092593
    Total Energy =                       -268.0589306909259903
  Basis Set: CC-PVTZ
  Basis Set:
  Charge       = 0
  Multiplicity = 1
  Basis Set: CC-PVTZ
  Basis Set:

    Orbital Energies (a.u.)
    -----------------------

    Doubly Occupied:

       1A    -20.552645     2A    -20.552519     3A    -11.269694
       4A    -11.267366     5A    -11.266921     6A     -1.387877
       7A     -1.368402     8A     -1.019394     9A     -0.914216
      10A     -0.842502    11A     -0.711064    12A     -0.673780
      13A     -0.661091    14A     -0.637826    15A     -0.598635
      16A     -0.569327    17A     -0.550966    18A     -0.490676
      19A     -0.483251    20A     -0.441138    21A     -0.419558

  @DF-RHF Final Energy:  -268.05893274723786

   => Energetics <=

    Nuclear Repulsion Energy =            190.1948260421551709
    One-Electron Energy =                -743.1498177577971092
    Two-Electron Energy =                 284.8960589684041338
    DFT Exchange-Correlation Energy =       0.0000000000000000
    Empirical Dispersion Energy =           0.0000000000000000
    PCM Polarization Energy =               0.0000000000000000
    EFP Energy =                            0.0000000000000000
    Total Energy =                       -268.0589327472377477
    Molecular point group: c1
  Basis Set: CC-PVTZ
  Basis Set:

  -Total Gradient:
     Atom            X                  Y                   Z
    ------   -----------------  -----------------  -----------------
       1       -0.000002034289     0.000007086968    -0.000002666803
       2        0.000003628409     0.000022616618    -0.000002248496
       3       -0.000010561962    -0.000012487399     0.000003753488
       4        0.000106190569     0.000326000684     0.001114745751
       5       -0.000003096450    -0.000007062847    -0.000005210717
       6       -0.000003406821    -0.000002354042     0.000005365649
       7        0.000162114968    -0.000226740397    -0.001411501798
       8       -0.000001394312    -0.000031242984     0.000002308797
       9       -0.000002172730    -0.000030599392     0.000018441730
      10       -0.000866565296    -0.001111930279    -0.000329568263
      11        0.000019302345    -0.000053258518    -0.000000771112
      12        0.000028318428    -0.000010761379     0.000003413308
      13        0.000569677141     0.001130732968     0.000603938468

  **** Optimization is complete! (in 4 steps) ****
    Final optimized geometry and variables:
    Molecular point group: c1

    Geometry (in Angstrom), charge = 0, multiplicity = 1:

    H           -0.755375563833     2.591319667043     0.266088522090
    O           -1.060999399678     2.070781714280    -0.453998994545
    C           -1.056931166724     0.714342497574    -0.106506021126
    C            0.351440109433     0.155489305130    -0.067162340332
    H           -1.541754750033     0.545726583167     0.849871734607
    H           -1.629922379733     0.193591241782    -0.860272577338
    O            0.272849286014    -1.189977462702     0.275840604114
    H            0.947130603490     0.703573644487     0.663721982999
    H            0.820177948321     0.289695055226    -1.039283715985
    C            1.481846252998    -1.884019076252     0.332132190517
    H            1.549660164653    -2.592946341830    -0.485670856078
    H            2.333625577258    -1.213967821915     0.275229931122
    H            1.541044337192    -2.420240565099     1.271016255918

  Mulliken Charges: (a.u.)
   Center  Symbol    Alpha    Beta     Spin     Total
       1     H     0.39416  0.39416  0.00000  0.21167
       2     O     4.20213  4.20213  0.00000 -0.40426
       3     C     2.97527  2.97527  0.00000  0.04946
       4     C     2.96481  2.96481  0.00000  0.07037
       5     H     0.46715  0.46715  0.00000  0.06570
       6     H     0.45278  0.45278  0.00000  0.09444
       7     O     4.18021  4.18021  0.00000 -0.36041
       8     H     0.48139  0.48139  0.00000  0.03721
       9     H     0.46975  0.46975  0.00000  0.06050
      10     C     3.02713  3.02713  0.00000 -0.05427
      11     H     0.45844  0.45844  0.00000  0.08312
      12     H     0.47193  0.47193  0.00000  0.05613
      13     H     0.45483  0.45483  0.00000  0.09033

   Total alpha = 21.00000, Total beta = 21.00000, Total charge =  0.00000

*** Psi4 exiting successfully. Buy a developer a beer!
