                              Psi4 1.0.54 Driver

  ==> Input File <==

--------------------------------------------------------------------------
set {
	reference rhf
	basis cc-pvtz
}

set_num_threads( 4 )
memory 2 gb

molecule MOL {
0 1

H	 -3.436473	 1.252944	 -1.023892
O	 -3.458596	 0.315260	 -0.960865
C	 -3.176635	 -0.080824	 0.355601
C	 -1.763371	 0.265266	 0.799691
H	 -3.321825	 -1.153438	 0.379502
H	 -3.895468	 0.357385	 1.043382
C	 -0.673390	 -0.426948	 -0.013392
H	 -1.631049	 1.344913	 0.747560
H	 -1.664587	 -0.001624	 1.849167
C	 0.737842	 -0.043159	 0.423759
H	 -0.806103	 -0.190518	 -1.063345
H	 -0.797221	 -1.503753	 0.074146
C	 0.867941	 0.121364	 1.936721
H	 1.433297	 -0.799041	 0.071801
H	 1.026167	 0.886628	 -0.062268
C	 2.244126	 0.584351	 2.417977
H	 0.617127	 -0.818915	 2.422332
H	 0.126385	 0.841237	 2.272127
C	 3.371088	 -0.420417	 2.190946
H	 2.180956	 0.800790	 3.480022
H	 2.496166	 1.523757	 1.932783
H	 3.143982	 -1.372374	 2.660284
H	 4.300565	 -0.057818	 2.615016
H	 3.544846	 -0.604383	 1.137585

	symmetry c1
}
set optking {
	frozen_dihedral = ("
		13 10 7 11
	")
}

ee,wfn = optimize('scf', return_wfn=True)
oeprop( wfn, 'DIPOLE', 'QUADRUPOLE', 'MULLIKEN_CHARGES')
f=open( 'psi4out.xyz', 'w' )
f.write( "24  " )
f.write( str(ee) + "\n" )
f.write( MOL.save_string_xyz() )
f.close()
--------------------------------------------------------------------------

    Molecular point group: c1
  Charge       = 0
  Multiplicity = 1
  Basis Set: CC-PVTZ
  Basis Set:
  @DF-RHF Final Energy:  -349.37318802818726
    Total Energy =                       -349.3731880281870872
    Molecular point group: c1
  Basis Set: CC-PVTZ
  Basis Set:
  Basis Set: CC-PVTZ
  Basis Set:
  @DF-RHF Final Energy:  -348.77335778488310
    Total Energy =                       -348.7733577848833875
  Basis Set: CC-PVTZ
  Basis Set:
  Basis Set: CC-PVTZ
  Basis Set:
  @DF-RHF Final Energy:  -348.97028435539346
    Total Energy =                       -348.9702843553930052
  Basis Set: CC-PVTZ
  Basis Set:
  Basis Set: CC-PVTZ
  Basis Set:
  @DF-RHF Final Energy:  -349.24672691792910
    Total Energy =                       -349.2467269179292089
  Basis Set: CC-PVTZ
  Basis Set:
  @DF-RHF Final Energy:  -349.36574303986924
    Total Energy =                       -349.3657430398689030
  @DF-RHF Final Energy:  -349.37503317666926
    Total Energy =                       -349.3750331766685804
  @DF-RHF Final Energy:  -349.37577069775858
    Total Energy =                       -349.3757706977581847
  Basis Set: CC-PVTZ
  Basis Set:
  @DF-RHF Final Energy:  -349.37582502725257
    Total Energy =                       -349.3758250272526311
  Basis Set: CC-PVTZ
  Basis Set:
  Basis Set: CC-PVTZ
  Basis Set:
  @DF-RHF Final Energy:  -349.37583846136744
    Total Energy =                       -349.3758384613680619
  Basis Set: CC-PVTZ
  Basis Set:
  Basis Set: CC-PVTZ
  Basis Set:
  @DF-RHF Final Energy:  -349.37586139327493
    Total Energy =                       -349.3758613932745334
  Basis Set: CC-PVTZ
  Basis Set:
  Charge       = 0
  Multiplicity = 1
  Basis Set: CC-PVTZ
  Basis Set:

    Orbital Energies (a.u.)
    -----------------------

    Doubly Occupied:

       1A    -20.546405     2A    -11.265340     3A    -11.214328
       4A    -11.212961     5A    -11.210725     6A    -11.210130
       7A    -11.209211     8A    -11.205512     9A     -1.364228
      10A     -1.089410    11A     -1.047620    12A     -0.984644
      13A     -0.917870    14A     -0.855007    15A     -0.808853
      16A     -0.765895    17A     -0.681541    18A     -0.644706
      19A     -0.633194    20A     -0.621084    21A     -0.602654
      22A     -0.583083    23A     -0.553258    24A     -0.552317
      25A     -0.516932    26A     -0.509754    27A     -0.502481
      28A     -0.476752    29A     -0.475103    30A     -0.455658
      31A     -0.451083    32A     -0.438090    33A     -0.426970

  @DF-RHF Final Energy:  -349.37586158348745

   => Energetics <=

    Nuclear Repulsion Energy =            388.8356882336547642
    One-Electron Energy =               -1244.3575049553164718
    Two-Electron Energy =                 506.1459551381740312
    DFT Exchange-Correlation Energy =       0.0000000000000000
    Empirical Dispersion Energy =           0.0000000000000000
    PCM Polarization Energy =               0.0000000000000000
    EFP Energy =                            0.0000000000000000
    Total Energy =                       -349.3758615834876764
    Molecular point group: c1
  Basis Set: CC-PVTZ
  Basis Set:

  -Total Gradient:
     Atom            X                  Y                   Z
    ------   -----------------  -----------------  -----------------
       1        0.000014266950     0.000022579133     0.000018436833
       2        0.000004940413    -0.000078958304    -0.000045030822
       3        0.000019532276     0.000094026522     0.000026095013
       4       -0.000049064031    -0.000068280944     0.000013112500
       5        0.000010007679    -0.000009836901    -0.000022936254
       6       -0.000029363032     0.000004186921     0.000013357454
       7        0.001743603852    -0.004300806911    -0.002140854794
       8        0.000002800510     0.000008648318     0.000004666548
       9       -0.000010776993    -0.000006316297     0.000022359296
      10       -0.000359125311    -0.004853012326    -0.000447427260
      11       -0.001371936306     0.005037404268     0.001956812255
      12        0.000001756629    -0.000005413110     0.000007517347
      13        0.000007741841     0.004155308924     0.000620368574
      14       -0.000007806834     0.000002889579    -0.000012738997
      15        0.000006297229     0.000007910954     0.000000462499
      16        0.000002464590     0.000008663147    -0.000025333825
      17       -0.000004265675    -0.000010316394    -0.000007220734
      18       -0.000011637677     0.000002030080    -0.000008339163
      19        0.000009786135    -0.000007645859     0.000006530604
      20        0.000000032299     0.000000453941    -0.000004849166
      21        0.000012912134     0.000006386767     0.000012884809
      22       -0.000006160578    -0.000000362919    -0.000002961607
      23        0.000013877277    -0.000006492417     0.000015160134
      24        0.000000116619    -0.000003046172    -0.000000071234

  **** Optimization is complete! (in 11 steps) ****
    Final optimized geometry and variables:
    Molecular point group: c1

    Geometry (in Angstrom), charge = 0, multiplicity = 1:

    H           -1.237204921941     2.608935598415    -2.592976831903
    O           -1.438063220807     1.746005404036    -2.907149378477
    C           -2.102187877616     1.018029752254    -1.907851717041
    C           -1.236535659423     0.734803729142    -0.688253129459
    H           -2.406323101047     0.088247895373    -2.372067685213
    H           -3.007310565254     1.537032189452    -1.602623292104
    C           -0.020733596763    -0.137131990975    -1.006557988427
    H           -0.911694235010     1.683219772586    -0.262058691712
    H           -1.863745773225     0.262697208942     0.061021584609
    C            0.986061727378    -0.310283050571     0.140946609016
    H            0.489693174641     0.335165896996    -1.836923116475
    H           -0.368115608939    -1.108931439059    -1.345703041633
    C            0.387840855753    -0.507999614413     1.534186899929
    H            1.640367770063    -1.138001715448    -0.106412022390
    H            1.622049289221     0.571871700826     0.178204851167
    C            1.426933377038    -0.731317083167     2.635832651206
    H           -0.303364920997    -1.349071817736     1.524504505443
    H           -0.199688738098     0.364267333982     1.796243198126
    C            2.172024656968    -2.061617116270     2.555082612874
    H            0.924504145442    -0.675344627722     3.596721833943
    H            2.144164462543     0.085432045679     2.622538740501
    H            1.478602921311    -2.896459876355     2.567841899298
    H            2.842283279257    -2.177876336455     3.399219376195
    H            2.768370839252    -2.141296942538     1.654461701190

  Mulliken Charges: (a.u.)
   Center  Symbol    Alpha    Beta     Spin     Total
       1     H     0.39518  0.39518  0.00000  0.20964
       2     O     4.20396  4.20396  0.00000 -0.40793
       3     C     2.97589  2.97589  0.00000  0.04822
       4     C     3.10835  3.10835  0.00000 -0.21670
       5     H     0.45914  0.45914  0.00000  0.08172
       6     H     0.45965  0.45965  0.00000  0.08070
       7     C     3.09460  3.09460  0.00000 -0.18921
       8     H     0.45804  0.45804  0.00000  0.08393
       9     H     0.44978  0.44978  0.00000  0.10045
      10     C     3.09976  3.09976  0.00000 -0.19953
      11     H     0.44158  0.44158  0.00000  0.11684
      12     H     0.45274  0.45274  0.00000  0.09452
      13     C     3.09999  3.09999  0.00000 -0.19999
      14     H     0.44606  0.44606  0.00000  0.10788
      15     H     0.45452  0.45452  0.00000  0.09095
      16     C     3.08983  3.08983  0.00000 -0.17965
      17     H     0.45434  0.45434  0.00000  0.09132
      18     H     0.44529  0.44529  0.00000  0.10943
      19     C     3.15126  3.15126  0.00000 -0.30252
      20     H     0.44884  0.44884  0.00000  0.10233
      21     H     0.45521  0.45521  0.00000  0.08958
      22     H     0.45516  0.45516  0.00000  0.08967
      23     H     0.44698  0.44698  0.00000  0.10604
      24     H     0.45385  0.45385  0.00000  0.09231

   Total alpha = 33.00000, Total beta = 33.00000, Total charge =  0.00000

*** Psi4 exiting successfully. Buy a developer a beer!
