  ==> Input File <==

--------------------------------------------------------------------------
set {
	reference rhf
	basis 6-31G*
}

set_num_threads( 4 )
memory 2 gb

molecule MOL {
0 1

O	 3.735762	 -1.987182	 2.270620
C	 2.973341	 -1.523224	 1.485433
C	 1.481715	 -1.393506	 1.677824
O	 3.347903	 -1.046386	 0.304773
C	 1.003347	 -1.918437	 3.029758
H	 1.232386	 -0.347074	 1.536383
H	 1.002993	 -1.925896	 0.859849
C	 -0.519523	 -1.890608	 3.198836
H	 1.472111	 -1.344586	 3.823530
H	 1.355410	 -2.937361	 3.149204
C	 -1.138909	 -0.490662	 3.239089
H	 -0.765070	 -2.405820	 4.124573
H	 -0.983555	 -2.467932	 2.400474
C	 -2.642941	 -0.513343	 3.519041
H	 -0.639394	 0.099553	 4.005868
H	 -0.965021	 0.023231	 2.296408
C	 -3.273604	 0.879856	 3.556363
H	 -2.824682	 -1.014675	 4.468184
H	 -3.141759	 -1.112293	 2.758687
C	 -4.774980	 0.848615	 3.840254
H	 -2.775645	 1.480028	 4.314962
H	 -3.096754	 1.380895	 2.606908
H	 -5.192858	 1.850404	 3.860347
H	 -4.982852	 0.384341	 4.800168
H	 -5.306255	 0.283912	 3.079247
C	 4.728119	 -1.109107	 -0.004993
H	 4.882018	 -1.033965	 -1.071845
H	 5.068212	 -2.067527	 0.355250
H	 5.265056	 -0.311663	 0.488280

	symmetry c1
}
set optking {
	frozen_dihedral = ("
		2 4 26 27
	")
}

ee = optimize('scf')
oeprop('DIPOLE', 'QUADRUPOLE', 'MULLIKEN_CHARGES')
f=open( 'psi4out.xyz', 'w' )
f.write( "29  " )
f.write( str(ee) + "\n" )
f.write( MOL.save_string_xyz() )
f.close()
--------------------------------------------------------------------------

    Molecular point group: c1
  Charge       = 0
  Multiplicity = 1
  Basis Set: 6-31G*
  Basis Set:
  @DF-RHF Final Energy:  -501.04178787628962
    Total Energy =                       -501.0417878762891633
    Molecular point group: c1
  Basis Set: 6-31G*
  Basis Set:
  Basis Set: 6-31G*
  Basis Set:
  @DF-RHF Final Energy:  -501.04310824380821
    Total Energy =                       -501.0431082438078647
  Basis Set: 6-31G*
  Basis Set:
  Basis Set: 6-31G*
  Basis Set:
  @DF-RHF Final Energy:  -501.04348520853603
    Total Energy =                       -501.0434852085362536
  Basis Set: 6-31G*
  Basis Set:
  Basis Set: 6-31G*
  Basis Set:
  @DF-RHF Final Energy:  -501.04278541009614
    Total Energy =                       -501.0427854100962577
  Basis Set: 6-31G*
  Basis Set:
  Basis Set: 6-31G*
  Basis Set:
  @DF-RHF Final Energy:  -501.04349944980413
    Total Energy =                       -501.0434994498032211
  Basis Set: 6-31G*
  Basis Set:
  Basis Set: 6-31G*
  Basis Set:
  @DF-RHF Final Energy:  -501.04350051222377
    Total Energy =                       -501.0435005122245684
  Basis Set: 6-31G*
  Basis Set:
  Charge       = 0
  Multiplicity = 1
  Basis Set: 6-31G*
  Basis Set:

    Orbital Energies (a.u.)
    -----------------------

    Doubly Occupied:

       1A    -20.603080     2A    -20.544969     3A    -11.372368
       4A    -11.280313     5A    -11.234533     6A    -11.218913
       7A    -11.217521     8A    -11.215899     9A    -11.215774
      10A    -11.214376    11A    -11.209012    12A     -1.468229
      13A     -1.362666    14A     -1.097929    15A     -1.066706
      16A     -1.019518    17A     -0.977431    18A     -0.928526
      19A     -0.861459    20A     -0.799172    21A     -0.790394
      22A     -0.763589    23A     -0.700851    24A     -0.681768
      25A     -0.672199    26A     -0.650811    27A     -0.628906
      28A     -0.604800    29A     -0.594459    30A     -0.580977
      31A     -0.567558    32A     -0.549413    33A     -0.532842
      34A     -0.529155    35A     -0.515114    36A     -0.511917
      37A     -0.496231    38A     -0.477692    39A     -0.470138
      40A     -0.462275    41A     -0.458513    42A     -0.455491
      43A     -0.440709    44A     -0.435403

  @DF-RHF Final Energy:  -501.04350032017157

   => Energetics <=

    Nuclear Repulsion Energy =            609.9839987384876849
    One-Electron Energy =               -1891.0958055975406751
    Two-Electron Energy =                 780.0683065388814157
    DFT Exchange-Correlation Energy =       0.0000000000000000
    Empirical Dispersion Energy =           0.0000000000000000
    PCM Polarization Energy =               0.0000000000000000
    EFP Energy =                            0.0000000000000000
    Total Energy =                       -501.0435003201716881
    Molecular point group: c1
  Basis Set: 6-31G*
  Basis Set:

  -Total Gradient:
     Atom            X                  Y                   Z
    ------   -----------------  -----------------  -----------------
       1       -0.000009070248    -0.000006727408     0.000031558029
       2       -0.000202544527    -0.001243432361    -0.000579785640
       3        0.000015361183    -0.000026970298    -0.000023058675
       4        0.000294732577     0.001448651181     0.000757629859
       5        0.000004042556     0.000033729069     0.000017557678
       6        0.000028409304    -0.000012732599     0.000005379887
       7        0.000004505683     0.000008397066    -0.000004440435
       8       -0.000000275278     0.000004633955    -0.000026649352
       9       -0.000002070969     0.000013178986    -0.000008135664
      10       -0.000003125350    -0.000005510661     0.000018985280
      11       -0.000013093066    -0.000002945997     0.000004214107
      12       -0.000000382451    -0.000015077817    -0.000008277885
      13        0.000008181763     0.000013992357    -0.000016978477
      14        0.000004055027    -0.000001863299     0.000015436190
      15        0.000008653860     0.000007166584    -0.000000864622
      16       -0.000030102060    -0.000010217012     0.000017993652
      17        0.000000983210     0.000000327621     0.000003856359
      18       -0.000003110382    -0.000000818616     0.000001311676
      19        0.000003184022     0.000001315189     0.000000893162
      20       -0.000000401946    -0.000000107137    -0.000002027124
      21       -0.000001035467    -0.000000087969     0.000000680690
      22        0.000001024028     0.000000336893    -0.000000042470
      23       -0.000000018916    -0.000000156159    -0.000000773802
      24        0.000000649701     0.000000489217    -0.000000162517
      25       -0.000000498251    -0.000000406072     0.000000218306
      26        0.000055780356     0.001374223717    -0.000100881424
      27       -0.000141220199    -0.001548992889    -0.000119196702
      28       -0.000007699079    -0.000020258509     0.000016443964
      29       -0.000014915095    -0.000010137031    -0.000000884050

  **** Optimization is complete! (in 7 steps) ****
    Final optimized geometry and variables:
    Molecular point group: c1

    Geometry (in Angstrom), charge = 0, multiplicity = 1:

    O            3.249290293124    -1.070141926574    -0.064634270779
    C            2.493344371574    -0.603022353129    -0.854052756321
    C            1.000655646813    -0.472410924554    -0.669650456673
    O            2.871650320331    -0.120313443011    -2.031505907368
    C            0.514367041579    -0.998096301907     0.679140445708
    H            0.753242985637     0.574436764313    -0.811333547640
    H            0.525898205219    -1.003371781969    -1.490820263067
    C           -1.009454592533    -0.970099274038     0.839445738451
    H            0.978683877060    -0.424931172735     1.476011750327
    H            0.865449221117    -2.017193264699     0.799934720513
    C           -1.628224419874     0.430010134759     0.883764806671
    H           -1.260717826876    -1.490132203526     1.760947483316
    H           -1.469233432300    -1.542789380605     0.035298655296
    C           -3.133283571826     0.406899827613     1.158128076229
    H           -1.131203095017     1.016459861774     1.655035620408
    H           -1.450629637448     0.948080147630    -0.055920618439
    C           -3.763407939317     1.800235766921     1.199038934393
    H           -3.318751786744    -0.098363265062     2.104458408699
    H           -3.629596662580    -0.188573705512     0.393419262849
    C           -5.265997582694     1.768500362140     1.476401394726
    H           -3.268379968438     2.396743639033     1.962427594317
    H           -3.582277749093     2.305439389214     0.252604155892
    H           -5.683489948165     2.770400378495     1.499000836831
    H           -5.478166902086     1.300220478491     2.433422640602
    H           -5.794289950460     1.207311356802     0.710732115241
    C            4.245344449730    -0.202975773114    -2.366438613897
    H            4.297738267487    -0.108007482995    -3.440087471310
    H            4.657549851930    -1.151108975463    -2.057894632928
    H            4.794323704152     0.598261666936    -1.890742599820

  Mulliken Charges: (a.u.)
   Center  Symbol    Alpha    Beta     Spin     Total
       1     O     4.28578  4.28578  0.00000 -0.57157
       2     C     2.60474  2.60474  0.00000  0.79051
       3     C     3.20977  3.20977  0.00000 -0.41954
       4     O     4.30808  4.30808  0.00000 -0.61616
       5     C     3.15379  3.15379  0.00000 -0.30758
       6     H     0.39872  0.39872  0.00000  0.20257
       7     H     0.40142  0.40142  0.00000  0.19715
       8     C     3.15664  3.15664  0.00000 -0.31328
       9     H     0.41309  0.41309  0.00000  0.17383
      10     H     0.40879  0.40879  0.00000  0.18242
      11     C     3.15502  3.15502  0.00000 -0.31004
      12     H     0.41826  0.41826  0.00000  0.16348
      13     H     0.42391  0.42391  0.00000  0.15219
      14     C     3.15030  3.15030  0.00000 -0.30060
      15     H     0.42260  0.42260  0.00000  0.15480
      16     H     0.42361  0.42361  0.00000  0.15278
      17     C     3.15145  3.15145  0.00000 -0.30291
      18     H     0.42333  0.42333  0.00000  0.15335
      19     H     0.42400  0.42400  0.00000  0.15201
      20     C     3.23935  3.23935  0.00000 -0.47869
      21     H     0.42279  0.42279  0.00000  0.15441
      22     H     0.42343  0.42343  0.00000  0.15313
      23     H     0.41924  0.41924  0.00000  0.16153
      24     H     0.42155  0.42155  0.00000  0.15690
      25     H     0.42184  0.42184  0.00000  0.15632
      26     C     3.09368  3.09368  0.00000 -0.18737
      27     H     0.40916  0.40916  0.00000  0.18168
      28     H     0.40336  0.40336  0.00000  0.19327
      29     H     0.41229  0.41229  0.00000  0.17543

   Total alpha = 44.00000, Total beta = 44.00000, Total charge = -0.00000
