  ==> Input File <==

--------------------------------------------------------------------------
set {
	reference rhf
	basis 6-31G*
}

set_num_threads( 4 )
memory 2 gb

molecule MOL {
0 1

H	 -3.261111	 -0.295142	 1.469456
C	 -3.306842	 -0.277400	 0.373456
C	 -2.660244	 0.921717	 -0.272021
O	 -3.838538	 -1.161155	 -0.216482
C	 -1.220012	 1.144545	 0.209990
H	 -2.705793	 0.797307	 -1.347733
H	 -3.263782	 1.790044	 -0.010477
C	 -0.252658	 0.041456	 -0.226725
H	 -0.873521	 2.100229	 -0.171974
H	 -1.211708	 1.231594	 1.295398
C	 1.180775	 0.282413	 0.250794
H	 -0.266029	 -0.034465	 -1.312038
H	 -0.597733	 -0.921000	 0.146291
C	 2.148627	 -0.814315	 -0.201312
H	 1.516199	 1.249228	 -0.115937
H	 1.192670	 0.346017	 1.338083
C	 3.580890	 -0.659131	 0.322722
H	 2.166869	 -0.852443	 -1.289387
H	 1.762857	 -1.776509	 0.128956
C	 4.527716	 -1.794673	 -0.069304
H	 3.544212	 -0.595636	 1.407420
H	 3.990028	 0.288221	 -0.022318
H	 4.135675	 -2.757061	 0.249099
H	 4.685878	 -1.840180	 -1.141632
H	 5.499510	 -1.663917	 0.397081

	symmetry c1
}
set optking {
	frozen_dihedral = ("
		20 17 14 18
	")
}

ee = optimize('scf')
oeprop('DIPOLE', 'QUADRUPOLE', 'MULLIKEN_CHARGES')
f=open( 'psi4out.xyz', 'w' )
f.write( "25  " )
f.write( str(ee) + "\n" )
f.write( MOL.save_string_xyz() )
f.close()
--------------------------------------------------------------------------

    Molecular point group: c1
  Charge       = 0
  Multiplicity = 1
  Basis Set: 6-31G*
  Basis Set:
  @DF-RHF Final Energy:  -387.12322813415216
    Total Energy =                       -387.1232281341510770
    Molecular point group: c1
  Basis Set: 6-31G*
  Basis Set:
  Basis Set: 6-31G*
  Basis Set:
  @DF-RHF Final Energy:  -387.12337850975814
    Total Energy =                       -387.1233785097577993
  Basis Set: 6-31G*
  Basis Set:
  Basis Set: 6-31G*
  Basis Set:
  @DF-RHF Final Energy:  -387.12012590398962
    Total Energy =                       -387.1201259039899014
  Basis Set: 6-31G*
  Basis Set:
  Basis Set: 6-31G*
  Basis Set:
  @DF-RHF Final Energy:  -387.12352524850110
    Total Energy =                       -387.1235252485012097
  Basis Set: 6-31G*
  Basis Set:
  @DF-RHF Final Energy:  -387.12358406748319
    Total Energy =                       -387.1235840674830797
  @DF-RHF Final Energy:  -387.12363167335963
    Total Energy =                       -387.1236316733600233
  Basis Set: 6-31G*
  Basis Set:
  @DF-RHF Final Energy:  -387.12362428477093
    Total Energy =                       -387.1236242847706990
  Basis Set: 6-31G*
  Basis Set:
  Basis Set: 6-31G*
  Basis Set:
  @DF-RHF Final Energy:  -387.12363115410909
    Total Energy =                       -387.1236311541088071
  Basis Set: 6-31G*
  Basis Set:
  Basis Set: 6-31G*
  Basis Set:
  @DF-RHF Final Energy:  -387.12363648854404
    Total Energy =                       -387.1236364885442072
  Basis Set: 6-31G*
  Basis Set:
  Charge       = 0
  Multiplicity = 1
  Basis Set: 6-31G*
  Basis Set:

    Orbital Energies (a.u.)
    -----------------------

    Doubly Occupied:

       1A    -20.562051     2A    -11.326199     3A    -11.235394
       4A    -11.234706     5A    -11.223995     6A    -11.220283
       7A    -11.217722     8A    -11.216734     9A    -11.210179
      10A     -1.401989    11A     -1.104009    12A     -1.070165
      13A     -1.015228    14A     -0.943587    15A     -0.868089
      16A     -0.814325    17A     -0.794211    18A     -0.787063
      19A     -0.665361    20A     -0.664162    21A     -0.639418
      22A     -0.615312    23A     -0.605705    24A     -0.592540
      25A     -0.567588    26A     -0.552410    27A     -0.538733
      28A     -0.521554    29A     -0.505692    30A     -0.499859
      31A     -0.488093    32A     -0.476757    33A     -0.466338
      34A     -0.465674    35A     -0.440480    36A     -0.409583

  @DF-RHF Final Energy:  -387.12363702006661

   => Energetics <=

    Nuclear Repulsion Energy =            435.3954131306596196
    One-Electron Energy =               -1387.1157267442308694
    Two-Electron Energy =                 564.5966765935047533
    DFT Exchange-Correlation Energy =       0.0000000000000000
    Empirical Dispersion Energy =           0.0000000000000000
    PCM Polarization Energy =               0.0000000000000000
    EFP Energy =                            0.0000000000000000
    Total Energy =                       -387.1236370200665533
    Molecular point group: c1
  Basis Set: 6-31G*
  Basis Set:

  -Total Gradient:
     Atom            X                  Y                   Z
    ------   -----------------  -----------------  -----------------
       1        0.000001871172    -0.000006884557    -0.000000367249
       2       -0.000014073659     0.000017190544     0.000006794023
       3        0.000002377530     0.000002993395     0.000002732795
       4        0.000002417171    -0.000005398294     0.000003716929
       5       -0.000001618347     0.000000574918     0.000002582926
       6        0.000000067155    -0.000015618721     0.000000581995
       7        0.000003350807     0.000005872318    -0.000013987812
       8       -0.000001154654     0.000002800263    -0.000001487394
       9       -0.000009185041     0.000005206881     0.000008537960
      10        0.000007608986    -0.000010349327     0.000002370337
      11       -0.000001087885    -0.000004315971     0.000004984387
      12        0.000006637682     0.000014041848     0.000001565572
      13       -0.000001489755    -0.000005621307    -0.000014459034
      14        0.000050889148    -0.000555325171     0.000115120249
      15        0.000009694729    -0.000005326170    -0.000001963768
      16       -0.000009943480     0.000006292756    -0.000000459720
      17        0.000077802184     0.000309917060    -0.000377487847
      18       -0.000059052665     0.000402967487    -0.000025618276
      19        0.000002781589     0.000002846038     0.000005557824
      20       -0.000063768547    -0.000150173637     0.000262254096
      21       -0.000012908917    -0.000014273639     0.000002568731
      22        0.000008504995     0.000003051559     0.000018001792
      23        0.000012849410     0.000002585214     0.000015544968
      24       -0.000017578300    -0.000012031641     0.000000606721
      25        0.000005008704     0.000008978154    -0.000017690206

  **** Optimization is complete! (in 10 steps) ****
    Final optimized geometry and variables:
    Molecular point group: c1

    Geometry (in Angstrom), charge = 0, multiplicity = 1:

    H           -3.317516735112    -0.014469434746     1.421497243146
    C           -3.342237511831     0.015939595958     0.325009344729
    C           -2.667813407647     1.213459562255    -0.294615557139
    O           -3.879490073317    -0.851304237444    -0.284163933331
    C           -1.231788921868     1.407760360174     0.211962704160
    H           -2.698640818392     1.103443670542    -1.372470898690
    H           -3.262141917523     2.087412400537    -0.031050684078
    C           -0.272328348595     0.300823824853    -0.232511182454
    H           -0.867160601087     2.366393254343    -0.145456385021
    H           -1.238090712804     1.472881020470     1.298752254315
    C            1.158049763829     0.516665292378     0.264679862497
    H           -0.274068688198     0.244261697107    -1.319037413382
    H           -0.632713651729    -0.663988093537     0.119709127688
    C            2.122685636599    -0.584894216418    -0.178469419903
    H            1.521264222468     1.478631065586    -0.093157409478
    H            1.156162978732     0.577257641636     1.351726798683
    C            3.555929875037    -0.364084513521     0.308707666865
    H            2.119338436211    -0.647623596888    -1.265293327586
    H            1.763075859876    -1.546066450355     0.184524808541
    C            4.504959056018    -1.490956669938    -0.097668173285
    H            3.556687911753    -0.267521426241     1.392460201972
    H            3.927492909426     0.580938746387    -0.081698548302
    H            4.183050851552    -2.442291224159     0.316249870611
    H            4.546462237408    -1.598826526023    -1.177888612281
    H            5.514255885843    -1.301633381204     0.254490331137

  Mulliken Charges: (a.u.)
   Center  Symbol    Alpha    Beta     Spin     Total
       1     H     0.43261  0.43261  0.00000  0.13478
       2     C     2.83084  2.83084  0.00000  0.33833
       3     C     3.20816  3.20816  0.00000 -0.41631
       4     O     4.23774  4.23774  0.00000 -0.47547
       5     C     3.16669  3.16669  0.00000 -0.33338
       6     H     0.39970  0.39970  0.00000  0.20060
       7     H     0.40659  0.40659  0.00000  0.18682
       8     C     3.15493  3.15493  0.00000 -0.30987
       9     H     0.41280  0.41280  0.00000  0.17440
      10     H     0.41960  0.41960  0.00000  0.16081
      11     C     3.15258  3.15258  0.00000 -0.30515
      12     H     0.41806  0.41806  0.00000  0.16387
      13     H     0.41832  0.41832  0.00000  0.16336
      14     C     3.15117  3.15117  0.00000 -0.30234
      15     H     0.42291  0.42291  0.00000  0.15417
      16     H     0.42331  0.42331  0.00000  0.15338
      17     C     3.15179  3.15179  0.00000 -0.30359
      18     H     0.42270  0.42270  0.00000  0.15460
      19     H     0.42234  0.42234  0.00000  0.15532
      20     C     3.23946  3.23946  0.00000 -0.47893
      21     H     0.42317  0.42317  0.00000  0.15366
      22     H     0.42296  0.42296  0.00000  0.15409
      23     H     0.42115  0.42115  0.00000  0.15770
      24     H     0.42136  0.42136  0.00000  0.15729
      25     H     0.41906  0.41906  0.00000  0.16188

   Total alpha = 36.00000, Total beta = 36.00000, Total charge =  0.00000
