  ==> Input File <==

--------------------------------------------------------------------------
set {
	reference rhf
	basis 6-31G*
}

set_num_threads( 4 )
memory 2 gb

molecule MOL {
0 1

H	 2.772958	 -0.235967	 0.647767
O	 1.930766	 -0.679141	 0.680871
C	 1.050492	 0.053836	 0.000068
C	 -0.318135	 -0.576402	 0.000164
O	 1.351376	 1.074637	 -0.527596
C	 -1.454360	 0.441875	 -0.000474
H	 -0.374042	 -1.230163	 -0.866135
H	 -0.374274	 -1.229227	 0.867154
C	 -2.826123	 -0.230780	 0.000056
H	 -1.357605	 1.085198	 -0.868380
H	 -1.357504	 1.086451	 0.866496
H	 -2.959731	 -0.858053	 -0.876869
H	 -3.619374	 0.509403	 -0.000080
H	 -2.959371	 -0.857318	 0.877556

	symmetry c1
}
set optking {
	frozen_dihedral = ("
		2 3 4 7
	")
}

ee = optimize('scf')
oeprop('DIPOLE', 'QUADRUPOLE', 'MULLIKEN_CHARGES')
f=open( 'psi4out.xyz', 'w' )
f.write( "14  " )
f.write( str(ee) + "\n" )
f.write( MOL.save_string_xyz() )
f.close()
--------------------------------------------------------------------------

    Molecular point group: c1
  Charge       = 0
  Multiplicity = 1
  Basis Set: 6-31G*
  Basis Set:
  @DF-RHF Final Energy:  -305.87977453699011
    Total Energy =                       -305.8797745369898848
    Molecular point group: c1
  Basis Set: 6-31G*
  Basis Set:
  Basis Set: 6-31G*
  Basis Set:
  @DF-RHF Final Energy:  -305.87998133735755
    Total Energy =                       -305.8799813373576058
  Basis Set: 6-31G*
  Basis Set:
  Basis Set: 6-31G*
  Basis Set:
  @DF-RHF Final Energy:  -305.88001956445055
    Total Energy =                       -305.8800195644504925
  Basis Set: 6-31G*
  Basis Set:
  Basis Set: 6-31G*
  Basis Set:
  @DF-RHF Final Energy:  -305.88009734474986
    Total Energy =                       -305.8800973447500269
  Basis Set: 6-31G*
  Basis Set:
  Charge       = 0
  Multiplicity = 1
  Basis Set: 6-31G*
  Basis Set:

    Orbital Energies (a.u.)
    -----------------------

    Doubly Occupied:

       1A    -20.614509     2A    -20.550719     3A    -11.381809
       4A    -11.240887     5A    -11.227681     6A    -11.217808
       7A     -1.475617     8A     -1.365860     9A     -1.083388
      10A     -0.979309    11A     -0.856816    12A     -0.794836
      13A     -0.701459    14A     -0.688663    15A     -0.661143
      16A     -0.619832    17A     -0.593679    18A     -0.572252
      19A     -0.547613    20A     -0.507277    21A     -0.491999
      22A     -0.484387    23A     -0.475950    24A     -0.443241

  @DF-RHF Final Energy:  -305.88009767411404

   => Energetics <=

    Nuclear Repulsion Energy =            239.9405308603427045
    One-Electron Energy =                -892.4877862657248215
    Two-Electron Energy =                 346.6671577312680483
    DFT Exchange-Correlation Energy =       0.0000000000000000
    Empirical Dispersion Energy =           0.0000000000000000
    PCM Polarization Energy =               0.0000000000000000
    EFP Energy =                            0.0000000000000000
    Total Energy =                       -305.8800976741140403
    Molecular point group: c1
  Basis Set: 6-31G*
  Basis Set:

  -Total Gradient:
     Atom            X                  Y                   Z
    ------   -----------------  -----------------  -----------------
       1        0.000001575596    -0.000008453018    -0.000026535468
       2       -0.000155461442     0.000404804848     0.000853387976
       3        0.000140017595    -0.000326743655    -0.001243919104
       4        0.000410387824    -0.000848490198     0.000924976614
       5       -0.000021286115    -0.000057720987     0.000049866839
       6        0.000016233414    -0.000002095550     0.000028477924
       7       -0.000384832159     0.000799712170    -0.000576839487
       8        0.000017464859     0.000019089175    -0.000013994996
       9       -0.000007248516     0.000003320609    -0.000003825717
      10       -0.000007678219     0.000001400438     0.000004970647
      11       -0.000015196058     0.000016293025     0.000003587415
      12        0.000005139658    -0.000005441738     0.000001440308
      13        0.000005034587     0.000000695793    -0.000003881033
      14       -0.000004151024     0.000003629088     0.000002288083

  **** Optimization is complete! (in 5 steps) ****
    Final optimized geometry and variables:
    Molecular point group: c1

    Geometry (in Angstrom), charge = 0, multiplicity = 1:

    H            2.805395707079    -0.240139363386     0.534047261744
    O            1.965681267517    -0.681629857792     0.618996508977
    C            1.052168137740     0.042326512413    -0.024222504762
    C           -0.313375253305    -0.596674860664     0.006763136368
    O            1.322929823766     1.065540002189    -0.564651850956
    C           -1.446826047795     0.429261177179    -0.022925253614
    H           -0.373115189881    -1.236828360035    -0.871248389128
    H           -0.381073441134    -1.243379977682     0.873211302066
    C           -2.821461221079    -0.235973182984    -0.057179612218
    H           -1.320024691553     1.070549303581    -0.886871833372
    H           -1.373104816917     1.071230473536     0.850319750739
    H           -2.935300706328    -0.859416972341    -0.939560358643
    H           -3.610433612637     0.508572397155    -0.075280030426
    H           -2.979902777966    -0.864436308921     0.814573759868

  Mulliken Charges: (a.u.)
   Center  Symbol    Alpha    Beta     Spin     Total
       1     H     0.26812  0.26812  0.00000  0.46377
       2     O     4.35014  4.35014  0.00000 -0.70029
       3     C     2.62203  2.62203  0.00000  0.75594
       4     C     3.21021  3.21021  0.00000 -0.42042
       5     O     4.27974  4.27974  0.00000 -0.55948
       6     C     3.15642  3.15642  0.00000 -0.31284
       7     H     0.39845  0.39845  0.00000  0.20309
       8     H     0.39890  0.39890  0.00000  0.20220
       9     C     3.24242  3.24242  0.00000 -0.48483
      10     H     0.40329  0.40329  0.00000  0.19343
      11     H     0.41515  0.41515  0.00000  0.16970
      12     H     0.42020  0.42020  0.00000  0.15960
      13     H     0.41445  0.41445  0.00000  0.17110
      14     H     0.42048  0.42048  0.00000  0.15904

   Total alpha = 24.00000, Total beta = 24.00000, Total charge =  0.00000
