  ==> Input File <==

--------------------------------------------------------------------------
set {
	reference rhf
	basis cc-pvtz
}

set_num_threads( 4 )
memory 2 gb

molecule MOL {
0 1

O	 0.395927	 1.296676	 -0.000076
C	 0.503051	 0.114301	 -0.000074
C	 -0.701422	 -0.805636	 -0.000109
C	 1.858118	 -0.556123	 0.000212
C	 -1.434447	 -0.867292	 1.330663
H	 -1.366162	 -0.475118	 -0.794032
H	 -0.359862	 -1.792734	 -0.300800
H	 -1.796008	 0.110347	 1.620013
H	 -2.281393	 -1.539545	 1.262739
H	 -0.780802	 -1.218953	 2.117629
H	 1.961106	 -1.191101	 -0.872843
H	 2.636688	 0.191085	 -0.000109
H	 1.961070	 -1.190284	 0.873873

	symmetry c1
}
set optking {
	frozen_dihedral = ("
		6 3 2 1
	")
}

ee = optimize('scf')
oeprop('DIPOLE', 'QUADRUPOLE', 'MULLIKEN_CHARGES')
f=open( 'psi4out.xyz', 'w' )
f.write( "13  " )
f.write( str(ee) + "\n" )
f.write( MOL.save_string_xyz() )
f.close()
--------------------------------------------------------------------------

    Molecular point group: c1
  Charge       = 0
  Multiplicity = 1
  Basis Set: CC-PVTZ
  Basis Set:
  @DF-RHF Final Energy:  -231.08041920743975
    Total Energy =                       -231.0804192074397463
    Molecular point group: c1
  Basis Set: CC-PVTZ
  Basis Set:
  Basis Set: CC-PVTZ
  Basis Set:
  @DF-RHF Final Energy:  -231.08106979781462
    Total Energy =                       -231.0810697978146209
  Basis Set: CC-PVTZ
  Basis Set:
  Basis Set: CC-PVTZ
  Basis Set:
  @DF-RHF Final Energy:  -231.07984110779270
    Total Energy =                       -231.0798411077927312
  Basis Set: CC-PVTZ
  Basis Set:
  Basis Set: CC-PVTZ
  Basis Set:
  @DF-RHF Final Energy:  -231.08132008485762
    Total Energy =                       -231.0813200848576798
  Basis Set: CC-PVTZ
  Basis Set:
  Basis Set: CC-PVTZ
  Basis Set:
  @DF-RHF Final Energy:  -231.08133892139639
    Total Energy =                       -231.0813389213961955
  Basis Set: CC-PVTZ
  Basis Set:
  Charge       = 0
  Multiplicity = 1
  Basis Set: CC-PVTZ
  Basis Set:

    Orbital Energies (a.u.)
    -----------------------

    Doubly Occupied:

       1A    -20.537958     2A    -11.320894     3A    -11.231703
       4A    -11.228370     5A    -11.223368     6A     -1.398552
       7A     -1.064682     8A     -1.000348     9A     -0.881763
      10A     -0.734435    11A     -0.658077    12A     -0.647875
      13A     -0.610775    14A     -0.592077    15A     -0.570321
      16A     -0.538765    17A     -0.526486    18A     -0.503323
      19A     -0.482964    20A     -0.402196

  @DF-RHF Final Energy:  -231.08133958361427

   => Energetics <=

    Nuclear Repulsion Energy =            177.3221345839603202
    One-Electron Energy =                -664.4970817684372832
    Two-Electron Energy =                 256.0936076008625832
    DFT Exchange-Correlation Energy =       0.0000000000000000
    Empirical Dispersion Energy =           0.0000000000000000
    PCM Polarization Energy =               0.0000000000000000
    EFP Energy =                            0.0000000000000000
    Total Energy =                       -231.0813395836144082
    Molecular point group: c1
  Basis Set: CC-PVTZ
  Basis Set:

  -Total Gradient:
     Atom            X                  Y                   Z
    ------   -----------------  -----------------  -----------------
       1        0.000030074117     0.000027444471     0.000120244964
       2        0.000004665701    -0.000019884498    -0.000157256368
       3       -0.000051161017     0.000028881669     0.000154189990
       4       -0.000000748050     0.000020648362    -0.000089383951
       5        0.000001575085     0.000013015496    -0.000023625076
       6        0.000061316722    -0.000061221684    -0.000045046901
       7       -0.000018501270    -0.000013940334    -0.000009494595
       8       -0.000004044126     0.000004512708     0.000007844371
       9       -0.000009615376    -0.000009131221    -0.000002697175
      10        0.000002303392     0.000003273546    -0.000017877771
      11        0.000003828457    -0.000007374679     0.000026174693
      12       -0.000002598958     0.000001607169     0.000014801703
      13       -0.000017094677     0.000012169000     0.000022126115

  **** Optimization is complete! (in 6 steps) ****
    Final optimized geometry and variables:
    Molecular point group: c1

    Geometry (in Angstrom), charge = 0, multiplicity = 1:

    O            0.232193443691     1.438045474098    -0.239833432369
    C            0.380382790252     0.260227778557    -0.277049499223
    C           -0.817060564962    -0.673441193948    -0.299584717997
    C            1.752241314905    -0.367876118593    -0.286812837121
    C           -1.546366779026    -0.665121468485     1.045756206962
    H           -1.483868857862    -0.322897023937    -1.077896727113
    H           -0.508701795695    -1.680923589216    -0.552492887570
    H           -1.874784931072     0.335613879887     1.290867140532
    H           -2.413212705644    -1.312941147146     1.010173345588
    H           -0.903195168249    -1.015505398567     1.845729685269
    H            1.893711059166    -0.917344382788    -1.211781611982
    H            2.511941462629     0.392862867090    -0.194300866129
    H            1.841167111127    -1.081903796272     0.525308688201

  Mulliken Charges: (a.u.)
   Center  Symbol    Alpha    Beta     Spin     Total
       1     O     4.17642  4.17642  0.00000 -0.35285
       2     C     2.85394  2.85394  0.00000  0.29212
       3     C     3.09846  3.09846  0.00000 -0.19693
       4     C     3.15289  3.15289  0.00000 -0.30578
       5     C     3.14649  3.14649  0.00000 -0.29298
       6     H     0.44159  0.44159  0.00000  0.11682
       7     H     0.44961  0.44961  0.00000  0.10077
       8     H     0.44136  0.44136  0.00000  0.11727
       9     H     0.44749  0.44749  0.00000  0.10502
      10     H     0.45553  0.45553  0.00000  0.08895
      11     H     0.44904  0.44904  0.00000  0.10192
      12     H     0.43643  0.43643  0.00000  0.12713
      13     H     0.45073  0.45073  0.00000  0.09854

   Total alpha = 20.00000, Total beta = 20.00000, Total charge = -0.00000
