  ==> Input File <==

--------------------------------------------------------------------------
set {
	reference rhf
	basis 6-31G*
}

set_num_threads( 4 )
memory 2 gb

molecule MOL {
0 1

O	 -1.276010	 1.052711	 -0.768302
C	 -1.204840	 0.067374	 -0.106123
C	 -2.388195	 -0.672128	 0.458071
O	 -0.067104	 -0.527208	 0.221609
H	 -2.388023	 -1.694060	 0.097175
H	 -3.300579	 -0.174919	 0.164318
H	 -2.315377	 -0.706351	 1.539059
C	 1.170111	 0.034140	 -0.238951
C	 0.797973	 1.291091	 -1.005224
C	 1.911253	 -0.984947	 -1.090313
H	 1.763001	 0.286374	 0.627862
H	 0.258640	 1.982536	 -0.367830
H	 1.692645	 1.786134	 -1.368306
H	 0.170063	 1.049657	 -1.856160
H	 2.837809	 -0.558218	 -1.461004
H	 2.153773	 -1.866187	 -0.510162
H	 1.305969	 -1.279710	 -1.941638

	symmetry c1
}
set optking {
	frozen_dihedral = ("
		11 8 4 2
	")
}

ee = optimize('scf')
oeprop('DIPOLE', 'QUADRUPOLE', 'MULLIKEN_CHARGES')
f=open( 'psi4out.xyz', 'w' )
f.write( "17  " )
f.write( str(ee) + "\n" )
f.write( MOL.save_string_xyz() )
f.close()
--------------------------------------------------------------------------

    Molecular point group: c1
  Charge       = 0
  Multiplicity = 1
  Basis Set: 6-31G*
  Basis Set:
  @DF-RHF Final Energy:  -344.84343885550703
    Total Energy =                       -344.8434388555068608
    Molecular point group: c1
  Basis Set: 6-31G*
  Basis Set:
  Basis Set: 6-31G*
  Basis Set:
  @DF-RHF Final Energy:  -344.88693992335055
    Total Energy =                       -344.8869399233507806
  Basis Set: 6-31G*
  Basis Set:
  Basis Set: 6-31G*
  Basis Set:
  @DF-RHF Final Energy:  -344.89721689154260
    Total Energy =                       -344.8972168915425982
  Basis Set: 6-31G*
  Basis Set:
  Basis Set: 6-31G*
  Basis Set:
  @DF-RHF Final Energy:  -344.90125914021536
    Total Energy =                       -344.9012591402158137
  Basis Set: 6-31G*
  Basis Set:
  @DF-RHF Final Energy:  -344.89663325838984
    Total Energy =                       -344.8966332583897838
  @DF-RHF Final Energy:  -344.90275522104423
    Total Energy =                       -344.9027552210441172
  Basis Set: 6-31G*
  Basis Set:
  @DF-RHF Final Energy:  -344.90292494991905
    Total Energy =                       -344.9029249499193384
  Basis Set: 6-31G*
  Basis Set:
  Basis Set: 6-31G*
  Basis Set:
  @DF-RHF Final Energy:  -344.90293039123208
    Total Energy =                       -344.9029303912324167
  Basis Set: 6-31G*
  Basis Set:
  Basis Set: 6-31G*
  Basis Set:
  @DF-RHF Final Energy:  -344.90293272853387
    Total Energy =                       -344.9029327285338695
  Basis Set: 6-31G*
  Basis Set:
  Charge       = 0
  Multiplicity = 1
  Basis Set: 6-31G*
  Basis Set:

    Orbital Energies (a.u.)
    -----------------------

    Doubly Occupied:

       1A    -20.595970     2A    -20.538324     3A    -11.375093
       4A    -11.297728     5A    -11.229073     6A    -11.220078
       7A    -11.212616     8A     -1.457746     9A     -1.360689
      10A     -1.080308    11A     -1.001689    12A     -0.946015
      13A     -0.865020    14A     -0.740080    15A     -0.686359
      16A     -0.676749    17A     -0.656281    18A     -0.613593
      19A     -0.584108    20A     -0.579300    21A     -0.562139
      22A     -0.548484    23A     -0.535698    24A     -0.515313
      25A     -0.507344    26A     -0.482633    27A     -0.436765
      28A     -0.427750

  @DF-RHF Final Energy:  -344.90293312709582

   => Energetics <=

    Nuclear Repulsion Energy =            323.4547853313274572
    One-Electron Energy =               -1111.2495417577772514
    Two-Electron Energy =                 442.8918232993539732
    DFT Exchange-Correlation Energy =       0.0000000000000000
    Empirical Dispersion Energy =           0.0000000000000000
    PCM Polarization Energy =               0.0000000000000000
    EFP Energy =                            0.0000000000000000
    Total Energy =                       -344.9029331270958210
    Molecular point group: c1
  Basis Set: 6-31G*
  Basis Set:

  -Total Gradient:
     Atom            X                  Y                   Z
    ------   -----------------  -----------------  -----------------
       1        0.000002778531     0.000038922206    -0.000007077362
       2        0.000015339595     0.000206547398     0.000379433254
       3        0.000002722889     0.000012576167     0.000024271773
       4       -0.000108131735    -0.000325068977    -0.000630392974
       5        0.000002608321     0.000002654065    -0.000005444222
       6        0.000005072100     0.000000501748    -0.000003838266
       7       -0.000003104273    -0.000005968826     0.000013179947
       8        0.000245514633    -0.000419223873     0.000218880138
       9       -0.000032477150     0.000004727447    -0.000009488443
      10        0.000001819744     0.000022102343     0.000005181253
      11       -0.000172720018     0.000457458111     0.000006558273
      12        0.000008975504    -0.000000331621    -0.000000061711
      13        0.000009584736     0.000003306617     0.000006866074
      14        0.000009215652     0.000003017640     0.000004031067
      15        0.000009978654    -0.000002624956    -0.000005803201
      16        0.000002651030     0.000001605754    -0.000001366327
      17        0.000000171793    -0.000000201247     0.000005070724

  **** Optimization is complete! (in 10 steps) ****
    Final optimized geometry and variables:
    Molecular point group: c1

    Geometry (in Angstrom), charge = 0, multiplicity = 1:

    O           -1.419433502866     0.955051619487    -0.358501847345
    C           -1.144682568502    -0.010546645592     0.276189199386
    C           -2.166401313996    -0.893648755831     0.947358046226
    O            0.073372229812    -0.477409994549     0.500327704650
    H           -2.075156275355    -1.908085278902     0.576987811692
    H           -3.157670172094    -0.514135231674     0.748785830833
    H           -1.984813765894    -0.917197150979     2.015708191361
    C            1.332389079548     0.079428394043     0.074685407940
    C            1.290519174649     1.378747237490    -0.719995031063
    C            2.044252554940    -1.032022960428    -0.681520969751
    H            1.854548295954     0.268658592307     1.004445358491
    H            0.798354939506     2.173473263960    -0.179465103956
    H            2.320596905024     1.673392472985    -0.900519246754
    H            0.794347867917     1.259660304057    -1.672874620965
    H            3.063032228403    -0.738821964853    -0.912894071279
    H            2.073467436900    -1.938655891756    -0.088745623200
    H            1.529686108207    -1.246835425517    -1.612530680425

  Mulliken Charges: (a.u.)
   Center  Symbol    Alpha    Beta     Spin     Total
       1     O     4.28249  4.28249  0.00000 -0.56497
       2     C     2.61936  2.61936  0.00000  0.76128
       3     C     3.27988  3.27988  0.00000 -0.55977
       4     O     4.32315  4.32315  0.00000 -0.64630
       5     H     0.40213  0.40213  0.00000  0.19574
       6     H     0.39855  0.39855  0.00000  0.20290
       7     H     0.40216  0.40216  0.00000  0.19568
       8     C     2.91406  2.91406  0.00000  0.17189
       9     C     3.24644  3.24644  0.00000 -0.49288
      10     C     3.24251  3.24251  0.00000 -0.48503
      11     H     0.41306  0.41306  0.00000  0.17389
      12     H     0.40301  0.40301  0.00000  0.19398
      13     H     0.42288  0.42288  0.00000  0.15423
      14     H     0.40645  0.40645  0.00000  0.18709
      15     H     0.41849  0.41849  0.00000  0.16302
      16     H     0.41053  0.41053  0.00000  0.17894
      17     H     0.41485  0.41485  0.00000  0.17030

   Total alpha = 28.00000, Total beta = 28.00000, Total charge =  0.00000
