  ==> Input File <==

--------------------------------------------------------------------------
set {
	reference rhf
	basis cc-pvtz
}

set_num_threads( 4 )
memory 2 gb

molecule MOL {
0 1

H	 -0.838118	 -1.259011	 -0.419814
O	 -1.432053	 -0.565244	 -0.200812
C	 -0.727158	 0.534527	 0.310686
C	 0.680222	 0.664433	 -0.252229
H	 -1.306802	 1.408001	 0.044211
H	 -0.690821	 0.490158	 1.397609
C	 1.605391	 -0.489360	 0.123098
H	 0.615089	 0.745647	 -1.332226
H	 1.101414	 1.597893	 0.110950
H	 1.247627	 -1.432485	 -0.275204
H	 2.601435	 -0.332816	 -0.273062
H	 1.691776	 -0.589902	 1.200774

	symmetry c1
}
set optking {
	frozen_dihedral = ("
		1 2 3 4
	")
}

ee = optimize('scf')
oeprop('DIPOLE', 'QUADRUPOLE', 'MULLIKEN_CHARGES')
f=open( 'psi4out.xyz', 'w' )
f.write( "12  " )
f.write( str(ee) + "\n" )
f.write( MOL.save_string_xyz() )
f.close()
--------------------------------------------------------------------------

    Molecular point group: c1
  Charge       = 0
  Multiplicity = 1
  Basis Set: CC-PVTZ
  Basis Set:
  @DF-RHF Final Energy:  -193.18878128662979
    Total Energy =                       -193.1887812866297907
    Molecular point group: c1
  Basis Set: CC-PVTZ
  Basis Set:
  Basis Set: CC-PVTZ
  Basis Set:
  @DF-RHF Final Energy:  -193.18888661987063
    Total Energy =                       -193.1888866198706012
  Basis Set: CC-PVTZ
  Basis Set:
  Basis Set: CC-PVTZ
  Basis Set:
  @DF-RHF Final Energy:  -193.18893944335156
    Total Energy =                       -193.1889394433517282
  Basis Set: CC-PVTZ
  Basis Set:
  Basis Set: CC-PVTZ
  Basis Set:
  @DF-RHF Final Energy:  -193.18894073273646
    Total Energy =                       -193.1889407327363983
  Basis Set: CC-PVTZ
  Basis Set:
  Charge       = 0
  Multiplicity = 1
  Basis Set: CC-PVTZ
  Basis Set:

    Orbital Energies (a.u.)
    -----------------------

    Doubly Occupied:

       1A    -20.543785     2A    -11.265366     3A    -11.223215
       4A    -11.220334     5A     -1.362544     6A     -1.055575
       7A     -0.930943     8A     -0.817720     9A     -0.683724
      10A     -0.642670    11A     -0.618891    12A     -0.584399
      13A     -0.551631    14A     -0.510502    15A     -0.494883
      16A     -0.468552    17A     -0.433911

  @DF-RHF Final Energy:  -193.18894154087835

   => Energetics <=

    Nuclear Repulsion Energy =            133.2228266998187394
    One-Electron Energy =                -526.0062468694359268
    Two-Electron Energy =                 199.5944786287388411
    DFT Exchange-Correlation Energy =       0.0000000000000000
    Empirical Dispersion Energy =           0.0000000000000000
    PCM Polarization Energy =               0.0000000000000000
    EFP Energy =                            0.0000000000000000
    Total Energy =                       -193.1889415408783748
    Molecular point group: c1
  Basis Set: CC-PVTZ
  Basis Set:

  -Total Gradient:
     Atom            X                  Y                   Z
    ------   -----------------  -----------------  -----------------
       1        0.000187965471     0.000722758912    -0.001826711371
       2       -0.000016728456    -0.001234623487     0.002650641695
       3       -0.000598106843     0.001247539917    -0.001745057297
       4        0.000419743797    -0.000761515175     0.000912225754
       5        0.000005853162     0.000007039997     0.000003586161
       6        0.000007143433     0.000001364246    -0.000003158295
       7        0.000006881083     0.000012277721    -0.000003805947
       8       -0.000006476844    -0.000000953216     0.000000697896
       9        0.000001518137    -0.000001995588     0.000006690214
      10       -0.000012625418     0.000009788020    -0.000001301759
      11        0.000007586050     0.000001623670     0.000001004987
      12       -0.000002753570    -0.000003305018     0.000005187963

  **** Optimization is complete! (in 5 steps) ****
    Final optimized geometry and variables:
    Molecular point group: c1

    Geometry (in Angstrom), charge = 0, multiplicity = 1:

    H           -0.877799847164    -1.261738347085    -0.423997726247
    O           -1.454003390630    -0.557593747106    -0.194166192807
    C           -0.727896792050     0.528805512544     0.317786979843
    C            0.678877365734     0.654405155758    -0.247037001077
    H           -1.297371311355     1.417901713887     0.080637938834
    H           -0.676189034051     0.455340901162     1.402380144908
    C            1.613704475458    -0.489176084001     0.140909209687
    H            0.619433130655     0.733593592630    -1.328509267068
    H            1.097022117818     1.589877047571     0.111542249136
    H            1.276828878445    -1.447106892590    -0.242847118413
    H            2.607791255661    -0.324471601640    -0.256580855834
    H            1.695936939467    -0.577729907375     1.218743321220

  Mulliken Charges: (a.u.)
   Center  Symbol    Alpha    Beta     Spin     Total
       1     H     0.39188  0.39188  0.00000  0.21624
       2     O     4.20705  4.20705  0.00000 -0.41410
       3     C     2.95700  2.95700  0.00000  0.08601
       4     C     3.09945  3.09945  0.00000 -0.19889
       5     H     0.45730  0.45730  0.00000  0.08539
       6     H     0.47660  0.47660  0.00000  0.04679
       7     C     3.14708  3.14708  0.00000 -0.29416
       8     H     0.44926  0.44926  0.00000  0.10147
       9     H     0.45387  0.45387  0.00000  0.09226
      10     H     0.46378  0.46378  0.00000  0.07243
      11     H     0.44521  0.44521  0.00000  0.10958
      12     H     0.45151  0.45151  0.00000  0.09697

   Total alpha = 17.00000, Total beta = 17.00000, Total charge = -0.00000
