  ==> Input File <==

--------------------------------------------------------------------------
set {
	reference rhf
	basis 6-31G*
}

set_num_threads( 4 )
memory 2 gb

molecule MOL {
0 1

O	 2.504303	 1.912604	 -0.407426
C	 1.711064	 1.920975	 -1.298191
C	 0.445484	 1.083112	 -1.263145
C	 1.918642	 2.775902	 -2.531547
C	 0.291004	 0.242674	 0.000989
H	 -0.402740	 1.755571	 -1.384396
H	 0.440335	 0.449954	 -2.149423
C	 -0.994322	 -0.586602	 0.000262
H	 0.308054	 0.896558	 0.867173
H	 1.151928	 -0.410710	 0.101220
C	 -2.259874	 0.272531	 0.000494
H	 -1.004862	 -1.240012	 -0.870939
H	 -1.005220	 -1.241071	 0.870675
C	 -3.549786	 -0.549746	 -0.000374
H	 -2.250389	 0.926680	 -0.869574
H	 -2.250838	 0.925513	 0.871430
C	 -4.809590	 0.315458	 -0.000369
H	 -3.560515	 -1.202009	 -0.871156
H	 -3.561123	 -1.202955	 0.869711
H	 -4.844746	 0.956611	 -0.876632
H	 -5.706986	 -0.295590	 -0.001609
H	 -4.845960	 0.954827	 0.877144
H	 1.094415	 3.472729	 -2.652791
H	 2.845617	 3.325170	 -2.442913
H	 1.949073	 2.154841	 -3.422048

	symmetry c1
}
set optking {
	frozen_dihedral = ("
		9 5 8 12
	")
}

ee = optimize('scf')
oeprop('DIPOLE', 'QUADRUPOLE', 'MULLIKEN_CHARGES')
f=open( 'psi4out.xyz', 'w' )
f.write( "25  " )
f.write( str(ee) + "\n" )
f.write( MOL.save_string_xyz() )
f.close()
--------------------------------------------------------------------------

    Molecular point group: c1
  Charge       = 0
  Multiplicity = 1
  Basis Set: 6-31G*
  Basis Set:
  @DF-RHF Final Energy:  -387.13402300728467
    Total Energy =                       -387.1340230072846680
    Molecular point group: c1
  Basis Set: 6-31G*
  Basis Set:
  Basis Set: 6-31G*
  Basis Set:
  @DF-RHF Final Energy:  -387.13441964185279
    Total Energy =                       -387.1344196418538104
  Basis Set: 6-31G*
  Basis Set:
  Basis Set: 6-31G*
  Basis Set:
  @DF-RHF Final Energy:  -387.13488460260703
    Total Energy =                       -387.1348846026069168
  Basis Set: 6-31G*
  Basis Set:
  Basis Set: 6-31G*
  Basis Set:
  @DF-RHF Final Energy:  -387.13487296018445
    Total Energy =                       -387.1348729601853620
  Basis Set: 6-31G*
  Basis Set:
  @DF-RHF Final Energy:  -387.13469538793760
    Total Energy =                       -387.1346953879375405
  Basis Set: 6-31G*
  Basis Set:
  @DF-RHF Final Energy:  -387.13491270229582
    Total Energy =                       -387.1349127022965604
  Basis Set: 6-31G*
  Basis Set:
  Basis Set: 6-31G*
  Basis Set:
  @DF-RHF Final Energy:  -387.13491408935175
    Total Energy =                       -387.1349140893518097
  Basis Set: 6-31G*
  Basis Set:
  Basis Set: 6-31G*
  Basis Set:
  @DF-RHF Final Energy:  -387.13491541362561
    Total Energy =                       -387.1349154136260040
  Basis Set: 6-31G*
  Basis Set:
  Charge       = 0
  Multiplicity = 1
  Basis Set: 6-31G*
  Basis Set:

    Orbital Energies (a.u.)
    -----------------------

    Doubly Occupied:

       1A    -20.550369     2A    -11.326261     3A    -11.231366
       4A    -11.228288     5A    -11.217363     6A    -11.217247
       7A    -11.216737     8A    -11.216083     9A    -11.210504
      10A     -1.395714    11A     -1.094525    12A     -1.055818
      13A     -1.014572    14A     -0.968144    15A     -0.897587
      16A     -0.815931    17A     -0.787770    18A     -0.731053
      19A     -0.658268    20A     -0.649745    21A     -0.637833
      22A     -0.621003    23A     -0.597512    24A     -0.579739
      25A     -0.568036    26A     -0.566527    27A     -0.542656
      28A     -0.528440    29A     -0.516565    30A     -0.493243
      31A     -0.487058    32A     -0.477345    33A     -0.463211
      34A     -0.459072    35A     -0.446640    36A     -0.400764

  @DF-RHF Final Energy:  -387.13491557247829

   => Energetics <=

    Nuclear Repulsion Energy =            444.3699025618051905
    One-Electron Energy =               -1405.2716491619598855
    Two-Electron Energy =                 573.7668310276760621
    DFT Exchange-Correlation Energy =       0.0000000000000000
    Empirical Dispersion Energy =           0.0000000000000000
    PCM Polarization Energy =               0.0000000000000000
    EFP Energy =                            0.0000000000000000
    Total Energy =                       -387.1349155724785760
    Molecular point group: c1
  Basis Set: 6-31G*
  Basis Set:

  -Total Gradient:
     Atom            X                  Y                   Z
    ------   -----------------  -----------------  -----------------
       1        0.000004407033    -0.000003852399     0.000000218589
       2       -0.000003810052    -0.000000111979     0.000001787192
       3        0.000000211475     0.000003419607    -0.000001270404
       4       -0.000005401295     0.000007251574     0.000004922651
       5       -0.000001371249     0.000006583131     0.000012011982
       6        0.000001638067     0.000001107654     0.000000687669
       7       -0.000003973262    -0.000001288876     0.000001201742
       8        0.000009767788    -0.000016306500    -0.000009889073
       9       -0.000004762507     0.000007016964    -0.000012015243
      10        0.000001324397    -0.000005869179     0.000002822043
      11       -0.000000584361     0.000009062144     0.000002261877
      12       -0.000007778775     0.000004250795    -0.000005761080
      13        0.000001033635     0.000003945532    -0.000000378418
      14        0.000001264306    -0.000004898767     0.000014023811
      15        0.000004768003    -0.000000443907     0.000000211850
      16       -0.000003975735     0.000000512757     0.000001895334
      17        0.000003468572     0.000000723930    -0.000010788365
      18       -0.000004023408     0.000003115201     0.000001063835
      19        0.000001357443    -0.000005316283     0.000001895596
      20       -0.000002935515     0.000003537299    -0.000000410759
      21        0.000002198565    -0.000000914400    -0.000000869376
      22        0.000002821854    -0.000003260252     0.000000256798
      23        0.000000638935    -0.000002828036    -0.000003663160
      24        0.000000630059    -0.000001768806    -0.000000232182
      25        0.000003086021    -0.000003667209     0.000000017091

  **** Optimization is complete! (in 9 steps) ****
    Final optimized geometry and variables:
    Molecular point group: c1

    Geometry (in Angstrom), charge = 0, multiplicity = 1:

    O            3.103216655031     1.000485427006     0.208799456803
    C            2.318738512892     1.077203047074    -0.686417585526
    C            0.994498805753     0.334053660577    -0.671195068976
    C            2.596464627776     1.930838645565    -1.906954868877
    C            0.779589071917    -0.513638109669     0.580933484238
    H            0.205013228885     1.072296102309    -0.792162352591
    H            0.951029791861    -0.286300466654    -1.565867888697
    C           -0.505158422806    -1.348870291447     0.555678025810
    H            0.781460172240     0.132122685811     1.453764368184
    H            1.630852451183    -1.175322542993     0.698383679498
    C           -1.803850982778    -0.538131357967     0.583080831392
    H           -0.501618399085    -1.994456557328    -0.321553198474
    H           -0.492910442213    -2.012600270670     1.417275677903
    C           -3.053712239392    -1.416584288525     0.669887684444
    H           -1.875727995714     0.085828510852    -0.305152473104
    H           -1.784093123284     0.142008054944     1.433408707402
    C           -4.351470943771    -0.609823332525     0.691895677916
    H           -3.070185630541    -2.103252977613    -0.173944271071
    H           -2.997622405600    -2.033941341681     1.563742320879
    H           -4.455344201505    -0.008554838630    -0.207076420972
    H           -5.218230910029    -1.260335805971     0.755849002288
    H           -4.379971814121     0.063615896234     1.543864683979
    H            1.828223161443     2.690052756535    -2.021117571119
    H            3.561971220476     2.406879891145    -1.806984159096
    H            2.583839415734     1.321869057265    -2.806186077396

  Mulliken Charges: (a.u.)
   Center  Symbol    Alpha    Beta     Spin     Total
       1     O     4.26108  4.26108  0.00000 -0.52216
       2     C     2.73572  2.73572  0.00000  0.52855
       3     C     3.21198  3.21198  0.00000 -0.42397
       4     C     3.28654  3.28654  0.00000 -0.57309
       5     C     3.14959  3.14959  0.00000 -0.29917
       6     H     0.40814  0.40814  0.00000  0.18372
       7     H     0.41063  0.41063  0.00000  0.17874
       8     C     3.15622  3.15622  0.00000 -0.31244
       9     H     0.41336  0.41336  0.00000  0.17327
      10     H     0.40932  0.40932  0.00000  0.18137
      11     C     3.15320  3.15320  0.00000 -0.30641
      12     H     0.42494  0.42494  0.00000  0.15012
      13     H     0.41871  0.41871  0.00000  0.16258
      14     C     3.15108  3.15108  0.00000 -0.30215
      15     H     0.42527  0.42527  0.00000  0.14945
      16     H     0.42289  0.42289  0.00000  0.15422
      17     C     3.23926  3.23926  0.00000 -0.47852
      18     H     0.42320  0.42320  0.00000  0.15360
      19     H     0.42204  0.42204  0.00000  0.15592
      20     H     0.42258  0.42258  0.00000  0.15484
      21     H     0.41887  0.41887  0.00000  0.16225
      22     H     0.42132  0.42132  0.00000  0.15736
      23     H     0.40874  0.40874  0.00000  0.18251
      24     H     0.39649  0.39649  0.00000  0.20702
      25     H     0.40881  0.40881  0.00000  0.18239

   Total alpha = 36.00000, Total beta = 36.00000, Total charge =  0.00000
