                              Psi4 1.0.54 Driver

  ==> Input File <==

--------------------------------------------------------------------------
set {
	reference rhf
	basis cc-pvtz
}

set_num_threads( 4 )
memory 2 gb

molecule MOL {
0 1

H	 -2.123894	 -0.667238	 -0.609809
O	 -2.041679	 -0.058866	 0.103463
C	 -0.959304	 0.780994	 -0.094939
C	 0.354905	 0.037902	 -0.006215
H	 -0.985899	 1.279578	 -1.057596
H	 -0.969809	 1.529522	 0.682889
F	 1.234210	 0.715590	 0.710271
F	 0.181619	 -1.129756	 0.577003
F	 0.890916	 -0.176522	 -1.183792

	symmetry c1
}
set optking {
	frozen_dihedral = ("
		7 4 3 5
	")
}

ee,wfn = optimize('scf', return_wfn=True)
oeprop( wfn, 'DIPOLE', 'QUADRUPOLE', 'MULLIKEN_CHARGES')
f=open( 'psi4out.xyz', 'w' )
f.write( "9  " )
f.write( str(ee) + "\n" )
f.write( MOL.save_string_xyz() )
f.close()
--------------------------------------------------------------------------

    Molecular point group: c1
  Charge       = 0
  Multiplicity = 1
  Basis Set: CC-PVTZ
  Basis Set:
  @DF-RHF Final Energy:  -450.83984750542822
    Total Energy =                       -450.8398475054280539
    Molecular point group: c1
  Basis Set: CC-PVTZ
  Basis Set:
  Basis Set: CC-PVTZ
  Basis Set:
  @DF-RHF Final Energy:  -450.84033929918866
    Total Energy =                       -450.8403392991884857
  Basis Set: CC-PVTZ
  Basis Set:
  Basis Set: CC-PVTZ
  Basis Set:
  @DF-RHF Final Energy:  -450.84076870780189
    Total Energy =                       -450.8407687078019421
  Basis Set: CC-PVTZ
  Basis Set:
  Basis Set: CC-PVTZ
  Basis Set:
  @DF-RHF Final Energy:  -450.84079181848881
    Total Energy =                       -450.8407918184887535
  Basis Set: CC-PVTZ
  Basis Set:
  Basis Set: CC-PVTZ
  Basis Set:
  @DF-RHF Final Energy:  -450.84079409133778
    Total Energy =                       -450.8407940913377843
  Basis Set: CC-PVTZ
  Basis Set:
  Charge       = 0
  Multiplicity = 1
  Basis Set: CC-PVTZ
  Basis Set:

    Orbital Energies (a.u.)
    -----------------------

    Doubly Occupied:

       1A    -26.337242     2A    -26.336563     3A    -26.335315
       4A    -20.582511     5A    -11.494225     6A    -11.310249
       7A     -1.746840     8A     -1.642340     9A     -1.641714
      10A     -1.405361    11A     -1.045159    12A     -0.929370
      13A     -0.836342    14A     -0.833522    15A     -0.810409
      16A     -0.732125    17A     -0.718927    18A     -0.703640
      19A     -0.669662    20A     -0.664550    21A     -0.647064
      22A     -0.631047    23A     -0.613652    24A     -0.531018
      25A     -0.483919

  @DF-RHF Final Energy:  -450.84079426435835

   => Energetics <=

    Nuclear Repulsion Energy =            276.6216424470559332
    One-Electron Energy =               -1175.5593454847553403
    Two-Electron Energy =                 448.0969087733411129
    DFT Exchange-Correlation Energy =       0.0000000000000000
    Empirical Dispersion Energy =           0.0000000000000000
    PCM Polarization Energy =               0.0000000000000000
    EFP Energy =                            0.0000000000000000
    Total Energy =                       -450.8407942643582942
    Molecular point group: c1
  Basis Set: CC-PVTZ
  Basis Set:

  -Total Gradient:
     Atom            X                  Y                   Z
    ------   -----------------  -----------------  -----------------
       1        0.000001324832    -0.000006409582     0.000005199347
       2       -0.000011824286    -0.000001642968     0.000000163291
       3        0.001685589290     0.003397294356     0.002607612388
       4        0.000955586187     0.001263663334    -0.003948636270
       5       -0.001625126005    -0.003198100890    -0.001454054301
       6        0.000004077193    -0.000001936730     0.000004017866
       7       -0.000955346393    -0.001465334088     0.002791225454
       8       -0.000026242100     0.000027335779    -0.000001622134
       9       -0.000028038720    -0.000014869210    -0.000003905645

  **** Optimization is complete! (in 6 steps) ****
    Final optimized geometry and variables:
    Molecular point group: c1

    Geometry (in Angstrom), charge = 0, multiplicity = 1:

    H           -2.168699818108    -0.693931282900    -0.583544971594
    O           -2.072152930681    -0.078696221150     0.121481356798
    C           -0.990861839952     0.760768002200    -0.091957543841
    C            0.359091495426     0.038864637250    -0.015396085181
    H           -1.046319399152     1.233454775266    -1.065084889328
    H           -1.010701097675     1.514177925578     0.678357452906
    F            1.235152160022     0.751511479942     0.662617393284
    F            0.266859236426    -1.130212742818     0.571541488900
    F            0.865763385505    -0.169061825944    -1.217156166991

  Mulliken Charges: (a.u.)
   Center  Symbol    Alpha    Beta     Spin     Total
       1     H     0.38975  0.38975  0.00000  0.22051
       2     O     4.18481  4.18481  0.00000 -0.36962
       3     C     3.00369  3.00369  0.00000 -0.00738
       4     C     2.68260  2.68260  0.00000  0.63481
       5     H     0.46070  0.46070  0.00000  0.07861
       6     H     0.44681  0.44681  0.00000  0.10637
       7     F     4.61141  4.61141  0.00000 -0.22282
       8     F     4.60627  4.60627  0.00000 -0.21254
       9     F     4.61397  4.61397  0.00000 -0.22793

   Total alpha = 25.00000, Total beta = 25.00000, Total charge =  0.00000

*** Psi4 exiting successfully. Buy a developer a beer!
