  ==> Input File <==

--------------------------------------------------------------------------
set {
	reference rhf
	basis 6-31G*
}

set_num_threads( 1 )
memory 2 gb

molecule MOL {
0 1

H	 -2.995051	 1.290787	 -1.947066
C	 -2.039063	 1.809691	 -2.090063
C	 -1.368747	 2.271752	 -0.821290
O	 -1.605512	 1.972073	 -3.184328
C	 -1.220012	 1.144545	 0.209990
H	 -0.409366	 2.704942	 -1.079441
H	 -1.989676	 3.061983	 -0.401008
C	 -0.252658	 0.041456	 -0.226725
H	 -0.875804	 1.576916	 1.144795
H	 -2.198255	 0.713809	 0.417989
C	 1.180775	 0.282413	 0.250794
H	 -0.266029	 -0.034465	 -1.312038
H	 -0.597733	 -0.921000	 0.146291
C	 2.148627	 -0.814315	 -0.201312
H	 1.516199	 1.249228	 -0.115937
H	 1.192670	 0.346017	 1.338083
C	 3.580890	 -0.659131	 0.322722
H	 2.166869	 -0.852443	 -1.289387
H	 1.762857	 -1.776509	 0.128956
C	 4.324889	 0.564933	 -0.213704
H	 4.142010	 -1.551473	 0.056605
H	 3.564836	 -0.624694	 1.410140
H	 4.342616	 0.565491	 -1.300421
H	 3.866655	 1.493402	 0.110242
H	 5.353900	 0.572371	 0.132816

	symmetry c1
}
set optking {
	frozen_dihedral = ("
		6 3 5 8,
		6 3 2 4,
		12 8 11 14,
		8 11 14 18,
		20 17 14 18
	")
}

ee = energy('scf')
oeprop('DIPOLE', 'QUADRUPOLE', 'MULLIKEN_CHARGES')
f=open( 'psi4out.xyz', 'w' )
f.write( "25  " )
f.write( str(ee) + "\n" )
f.write( MOL.save_string_xyz() )
f.close()
--------------------------------------------------------------------------

    Molecular point group: c1

    Geometry (in Angstrom), charge = 0, multiplicity = 1:

       Center              X                  Y                   Z               Mass
    ------------   -----------------  -----------------  -----------------  -----------------
           H         -3.535937540924     0.548399461608    -1.269986381165     1.007825032070
           C         -2.579949540924     1.067303461608    -1.412983381165    12.000000000000
           C         -1.909633540924     1.529364461608    -0.144210381165    12.000000000000
           O         -2.146398540924     1.229685461608    -2.507248381165    15.994914619560
           C         -1.760898540924     0.402157461608     0.887069618835    12.000000000000
           H         -0.950252540924     1.962554461608    -0.402361381165     1.007825032070
           H         -2.530562540924     2.319595461608     0.276071618835     1.007825032070
           C         -0.793544540924    -0.700931538392     0.450354618835    12.000000000000
           H         -1.416690540924     0.834528461608     1.821874618835     1.007825032070
           H         -2.739141540924    -0.028578538392     1.095068618835     1.007825032070
           C          0.639888459076    -0.459974538392     0.927873618835    12.000000000000
           H         -0.806915540924    -0.776852538392    -0.634958381165     1.007825032070
           H         -1.138619540924    -1.663387538392     0.823370618835     1.007825032070
           C          1.607740459076    -1.556702538392     0.475767618835    12.000000000000
           H          0.975312459076     0.506840461608     0.561142618835     1.007825032070
           H          0.651783459076    -0.396370538392     2.015162618835     1.007825032070
           C          3.040003459076    -1.401518538392     0.999801618835    12.000000000000
           H          1.625982459076    -1.594830538392    -0.612307381165     1.007825032070
           H          1.221970459076    -2.518896538392     0.806035618835     1.007825032070
           C          3.784002459076    -0.177454538392     0.463375618835    12.000000000000
           H          3.601123459076    -2.293860538392     0.733684618835     1.007825032070
           H          3.023949459076    -1.367081538392     2.087219618835     1.007825032070
           H          3.801729459076    -0.176896538392    -0.623341381165     1.007825032070
           H          3.325768459076     0.751014461608     0.787321618835     1.007825032070
           H          4.813013459076    -0.170016538392     0.809895618835     1.007825032070

  Charge       = 0
  Multiplicity = 1
  Basis Set: 6-31G*
  Basis Set:

    Orbital Energies (a.u.)
    -----------------------

    Doubly Occupied:

       1A    -20.562966     2A    -11.326623     3A    -11.235032
       4A    -11.233965     5A    -11.222550     6A    -11.218887
       7A    -11.216688     8A    -11.215537     9A    -11.208812
      10A     -1.402908    11A     -1.104291    12A     -1.068273
      13A     -1.011140    14A     -0.942351    15A     -0.876066
      16A     -0.821710    17A     -0.786246    18A     -0.779010
      19A     -0.664915    20A     -0.655105    21A     -0.643018
      22A     -0.616767    23A     -0.610344    24A     -0.591359
      25A     -0.571682    26A     -0.547674    27A     -0.540027
      28A     -0.519488    29A     -0.514647    30A     -0.499778
      31A     -0.484031    32A     -0.475326    33A     -0.462972
      34A     -0.455802    35A     -0.441275    36A     -0.410295

  @DF-RHF Final Energy:  -387.11859777636926

   => Energetics <=

    Nuclear Repulsion Energy =            446.0056957456906730
    One-Electron Energy =               -1408.3737937824921573
    Two-Electron Energy =                 575.2495002604323417
    DFT Exchange-Correlation Energy =       0.0000000000000000
    Empirical Dispersion Energy =           0.0000000000000000
    PCM Polarization Energy =               0.0000000000000000
    EFP Energy =                            0.0000000000000000
    Total Energy =                       -387.1185977763691426

  Mulliken Charges: (a.u.)
   Center  Symbol    Alpha    Beta     Spin     Total
       1     H     0.43220  0.43220  0.00000  0.13560
       2     C     2.83013  2.83013  0.00000  0.33974
       3     C     3.20876  3.20876  0.00000 -0.41751
       4     O     4.23837  4.23837  0.00000 -0.47675
       5     C     3.16933  3.16933  0.00000 -0.33865
       6     H     0.39951  0.39951  0.00000  0.20098
       7     H     0.40698  0.40698  0.00000  0.18604
       8     C     3.15977  3.15977  0.00000 -0.31954
       9     H     0.41165  0.41165  0.00000  0.17671
      10     H     0.41718  0.41718  0.00000  0.16563
      11     C     3.15485  3.15485  0.00000 -0.30969
      12     H     0.41477  0.41477  0.00000  0.17047
      13     H     0.41802  0.41802  0.00000  0.16396
      14     C     3.15343  3.15343  0.00000 -0.30685
      15     H     0.41968  0.41968  0.00000  0.16065
      16     H     0.42339  0.42339  0.00000  0.15322
      17     C     3.15269  3.15269  0.00000 -0.30539
      18     H     0.42114  0.42114  0.00000  0.15772
      19     H     0.42230  0.42230  0.00000  0.15541
      20     C     3.24134  3.24134  0.00000 -0.48269
      21     H     0.42032  0.42032  0.00000  0.15936
      22     H     0.42377  0.42377  0.00000  0.15246
      23     H     0.42067  0.42067  0.00000  0.15865
      24     H     0.42074  0.42074  0.00000  0.15851
      25     H     0.41901  0.41901  0.00000  0.16197

   Total alpha = 36.00000, Total beta = 36.00000, Total charge = -0.00000
