  ==> Input File <==

--------------------------------------------------------------------------
set {
	reference rhf
	basis 6-31G*
}

set_num_threads( 4 )
memory 2 gb

molecule MOL {
0 1

H	 2.232428	 -2.254664	 -1.709030
O	 1.923298	 -1.957981	 -0.858634
C	 1.158344	 -0.883228	 -1.048809
C	 0.624473	 -0.343591	 0.253101
O	 0.950349	 -0.439778	 -2.130985
C	 -0.265902	 0.883932	 0.072916
H	 0.101996	 -1.158439	 0.743421
H	 1.481107	 -0.118242	 0.883298
C	 -1.728698	 0.646073	 0.462102
H	 -0.209144	 1.219470	 -0.958188
H	 0.135059	 1.692851	 0.673903
C	 -2.482460	 -0.343073	 -0.431425
H	 -2.245265	 1.602650	 0.432430
H	 -1.779332	 0.308348	 1.496285
C	 -3.960546	 -0.461025	 -0.060175
H	 -2.395034	 -0.026811	 -1.468912
H	 -2.024850	 -1.327147	 -0.371646
H	 -4.472726	 -1.168004	 -0.705284
H	 -4.465146	 0.496508	 -0.151489
H	 -4.081218	 -0.800940	 0.964585

	symmetry c1
}
set optking {
	frozen_dihedral = ("
		7 4 6 10
	")
}

ee = optimize('scf')
oeprop('DIPOLE', 'QUADRUPOLE', 'MULLIKEN_CHARGES')
f=open( 'psi4out.xyz', 'w' )
f.write( "20  " )
f.write( str(ee) + "\n" )
f.write( MOL.save_string_xyz() )
f.close()
--------------------------------------------------------------------------

    Molecular point group: c1
  Charge       = 0
  Multiplicity = 1
  Basis Set: 6-31G*
  Basis Set:
  @DF-RHF Final Energy:  -383.94449650855518
    Total Energy =                       -383.9444965085550621
    Molecular point group: c1
  Basis Set: 6-31G*
  Basis Set:
  Basis Set: 6-31G*
  Basis Set:
  @DF-RHF Final Energy:  -383.94486084128579
    Total Energy =                       -383.9448608412856174
  Basis Set: 6-31G*
  Basis Set:
  Basis Set: 6-31G*
  Basis Set:
  @DF-RHF Final Energy:  -383.94487247360541
    Total Energy =                       -383.9448724736049599
  Basis Set: 6-31G*
  Basis Set:
  Basis Set: 6-31G*
  Basis Set:
  @DF-RHF Final Energy:  -383.94491031377316
    Total Energy =                       -383.9449103137727661
  Basis Set: 6-31G*
  Basis Set:
  Basis Set: 6-31G*
  Basis Set:
  @DF-RHF Final Energy:  -383.94496559082069
    Total Energy =                       -383.9449655908205159
  Basis Set: 6-31G*
  Basis Set:
  Basis Set: 6-31G*
  Basis Set:
  @DF-RHF Final Energy:  -383.94497156155967
    Total Energy =                       -383.9449715615597825
  Basis Set: 6-31G*
  Basis Set:
  Basis Set: 6-31G*
  Basis Set:
  @DF-RHF Final Energy:  -383.94497524282644
    Total Energy =                       -383.9449752428262173
  Basis Set: 6-31G*
  Basis Set:
  Charge       = 0
  Multiplicity = 1
  Basis Set: 6-31G*
  Basis Set:

    Orbital Energies (a.u.)
    -----------------------

    Doubly Occupied:

       1A    -20.612994     2A    -20.552503     3A    -11.381885
       4A    -11.240422     5A    -11.221219     6A    -11.218004
       7A    -11.215336     8A    -11.209034     9A     -1.475301
      10A     -1.366136    11A     -1.093196    12A     -1.037234
      13A     -0.959850    14A     -0.868697    15A     -0.812558
      16A     -0.775597    17A     -0.700753    18A     -0.691929
      19A     -0.661196    20A     -0.631684    21A     -0.603652
      22A     -0.590864    23A     -0.574464    24A     -0.554343
      25A     -0.532847    26A     -0.512996    27A     -0.494995
      28A     -0.480102    29A     -0.466277    30A     -0.464434
      31A     -0.452831    32A     -0.445187

  @DF-RHF Final Energy:  -383.94497614283091

   => Energetics <=

    Nuclear Repulsion Energy =            384.4987980951434565
    One-Electron Energy =               -1285.0905072655502863
    Two-Electron Energy =                 516.6467330275756922
    DFT Exchange-Correlation Energy =       0.0000000000000000
    Empirical Dispersion Energy =           0.0000000000000000
    PCM Polarization Energy =               0.0000000000000000
    EFP Energy =                            0.0000000000000000
    Total Energy =                       -383.9449761428311376
    Molecular point group: c1
  Basis Set: 6-31G*
  Basis Set:

  -Total Gradient:
     Atom            X                  Y                   Z
    ------   -----------------  -----------------  -----------------
       1        0.000008614211     0.000000070447    -0.000001564206
       2       -0.000006135242    -0.000011071632    -0.000002635190
       3       -0.000076550614    -0.000009555974    -0.000018645035
       4        0.000411870519     0.000599038504     0.002130133795
       5        0.000054541703     0.000015912116     0.000010662201
       6        0.001707817456     0.001252612659     0.000055635628
       7       -0.000597477383    -0.000689137273    -0.001743515035
       8        0.000013027593     0.000023782461    -0.000009260482
       9        0.000003436528    -0.000014503189     0.000010628860
      10       -0.001514153841    -0.001173410281    -0.000421415581
      11       -0.000001823161     0.000004262647    -0.000000770238
      12       -0.000005252309     0.000020625764    -0.000017522083
      13        0.000010754407     0.000003609299     0.000003554708
      14       -0.000002926951    -0.000007097122    -0.000000951830
      15        0.000000690317    -0.000003800507    -0.000003184508
      16       -0.000006036184     0.000002651131    -0.000002343438
      17       -0.000002360185    -0.000009261092     0.000009614259
      18       -0.000000895427    -0.000003654294     0.000002381721
      19        0.000002869824    -0.000002381455    -0.000002907222
      20       -0.000000011263     0.000001307797     0.000002103676

  **** Optimization is complete! (in 8 steps) ****
    Final optimized geometry and variables:
    Molecular point group: c1

    Geometry (in Angstrom), charge = 0, multiplicity = 1:

    H            2.674766591864    -1.893879616649    -1.176028046082
    O            2.386306635307    -1.557676540516    -0.333159980489
    C            1.589622054247    -0.512523880406    -0.555469762830
    C            1.082390375449     0.073697311980     0.739984323308
    O            1.338551224429    -0.135864133227    -1.653839928641
    C            0.183843428268     1.310621594018     0.569805540591
    H            0.563409366637    -0.734661322656     1.246514440535
    H            1.955355177971     0.288684343466     1.347187465587
    C           -1.281152569380     1.074273954804     0.956692033172
    H            0.222188371469     1.636412423467    -0.462313025854
    H            0.579201883760     2.119819589289     1.174826243434
    C           -2.024435707447     0.107657033603     0.031013880495
    H           -1.797081343415     2.031831190341     0.947889136099
    H           -1.334580990812     0.710898874866     1.982152226335
    C           -3.488177604820    -0.080987480085     0.428484362752
    H           -1.967993814826     0.477312752436    -0.989479692368
    H           -1.530874782215    -0.861482032946     0.027628749065
    H           -3.992631561264    -0.766817198514    -0.244914269223
    H           -4.025871635874     0.862621791566     0.403136062254
    H           -3.574064536251    -0.482081091211     1.434635977488

  Mulliken Charges: (a.u.)
   Center  Symbol    Alpha    Beta     Spin     Total
       1     H     0.26763  0.26763  0.00000  0.46473
       2     O     4.34977  4.34977  0.00000 -0.69953
       3     C     2.62915  2.62915  0.00000  0.74171
       4     C     3.21319  3.21319  0.00000 -0.42638
       5     O     4.27902  4.27902  0.00000 -0.55804
       6     C     3.16349  3.16349  0.00000 -0.32697
       7     H     0.39605  0.39605  0.00000  0.20790
       8     H     0.39466  0.39466  0.00000  0.21068
       9     C     3.15582  3.15582  0.00000 -0.31165
      10     H     0.39521  0.39521  0.00000  0.20958
      11     H     0.41604  0.41604  0.00000  0.16792
      12     C     3.15340  3.15340  0.00000 -0.30680
      13     H     0.41984  0.41984  0.00000  0.16032
      14     H     0.42496  0.42496  0.00000  0.15007
      15     C     3.23946  3.23946  0.00000 -0.47892
      16     H     0.41483  0.41483  0.00000  0.17035
      17     H     0.42524  0.42524  0.00000  0.14952
      18     H     0.41820  0.41820  0.00000  0.16360
      19     H     0.42132  0.42132  0.00000  0.15736
      20     H     0.42273  0.42273  0.00000  0.15455

   Total alpha = 32.00000, Total beta = 32.00000, Total charge =  0.00000
