  ==> Input File <==

--------------------------------------------------------------------------
set {
	reference rhf
	basis 6-31G*
}

set_num_threads( 4 )
memory 2 gb

molecule MOL {
0 1

O	 3.092826	 1.388796	 0.981119
C	 2.627286	 0.301220	 0.864888
C	 1.245376	 -0.013843	 0.345420
O	 3.282839	 -0.807030	 1.186855
C	 0.455112	 1.231400	 -0.050772
H	 1.366755	 -0.700250	 -0.486028
H	 0.729050	 -0.574675	 1.120386
C	 -0.998893	 1.219485	 0.433193
H	 0.482531	 1.345121	 -1.130325
H	 0.957290	 2.103070	 0.354729
C	 -1.883438	 0.145884	 -0.207175
H	 -1.431207	 2.195402	 0.224832
H	 -1.019646	 1.105716	 1.516076
C	 -3.347647	 0.245583	 0.225435
H	 -1.822183	 0.231698	 -1.291012
H	 -1.510341	 -0.844814	 0.042401
C	 -4.239992	 -0.825570	 -0.404234
H	 -3.732888	 1.230466	 -0.033079
H	 -3.408585	 0.170602	 1.310038
C	 -5.701275	 -0.716658	 0.029921
H	 -4.179496	 -0.752714	 -1.488058
H	 -3.859041	 -1.810759	 -0.143352
H	 -6.308102	 -1.488908	 -0.432678
H	 -6.122175	 0.245478	 -0.248167
H	 -5.799072	 -0.820114	 1.106957
C	 4.596801	 -0.652710	 1.691410
H	 5.229126	 -0.166393	 0.962600
H	 4.955385	 -1.650489	 1.891062
H	 4.588777	 -0.068801	 2.600543

	symmetry c1
}
set optking {
	frozen_dihedral = ("
		6 3 5 9
	")
}

ee = optimize('scf')
oeprop('DIPOLE', 'QUADRUPOLE', 'MULLIKEN_CHARGES')
f=open( 'psi4out.xyz', 'w' )
f.write( "29  " )
f.write( str(ee) + "\n" )
f.write( MOL.save_string_xyz() )
f.close()
--------------------------------------------------------------------------

    Molecular point group: c1
  Charge       = 0
  Multiplicity = 1
  Basis Set: 6-31G*
  Basis Set:
  @DF-RHF Final Energy:  -501.04051262963242
    Total Energy =                       -501.0405126296326443
    Molecular point group: c1
  Basis Set: 6-31G*
  Basis Set:
  Basis Set: 6-31G*
  Basis Set:
  @DF-RHF Final Energy:  -501.04083674986202
    Total Energy =                       -501.0408367498623647
  Basis Set: 6-31G*
  Basis Set:
  Basis Set: 6-31G*
  Basis Set:
  @DF-RHF Final Energy:  -501.04087493452107
    Total Energy =                       -501.0408749345207298
  Basis Set: 6-31G*
  Basis Set:
  Basis Set: 6-31G*
  Basis Set:
  @DF-RHF Final Energy:  -501.04090202534405
    Total Energy =                       -501.0409020253441668
  Basis Set: 6-31G*
  Basis Set:
  @DF-RHF Final Energy:  -501.04085947820431
    Total Energy =                       -501.0408594782036289
  Basis Set: 6-31G*
  Basis Set:
  @DF-RHF Final Energy:  -501.04094277195361
    Total Energy =                       -501.0409427719537234
  Basis Set: 6-31G*
  Basis Set:
  Basis Set: 6-31G*
  Basis Set:
  @DF-RHF Final Energy:  -501.04094263458865
    Total Energy =                       -501.0409426345891006
  Basis Set: 6-31G*
  Basis Set:
  Basis Set: 6-31G*
  Basis Set:
  @DF-RHF Final Energy:  -501.04094897272421
    Total Energy =                       -501.0409489727248911
  Basis Set: 6-31G*
  Basis Set:
  Charge       = 0
  Multiplicity = 1
  Basis Set: 6-31G*
  Basis Set:

    Orbital Energies (a.u.)
    -----------------------

    Doubly Occupied:

       1A    -20.603579     2A    -20.545910     3A    -11.372595
       4A    -11.280826     5A    -11.235183     6A    -11.217516
       7A    -11.216638     8A    -11.215756     9A    -11.215491
      10A    -11.214129    11A    -11.208947    12A     -1.469544
      13A     -1.362899    14A     -1.097152    15A     -1.065689
      16A     -1.019413    17A     -0.976598    18A     -0.928164
      19A     -0.861361    20A     -0.799625    21A     -0.790453
      22A     -0.763325    23A     -0.700217    24A     -0.682225
      25A     -0.672601    26A     -0.652562    27A     -0.625508
      28A     -0.605774    29A     -0.593317    30A     -0.580865
      31A     -0.566792    32A     -0.550478    33A     -0.533291
      34A     -0.527722    35A     -0.515000    36A     -0.510009
      37A     -0.498799    38A     -0.475423    39A     -0.469859
      40A     -0.461636    41A     -0.458573    42A     -0.456211
      43A     -0.439358    44A     -0.437219

  @DF-RHF Final Energy:  -501.04094945819725

   => Energetics <=

    Nuclear Repulsion Energy =            610.5675925408449984
    One-Electron Energy =               -1892.2686151720758971
    Two-Electron Energy =                 780.6600731730345615
    DFT Exchange-Correlation Energy =       0.0000000000000000
    Empirical Dispersion Energy =           0.0000000000000000
    PCM Polarization Energy =               0.0000000000000000
    EFP Energy =                            0.0000000000000000
    Total Energy =                       -501.0409494581963372
    Molecular point group: c1
  Basis Set: 6-31G*
  Basis Set:

  -Total Gradient:
     Atom            X                  Y                   Z
    ------   -----------------  -----------------  -----------------
       1        0.000012908571     0.000010793686    -0.000014633738
       2        0.000007000296     0.000004580087     0.000018574222
       3       -0.003931382246    -0.002036743895     0.001088570725
       4       -0.000030813678    -0.000003456134    -0.000010568570
       5        0.003820139711     0.002378656330    -0.000067294422
       6        0.002633682159     0.001300877078    -0.000869312925
       7        0.000017960075    -0.000008546855    -0.000005776627
       8       -0.000009810970    -0.000019103747     0.000012156622
       9       -0.002524672897    -0.001605994629    -0.000169938141
      10       -0.000003185446    -0.000022931097     0.000006990408
      11        0.000000190419     0.000009622141     0.000009305708
      12       -0.000001693044    -0.000012361417    -0.000001735665
      13       -0.000004831678     0.000004432178     0.000010819700
      14       -0.000007158476     0.000012963482    -0.000017136102
      15        0.000012768855     0.000001943276     0.000004743907
      16        0.000007181939    -0.000006504794    -0.000000891938
      17        0.000002984584    -0.000012774216     0.000015198392
      18       -0.000009101686     0.000005111456     0.000002563083
      19        0.000008294522    -0.000000732339    -0.000007567613
      20       -0.000002463221     0.000007228849    -0.000009295968
      21        0.000001223300    -0.000002717147     0.000004784631
      22        0.000000934819    -0.000004522721     0.000003170855
      23       -0.000001039662     0.000003375904    -0.000004227114
      24       -0.000001200310     0.000002924976     0.000004944042
      25        0.000001674722    -0.000005021491    -0.000001995918
      26        0.000001702515    -0.000000049626     0.000000927101
      27       -0.000001398622     0.000000328714     0.000000340265
      28        0.000000890335    -0.000000645479    -0.000000170935
      29       -0.000000784911    -0.000000732571    -0.000002543984

  **** Optimization is complete! (in 9 steps) ****
    Final optimized geometry and variables:
    Molecular point group: c1

    Geometry (in Angstrom), charge = 0, multiplicity = 1:

    O            3.176620740075     1.242280469473     0.483881850412
    C            2.663347390497     0.173592373037     0.398307817948
    C            1.254409252820    -0.107986116603    -0.076232817130
    O            3.283644851231    -0.954292011862     0.722533889439
    C            0.486177842235     1.145329560194    -0.522788273839
    H            1.352434573695    -0.831293196208    -0.879040230205
    H            0.752068150137    -0.623346146234     0.736856719387
    C           -0.978954283424     1.158208657529    -0.071045135625
    H            0.507788727677     1.212352472377    -1.606998560520
    H            0.988367546927     2.023505848389    -0.139569417883
    C           -1.841727226081     0.061898653295    -0.701355632945
    H           -1.406783510714     2.126825484432    -0.319341512474
    H           -1.021998220101     1.076795003752     1.014043910829
    C           -3.304848974361     0.120486066617    -0.258352760802
    H           -1.790523611227     0.148844812782    -1.785693958685
    H           -1.436243384569    -0.917940806341    -0.456211916018
    C           -4.173775634477    -0.968877887996    -0.889575676735
    H           -3.717141022628     1.096958197343    -0.507087624386
    H           -3.356315643366     0.036509878136     0.826032936747
    C           -5.634067896874    -0.901608449412    -0.443783861029
    H           -4.123525620173    -0.886301385702    -1.973234487682
    H           -3.765150488962    -1.945706297921    -0.639265578101
    H           -6.224270627439    -1.685250766370    -0.908757745031
    H           -6.081735729659     0.051720179117    -0.710170614406
    H           -5.721009183705    -1.016900761835     0.632972440420
    C            4.615308732688    -0.844281614116     1.191004341739
    H            5.247174074805    -0.395603208825     0.438073980676
    H            4.939172278907    -1.852235867165     1.398723906268
    H            4.653959553415    -0.245863330548     2.089837662369

  Mulliken Charges: (a.u.)
   Center  Symbol    Alpha    Beta     Spin     Total
       1     O     4.28494  4.28494  0.00000 -0.56988
       2     C     2.61264  2.61264  0.00000  0.77472
       3     C     3.20853  3.20853  0.00000 -0.41705
       4     O     4.30568  4.30568  0.00000 -0.61136
       5     C     3.16158  3.16158  0.00000 -0.32315
       6     H     0.39771  0.39771  0.00000  0.20458
       7     H     0.39881  0.39881  0.00000  0.20239
       8     C     3.15775  3.15775  0.00000 -0.31550
       9     H     0.41856  0.41856  0.00000  0.16288
      10     H     0.39390  0.39390  0.00000  0.21221
      11     C     3.15460  3.15460  0.00000 -0.30920
      12     H     0.41916  0.41916  0.00000  0.16168
      13     H     0.42313  0.42313  0.00000  0.15374
      14     C     3.15023  3.15023  0.00000 -0.30046
      15     H     0.42355  0.42355  0.00000  0.15290
      16     H     0.42327  0.42327  0.00000  0.15346
      17     C     3.15141  3.15141  0.00000 -0.30282
      18     H     0.42335  0.42335  0.00000  0.15330
      19     H     0.42399  0.42399  0.00000  0.15201
      20     C     3.23933  3.23933  0.00000 -0.47865
      21     H     0.42302  0.42302  0.00000  0.15397
      22     H     0.42343  0.42343  0.00000  0.15314
      23     H     0.41931  0.41931  0.00000  0.16138
      24     H     0.42157  0.42157  0.00000  0.15685
      25     H     0.42178  0.42178  0.00000  0.15644
      26     C     3.09207  3.09207  0.00000 -0.18414
      27     H     0.40901  0.40901  0.00000  0.18199
      28     H     0.40854  0.40854  0.00000  0.18292
      29     H     0.40916  0.40916  0.00000  0.18167

   Total alpha = 44.00000, Total beta = 44.00000, Total charge = -0.00000
