                              Psi4 1.0.54 Driver

  ==> Input File <==

--------------------------------------------------------------------------
set {
	reference rhf
	basis cc-pvtz
}

set_num_threads( 4 )
memory 2 gb

molecule MOL {
0 1

H	 3.933578	 -0.870572	 -2.088472
C	 3.348242	 -1.025348	 -1.189843
C	 2.069394	 -0.195662	 -1.218491
H	 3.126021	 -2.084949	 -1.119830
H	 3.970965	 -0.762282	 -0.341297
C	 1.215950	 -0.382441	 0.027187
H	 1.475802	 -0.455373	 -2.087952
H	 2.325177	 0.856228	 -1.321830
N	 0.000002	 0.398953	 -0.040851
H	 0.938993	 -1.428469	 0.118234
H	 1.811255	 -0.143143	 0.913433
C	 -1.215959	 -0.382435	 0.027143
H	 -0.000012	 1.086078	 0.683841
C	 -2.451944	 0.502410	 -0.038737
H	 -1.221867	 -1.069392	 -0.813828
H	 -1.259993	 -0.999709	 0.929424
C	 -3.752217	 -0.292550	 0.005776
H	 -2.407325	 1.093801	 -0.946480
H	 -2.431979	 1.206234	 0.790023
H	 -3.817783	 -0.982946	 -0.828547
H	 -4.612613	 0.364348	 -0.042306
H	 -3.830160	 -0.871666	 0.919868

	symmetry c1
}
set optking {
	frozen_dihedral = ("
		10 6 9 12
	")
}

ee,wfn = optimize('scf', return_wfn=True)
oeprop( wfn, 'DIPOLE', 'QUADRUPOLE', 'MULLIKEN_CHARGES')
f=open( 'psi4out.xyz', 'w' )
f.write( "22  " )
f.write( str(ee) + "\n" )
f.write( MOL.save_string_xyz() )
f.close()
--------------------------------------------------------------------------

    Molecular point group: c1
  Charge       = 0
  Multiplicity = 1
  Basis Set: CC-PVTZ
  Basis Set:
  @DF-RHF Final Energy:  -290.48526087001665
    Total Energy =                       -290.4852608700165888
    Molecular point group: c1
  Basis Set: CC-PVTZ
  Basis Set:
  Basis Set: CC-PVTZ
  Basis Set:
  @DF-RHF Final Energy:  -290.46808562491918
    Total Energy =                       -290.4680856249192402
  Basis Set: CC-PVTZ
  Basis Set:
  Basis Set: CC-PVTZ
  Basis Set:
  @DF-RHF Final Energy:  -290.48566280004638
    Total Energy =                       -290.4856628000463843
  Basis Set: CC-PVTZ
  Basis Set:
  Basis Set: CC-PVTZ
  Basis Set:
  @DF-RHF Final Energy:  -290.48585737313323
    Total Energy =                       -290.4858573731327738
  Basis Set: CC-PVTZ
  Basis Set:
  Basis Set: CC-PVTZ
  Basis Set:
  @DF-RHF Final Energy:  -290.48586007350559
    Total Energy =                       -290.4858600735057621
  Basis Set: CC-PVTZ
  Basis Set:
  Charge       = 0
  Multiplicity = 1
  Basis Set: CC-PVTZ
  Basis Set:

    Orbital Energies (a.u.)
    -----------------------

    Doubly Occupied:

       1A    -15.526065     2A    -11.237265     3A    -11.236739
       4A    -11.211720     5A    -11.207670     6A    -11.205056
       7A    -11.204181     8A     -1.203068     9A     -1.057934
      10A     -1.025900    11A     -0.928313    12A     -0.871281
      13A     -0.805451    14A     -0.794218    15A     -0.669198
      16A     -0.633872    17A     -0.615324    18A     -0.599473
      19A     -0.581098    20A     -0.558108    21A     -0.540340
      22A     -0.521056    23A     -0.507520    24A     -0.488881
      25A     -0.483017    26A     -0.471034    27A     -0.466006
      28A     -0.452965    29A     -0.355739

  @DF-RHF Final Energy:  -290.48586071299798

   => Energetics <=

    Nuclear Repulsion Energy =            314.3848307675499996
    One-Electron Energy =               -1014.8244053195700189
    Two-Electron Energy =                 409.9537138390215887
    DFT Exchange-Correlation Energy =       0.0000000000000000
    Empirical Dispersion Energy =           0.0000000000000000
    PCM Polarization Energy =               0.0000000000000000
    EFP Energy =                            0.0000000000000000
    Total Energy =                       -290.4858607129984875
    Molecular point group: c1
  Basis Set: CC-PVTZ
  Basis Set:

  -Total Gradient:
     Atom            X                  Y                   Z
    ------   -----------------  -----------------  -----------------
       1        0.000006829714    -0.000005590099    -0.000013377013
       2       -0.000022379323    -0.000009187354    -0.000003578577
       3        0.000009489403     0.000025755786     0.000028132944
       4       -0.000002720763     0.000000321110     0.000003770943
       5       -0.000002220931     0.000007572769     0.000004018648
       6        0.000101518457     0.000075423553     0.000262648175
       7       -0.000008675792    -0.000010080563    -0.000009214838
       8        0.000001032722     0.000007679643    -0.000002343475
       9       -0.000061195466    -0.000042645767    -0.000283013645
      10       -0.000063296920    -0.000051324045    -0.000139805081
      11        0.000009461386     0.000004223023    -0.000006997827
      12       -0.000022934499     0.000003891547     0.000141138324
      13        0.000016760838    -0.000004882979     0.000026366671
      14        0.000025598119    -0.000001948504    -0.000007256787
      15        0.000007641582     0.000006461531    -0.000006688655
      16        0.000007371608     0.000000060575     0.000008457492
      17       -0.000019611040     0.000009000325    -0.000011046993
      18        0.000006297281     0.000010581435    -0.000020489353
      19        0.000009150213     0.000006070785     0.000002029623
      20       -0.000003513160    -0.000013049722    -0.000004042074
      21        0.000009605765    -0.000004897738     0.000003571510
      22       -0.000004209197    -0.000013435315     0.000027719988

  **** Optimization is complete! (in 6 steps) ****
    Final optimized geometry and variables:
    Molecular point group: c1

    Geometry (in Angstrom), charge = 0, multiplicity = 1:

    H            3.792306206058    -0.851122080040    -2.238286506354
    C            3.359617026618    -0.849776746597    -1.244735150099
    C            2.029373450709    -0.105012382254    -1.223963183402
    H            3.237529995245    -1.883716214448    -0.937786075641
    H            4.078993654633    -0.391229401435    -0.573577461898
    C            1.384980043031    -0.078816952203     0.157181123967
    H            1.335717742951    -0.563047629610    -1.921923351916
    H            2.170582323764     0.916654935895    -1.561745500833
    N            0.111674269865     0.628290545142     0.158656399122
    H            1.239674694668    -1.099513277713     0.500817440978
    H            2.074245474054     0.378550873641     0.863168766089
    C           -1.034908726083    -0.138591811047     0.597691216320
    H            0.178841051552     1.470629953930     0.685031234003
    C           -2.310737514331     0.687457681475     0.534219411167
    H           -1.135812927404    -1.000135966285    -0.055206296222
    H           -0.910009533080    -0.531334062865     1.610868269575
    C           -3.544917242930    -0.095092205765     0.969247752497
    H           -2.437765363439     1.052407272503    -0.478940104855
    H           -2.199472542650     1.564891784896     1.167089680212
    H           -3.702163048876    -0.962037235770     0.336179484974
    H           -4.435720141909     0.519241014675     0.913072813928
    H           -3.450336571048    -0.445963624635     1.991516571817

  Mulliken Charges: (a.u.)
   Center  Symbol    Alpha    Beta     Spin     Total
       1     H     0.44781  0.44781  0.00000  0.10438
       2     C     3.15565  3.15565  0.00000 -0.31131
       3     C     3.06552  3.06552  0.00000 -0.13104
       4     H     0.45615  0.45615  0.00000  0.08770
       5     H     0.45700  0.45700  0.00000  0.08601
       6     C     3.04360  3.04360  0.00000 -0.08720
       7     H     0.45622  0.45622  0.00000  0.08757
       8     H     0.45614  0.45614  0.00000  0.08771
       9     N     3.64240  3.64240  0.00000 -0.28480
      10     H     0.46000  0.46000  0.00000  0.07999
      11     H     0.45590  0.45590  0.00000  0.08819
      12     C     3.02309  3.02309  0.00000 -0.04617
      13     H     0.44370  0.44370  0.00000  0.11260
      14     C     3.08291  3.08291  0.00000 -0.16582
      15     H     0.45953  0.45953  0.00000  0.08094
      16     H     0.47326  0.47326  0.00000  0.05348
      17     C     3.15343  3.15343  0.00000 -0.30687
      18     H     0.44933  0.44933  0.00000  0.10134
      19     H     0.45962  0.45962  0.00000  0.08075
      20     H     0.45483  0.45483  0.00000  0.09033
      21     H     0.44770  0.44770  0.00000  0.10459
      22     H     0.45619  0.45619  0.00000  0.08761

   Total alpha = 29.00000, Total beta = 29.00000, Total charge = -0.00000

*** Psi4 exiting successfully. Buy a developer a beer!
