  ==> Input File <==

--------------------------------------------------------------------------
set {
	reference rhf
	basis cc-pvtz
}

set_num_threads( 4 )
memory 2 gb

molecule MOL {
0 1

O	 1.145774	 0.592882	 -2.229351
C	 0.424599	 0.769625	 -1.289465
C	 -0.738294	 1.734345	 -1.398228
N	 0.622280	 0.144970	 -0.099307
H	 -0.658421	 2.532177	 -0.670608
H	 -0.717484	 2.153512	 -2.390376
H	 -1.684530	 1.230777	 -1.243208
C	 1.664396	 -0.854993	 0.000772
C	 -0.332189	 0.152037	 0.983602
H	 2.462727	 -0.615153	 -0.690869
H	 1.261798	 -1.821849	 -0.240651
H	 2.081615	 -0.891605	 1.003877
H	 0.198846	 0.116137	 1.926125
H	 -0.930732	 1.046821	 0.981385
H	 -0.997845	 -0.707238	 0.943707

	symmetry c1
}
set optking {
	frozen_dihedral = ("
		2 4 8 10
	")
}

ee = optimize('scf')
oeprop('DIPOLE', 'QUADRUPOLE', 'MULLIKEN_CHARGES')
f=open( 'psi4out.xyz', 'w' )
f.write( "15  " )
f.write( str(ee) + "\n" )
f.write( MOL.save_string_xyz() )
f.close()
--------------------------------------------------------------------------

    Molecular point group: c1
  Charge       = 0
  Multiplicity = 1
  Basis Set: CC-PVTZ
  Basis Set:
  @DF-RHF Final Energy:  -286.13509385178747
    Total Energy =                       -286.1350938517873601
    Molecular point group: c1
  Basis Set: CC-PVTZ
  Basis Set:
  Basis Set: CC-PVTZ
  Basis Set:
  @DF-RHF Final Energy:  -286.13552308271971
    Total Energy =                       -286.1355230827196010
  Basis Set: CC-PVTZ
  Basis Set:
  Basis Set: CC-PVTZ
  Basis Set:
  @DF-RHF Final Energy:  -286.13545840258104
    Total Energy =                       -286.1354584025815484
  Basis Set: CC-PVTZ
  Basis Set:
  Basis Set: CC-PVTZ
  Basis Set:
  @DF-RHF Final Energy:  -286.13560521857221
    Total Energy =                       -286.1356052185721524
  Basis Set: CC-PVTZ
  Basis Set:
  Basis Set: CC-PVTZ
  Basis Set:
  @DF-RHF Final Energy:  -286.13560812362891
    Total Energy =                       -286.1356081236287991
  Basis Set: CC-PVTZ
  Basis Set:
  Basis Set: CC-PVTZ
  Basis Set:
  @DF-RHF Final Energy:  -286.13560961318643
    Total Energy =                       -286.1356096131864888
  Basis Set: CC-PVTZ
  Basis Set:
  Charge       = 0
  Multiplicity = 1
  Basis Set: CC-PVTZ
  Basis Set:

    Orbital Energies (a.u.)
    -----------------------

    Doubly Occupied:

       1A    -20.504390     2A    -15.578188     3A    -11.334824
       4A    -11.263920     5A    -11.246516     6A    -11.226560
       7A     -1.387941     8A     -1.245940     9A     -1.015020
      10A     -0.973154    11A     -0.920313    12A     -0.738861
      13A     -0.683075    14A     -0.661614    15A     -0.653842
      16A     -0.590151    17A     -0.578327    18A     -0.568167
      19A     -0.562099    20A     -0.547984    21A     -0.530349
      22A     -0.506342    23A     -0.414365    24A     -0.371001

  @DF-RHF Final Energy:  -286.13560998179287

   => Energetics <=

    Nuclear Repulsion Energy =            252.9683304266660855
    One-Electron Energy =                -890.0019962893751426
    Two-Electron Energy =                 350.8980558809160470
    DFT Exchange-Correlation Energy =       0.0000000000000000
    Empirical Dispersion Energy =           0.0000000000000000
    PCM Polarization Energy =               0.0000000000000000
    EFP Energy =                            0.0000000000000000
    Total Energy =                       -286.1356099817930385
    Molecular point group: c1
  Basis Set: CC-PVTZ
  Basis Set:

  -Total Gradient:
     Atom            X                  Y                   Z
    ------   -----------------  -----------------  -----------------
       1       -0.000015385291     0.000000258938    -0.000013117897
       2       -0.000106342810    -0.000091250397    -0.000026570605
       3       -0.000003849312    -0.000007632288    -0.000031612221
       4        0.000199950617     0.000196350735     0.000138270397
       5        0.000005621163    -0.000000029151    -0.000003845003
       6       -0.000007897179     0.000006790161    -0.000003885112
       7        0.000008303202     0.000007413650    -0.000004489283
       8       -0.000182176736    -0.000202980065    -0.000182514000
       9       -0.000002354958     0.000005064330    -0.000014065521
      10        0.000089872989     0.000105394141     0.000129369821
      11        0.000025929040    -0.000008689083    -0.000000538319
      12       -0.000019799465     0.000011333565    -0.000008184319
      13        0.000001091523    -0.000002246966     0.000004600795
      14        0.000010935136    -0.000015536960     0.000012588464
      15       -0.000003897918    -0.000004240610     0.000003992806

  **** Optimization is complete! (in 7 steps) ****
    Final optimized geometry and variables:
    Molecular point group: c1

    Geometry (in Angstrom), charge = 0, multiplicity = 1:

    O            0.670988914868     0.158105119975    -1.566415767426
    C           -0.040029583636     0.353860211216    -0.622794625828
    C           -1.194910891578     1.327686344972    -0.732542875942
    N            0.167101164288    -0.258831611413     0.572485383047
    H           -1.117622715810     2.118473016188     0.002790920058
    H           -1.163870385669     1.754528132732    -1.721202819673
    H           -2.145037416278     0.827334742662    -0.590825517241
    C            1.203574584500    -1.266751254427     0.656870120436
    C           -0.794604220590    -0.266164687197     1.649271721732
    H            1.986495454969    -1.042893110163    -0.045389967799
    H            0.816258314135    -2.258665144201     0.438770990514
    H            1.612655497412    -1.272663637274     1.659047686908
    H           -0.270746628425    -0.287029537245     2.596121123766
    H           -1.410686652774     0.616407982606     1.637415637325
    H           -1.443603964884    -1.138157628655     1.608050066732

  Mulliken Charges: (a.u.)
   Center  Symbol    Alpha    Beta     Spin     Total
       1     O     4.21979  4.21979  0.00000 -0.43959
       2     C     2.84512  2.84512  0.00000  0.30975
       3     C     3.16083  3.16083  0.00000 -0.32165
       4     N     3.56325  3.56325  0.00000 -0.12650
       5     H     0.44885  0.44885  0.00000  0.10230
       6     H     0.42865  0.42865  0.00000  0.14270
       7     H     0.44903  0.44903  0.00000  0.10193
       8     C     3.09658  3.09658  0.00000 -0.19316
       9     C     3.09559  3.09559  0.00000 -0.19118
      10     H     0.42833  0.42833  0.00000  0.14335
      11     H     0.45707  0.45707  0.00000  0.08585
      12     H     0.45729  0.45729  0.00000  0.08542
      13     H     0.44908  0.44908  0.00000  0.10183
      14     H     0.44522  0.44522  0.00000  0.10957
      15     H     0.45531  0.45531  0.00000  0.08938

   Total alpha = 24.00000, Total beta = 24.00000, Total charge = -0.00000
