  ==> Input File <==

--------------------------------------------------------------------------
set {
	reference rhf
	basis cc-pvtz
}

set_num_threads( 4 )
memory 2 gb

molecule MOL {
0 1

H	 3.296519	 -0.413552	 -0.019985
C	 2.237957	 -0.236382	 -0.015243
C	 1.389023	 -1.151165	 0.589584
C	 1.729617	 0.900348	 -0.611021
H	 1.791614	 -2.032224	 1.050506
C	 0.030426	 -0.927676	 0.597887
H	 2.388647	 1.606076	 -1.078036
C	 0.364946	 1.123418	 -0.601875
H	 -0.641719	 -1.622783	 1.060169
C	 -0.486398	 0.214248	 0.000000
H	 -0.037481	 2.006005	 -1.063682
C	 -1.946525	 0.470130	 0.000000
O	 -2.779618	 -0.371226	 0.000000
H	 -2.227127	 1.528393	 0.000000

	symmetry c1
}
set optking {
	frozen_dihedral = ("
		8 10 12 14
	")
}

ee = optimize('scf')
oeprop('DIPOLE', 'QUADRUPOLE', 'MULLIKEN_CHARGES')
f=open( 'psi4out.xyz', 'w' )
f.write( "14  " )
f.write( str(ee) + "\n" )
f.write( MOL.save_string_xyz() )
f.close()
--------------------------------------------------------------------------

    Molecular point group: c1
  Charge       = 0
  Multiplicity = 1
  Basis Set: CC-PVTZ
  Basis Set:
  @DF-RHF Final Energy:  -343.54700278931278
    Total Energy =                       -343.5470027893127281
    Molecular point group: c1
  Basis Set: CC-PVTZ
  Basis Set:
  Basis Set: CC-PVTZ
  Basis Set:
  @DF-RHF Final Energy:  -343.54435517995194
    Total Energy =                       -343.5443551799519355
  Basis Set: CC-PVTZ
  Basis Set:
  Basis Set: CC-PVTZ
  Basis Set:
  @DF-RHF Final Energy:  -343.54739780336490
    Total Energy =                       -343.5473978033650724
  Basis Set: CC-PVTZ
  Basis Set:
  Basis Set: CC-PVTZ
  Basis Set:
  @DF-RHF Final Energy:  -343.54746038195810
    Total Energy =                       -343.5474603819579897
  Basis Set: CC-PVTZ
  Basis Set:
  Charge       = 0
  Multiplicity = 1
  Basis Set: CC-PVTZ
  Basis Set:

    Orbital Energies (a.u.)
    -----------------------

    Doubly Occupied:

       1A    -20.554775     2A    -11.327965     3A    -11.251630
       4A    -11.248558     5A    -11.246907     6A    -11.245545
       7A    -11.243530     8A    -11.241959     9A     -1.410345
      10A     -1.176569    11A     -1.051157    12A     -1.035587
      13A     -0.892221    14A     -0.847684    15A     -0.795217
      16A     -0.725558    17A     -0.681847    18A     -0.656838
      19A     -0.627225    20A     -0.622333    21A     -0.605969
      22A     -0.556771    23A     -0.530274    24A     -0.510529
      25A     -0.508492    26A     -0.426000    27A     -0.354882
      28A     -0.352251

  @DF-RHF Final Energy:  -343.54746095961269

   => Energetics <=

    Nuclear Repulsion Energy =            323.9540641278435373
    One-Electron Energy =               -1107.5458170104725468
    Two-Electron Energy =                 440.0442919230162033
    DFT Exchange-Correlation Energy =       0.0000000000000000
    Empirical Dispersion Energy =           0.0000000000000000
    PCM Polarization Energy =               0.0000000000000000
    EFP Energy =                            0.0000000000000000
    Total Energy =                       -343.5474609596127493
    Molecular point group: c1
  Basis Set: CC-PVTZ
  Basis Set:

  -Total Gradient:
     Atom            X                  Y                   Z
    ------   -----------------  -----------------  -----------------
       1       -0.000001811830    -0.000010715413    -0.000023565453
       2        0.000012254495     0.000055746758     0.000060590667
       3       -0.000012282122     0.000025510888     0.000060588229
       4        0.000006230072    -0.000049070330    -0.000070955189
       5        0.000000225381    -0.000001194725    -0.000007606745
       6        0.000008202338    -0.000075568159    -0.000127129571
       7        0.000005021836     0.000006439481     0.000011562144
       8       -0.000243596430    -0.002219562563    -0.003605706640
       9        0.000000732877     0.000033855470     0.000037549026
      10        0.000272722122     0.003304393204     0.006946932423
      11        0.000000774886    -0.000005039868     0.000002482331
      12        0.000087262842    -0.001208274758    -0.008486653117
      13       -0.000007393430    -0.000017144728    -0.000001127101
      14       -0.000128343039     0.000160624743     0.005203038998

  **** Optimization is complete! (in 5 steps) ****
    Final optimized geometry and variables:
    Molecular point group: c1

    Geometry (in Angstrom), charge = 0, multiplicity = 1:

    H            3.292585041689    -0.424314393426    -0.034747875009
    C            2.235326552600    -0.239923189064    -0.022090866505
    C            1.384477446293    -1.148854902046     0.586981343001
    C            1.729120553268     0.899563435299    -0.615183277355
    H            1.783562616008    -2.033779340901     1.043708738431
    C            0.025661265761    -0.920997327287     0.595931075613
    H            2.388170621049     1.597400244359    -1.094109706645
    C            0.367528868591     1.138259472301    -0.586424613281
    H           -0.648009907314    -1.624536711259     1.043485598274
    C           -0.485142171474     0.235298130671     0.023185603658
    H           -0.030759877300     2.027832191864    -1.038822648144
    C           -1.951364767230     0.467019750781    -0.021744863767
    O           -2.765490821221    -0.389734380344     0.038588013161
    H           -2.254507442794     1.518478708902    -0.063452575982

  Mulliken Charges: (a.u.)
   Center  Symbol    Alpha    Beta     Spin     Total
       1     H     0.41976  0.41976  0.00000  0.16047
       2     C     3.07221  3.07221  0.00000 -0.14442
       3     C     3.06991  3.06991  0.00000 -0.13982
       4     C     3.07305  3.07305  0.00000 -0.14610
       5     H     0.41987  0.41987  0.00000  0.16026
       6     C     3.08370  3.08370  0.00000 -0.16741
       7     H     0.42059  0.42059  0.00000  0.15881
       8     C     3.08911  3.08911  0.00000 -0.17822
       9     H     0.41065  0.41065  0.00000  0.17870
      10     C     2.97454  2.97454  0.00000  0.05091
      11     H     0.42321  0.42321  0.00000  0.15358
      12     C     2.91719  2.91719  0.00000  0.16562
      13     O     4.16889  4.16889  0.00000 -0.33778
      14     H     0.45731  0.45731  0.00000  0.08538

   Total alpha = 28.00000, Total beta = 28.00000, Total charge = -0.00000
