  ==> Input File <==

--------------------------------------------------------------------------
set {
	reference rhf
	basis 6-31G*
}

set_num_threads( 4 )
memory 2 gb

molecule MOL {
0 1

H	 1.749427	 -0.601797	 -1.355756
O	 0.934156	 -0.619212	 -0.875602
C	 0.702312	 0.627605	 -0.264544
C	 -0.714990	 0.596302	 0.266387
H	 0.801425	 1.433863	 -0.986332
H	 1.404966	 0.800395	 0.547826
O	 -1.405996	 -0.526611	 -0.195820
H	 -1.257453	 1.468809	 -0.075599
H	 -0.688972	 0.618407	 1.353696
H	 -0.890587	 -1.292708	 0.022039

	symmetry c1
}
set optking {
	frozen_dihedral = ("
		5 3 4 7
	")
}

ee = optimize('scf')
oeprop('DIPOLE', 'QUADRUPOLE', 'MULLIKEN_CHARGES')
f=open( 'psi4out.xyz', 'w' )
f.write( "10  " )
f.write( str(ee) + "\n" )
f.write( MOL.save_string_xyz() )
f.close()
--------------------------------------------------------------------------

    Molecular point group: c1
  Charge       = 0
  Multiplicity = 1
  Basis Set: 6-31G*
  Basis Set:
  @DF-RHF Final Energy:  -228.91101391372572
    Total Energy =                       -228.9110139137256965
    Molecular point group: c1
  Basis Set: 6-31G*
  Basis Set:
  Basis Set: 6-31G*
  Basis Set:
  @DF-RHF Final Energy:  -228.91423092152513
    Total Energy =                       -228.9142309215251601
  Basis Set: 6-31G*
  Basis Set:
  Basis Set: 6-31G*
  Basis Set:
  @DF-RHF Final Energy:  -228.91507790297993
    Total Energy =                       -228.9150779029800162
  Basis Set: 6-31G*
  Basis Set:
  Basis Set: 6-31G*
  Basis Set:
  @DF-RHF Final Energy:  -228.91532820576845
    Total Energy =                       -228.9153282057684464
  Basis Set: 6-31G*
  Basis Set:
  @DF-RHF Final Energy:  -228.91556468153510
    Total Energy =                       -228.9155646815352441
  @DF-RHF Final Energy:  -228.91559953143729
    Total Energy =                       -228.9155995314372376
  Basis Set: 6-31G*
  Basis Set:
  @DF-RHF Final Energy:  -228.91561383587643
    Total Energy =                       -228.9156138358764565
  Basis Set: 6-31G*
  Basis Set:
  Basis Set: 6-31G*
  Basis Set:
  @DF-RHF Final Energy:  -228.91561785655659
    Total Energy =                       -228.9156178565564517
  Basis Set: 6-31G*
  Basis Set:
  Basis Set: 6-31G*
  Basis Set:
  @DF-RHF Final Energy:  -228.91561922243898
    Total Energy =                       -228.9156192224389770
  Basis Set: 6-31G*
  Basis Set:
  Charge       = 0
  Multiplicity = 1
  Basis Set: 6-31G*
  Basis Set:

    Orbital Energies (a.u.)
    -----------------------

    Doubly Occupied:

       1A    -20.577798     2A    -20.538646     3A    -11.283511
       4A    -11.268653     5A     -1.390462     6A     -1.343629
       7A     -0.997903     8A     -0.847171     9A     -0.730156
      10A     -0.678348    11A     -0.659587    12A     -0.587975
      13A     -0.578150    14A     -0.542183    15A     -0.481013
      16A     -0.464380    17A     -0.416515

  @DF-RHF Final Energy:  -228.91561927810380

   => Energetics <=

    Nuclear Repulsion Energy =            134.8960051118955334
    One-Electron Energy =                -580.8510902513160090
    Two-Electron Energy =                 217.0394658613166996
    DFT Exchange-Correlation Energy =       0.0000000000000000
    Empirical Dispersion Energy =           0.0000000000000000
    PCM Polarization Energy =               0.0000000000000000
    EFP Energy =                            0.0000000000000000
    Total Energy =                       -228.9156192781037760
    Molecular point group: c1
  Basis Set: 6-31G*
  Basis Set:

  -Total Gradient:
     Atom            X                  Y                   Z
    ------   -----------------  -----------------  -----------------
       1        0.000004157191    -0.000001935643    -0.000009115959
       2       -0.000021069171     0.000003782599     0.000009401083
       3       -0.001473194225    -0.005044315602    -0.003441656458
       4       -0.001660506639     0.003629122767    -0.003577504060
       5        0.001596969766     0.003465163846     0.003714097572
       6        0.000012858368     0.000001212111    -0.000007184571
       7        0.001551135793    -0.002058051982     0.003330591193
       8        0.000011935382     0.000001699785    -0.000022176711
       9       -0.000011953816     0.000006032329     0.000000516375
      10       -0.000010332646    -0.000002710208     0.000003031537

  **** Optimization is complete! (in 10 steps) ****
    Final optimized geometry and variables:
    Molecular point group: c1

    Geometry (in Angstrom), charge = 0, multiplicity = 1:

    H            1.962742394756    -0.639186638808    -0.956341888888
    O            1.083575694037    -0.618357449426    -0.607146273104
    C            0.803004406700     0.649339870386    -0.074559675310
    C           -0.609108678492     0.622273731058     0.556464994882
    H            0.875310385981     1.426433269568    -0.830481119650
    H            1.530148673881     0.899762298142     0.693874074746
    O           -1.351094522306    -0.503236801313     0.199629592300
    H           -1.164779273129     1.500020635699     0.250879676350
    H           -0.512794475551     0.662018983920     1.638638819469
    H           -0.753592985962    -1.189419172663    -0.066948191992

  Mulliken Charges: (a.u.)
   Center  Symbol    Alpha    Beta     Spin     Total
       1     H     0.27342  0.27342  0.00000  0.45317
       2     O     4.38070  4.38070  0.00000 -0.76140
       3     C     3.01593  3.01593  0.00000 -0.03187
       4     C     2.99205  2.99205  0.00000  0.01590
       5     H     0.42326  0.42326  0.00000  0.15347
       6     H     0.42565  0.42565  0.00000  0.14871
       7     O     4.37947  4.37947  0.00000 -0.75895
       8     H     0.41937  0.41937  0.00000  0.16126
       9     H     0.42751  0.42751  0.00000  0.14498
      10     H     0.26263  0.26263  0.00000  0.47474

   Total alpha = 17.00000, Total beta = 17.00000, Total charge = -0.00000
