  ==> Input File <==

--------------------------------------------------------------------------
set {
	reference rhf
	basis 6-31G*
}

set_num_threads( 4 )
memory 2 gb

molecule MOL {
0 1

H	 3.472290	 -1.177551	 -0.576845
O	 2.826016	 -1.159218	 0.122261
C	 2.077727	 -0.067559	 -0.035091
C	 0.624473	 -0.343591	 0.253101
O	 2.542965	 0.974826	 -0.363729
C	 -0.265902	 0.883932	 0.072916
H	 0.324016	 -1.163849	 -0.390541
H	 0.565024	 -0.726111	 1.268924
C	 -1.728698	 0.646073	 0.462102
H	 -0.209144	 1.219470	 -0.958188
H	 0.135059	 1.692851	 0.673903
C	 -2.482460	 -0.343073	 -0.431425
H	 -2.245265	 1.602650	 0.432430
H	 -1.779332	 0.308348	 1.496285
C	 -3.960546	 -0.461025	 -0.060175
H	 -2.395034	 -0.026811	 -1.468912
H	 -2.024850	 -1.327147	 -0.371646
H	 -4.472726	 -1.168004	 -0.705284
H	 -4.465146	 0.496508	 -0.151489
H	 -4.081218	 -0.800940	 0.964585

	symmetry c1
}
set optking {
	frozen_dihedral = ("
		1 2 3 5
	")
}

ee = optimize('scf')
oeprop('DIPOLE', 'QUADRUPOLE', 'MULLIKEN_CHARGES')
f=open( 'psi4out.xyz', 'w' )
f.write( "20  " )
f.write( str(ee) + "\n" )
f.write( MOL.save_string_xyz() )
f.close()
--------------------------------------------------------------------------

    Molecular point group: c1
  Charge       = 0
  Multiplicity = 1
  Basis Set: 6-31G*
  Basis Set:
  @DF-RHF Final Energy:  -383.93972554566977
    Total Energy =                       -383.9397255456699440
    Molecular point group: c1
  Basis Set: 6-31G*
  Basis Set:
  Basis Set: 6-31G*
  Basis Set:
  @DF-RHF Final Energy:  -383.93724423915864
    Total Energy =                       -383.9372442391585309
  Basis Set: 6-31G*
  Basis Set:
  Basis Set: 6-31G*
  Basis Set:
  @DF-RHF Final Energy:  -383.94049549105455
    Total Energy =                       -383.9404954910546621
  Basis Set: 6-31G*
  Basis Set:
  Basis Set: 6-31G*
  Basis Set:
  @DF-RHF Final Energy:  -383.94055883994730
    Total Energy =                       -383.9405588399473004
  Basis Set: 6-31G*
  Basis Set:
  @DF-RHF Final Energy:  -383.94056550566489
    Total Energy =                       -383.9405655056650630
  @DF-RHF Final Energy:  -383.94056937542445
    Total Energy =                       -383.9405693754242748
  Basis Set: 6-31G*
  Basis Set:
  @DF-RHF Final Energy:  -383.94056710220514
    Total Energy =                       -383.9405671022053639
  Basis Set: 6-31G*
  Basis Set:
  Basis Set: 6-31G*
  Basis Set:
  @DF-RHF Final Energy:  -383.94053777925626
    Total Energy =                       -383.9405377792562604
  Basis Set: 6-31G*
  Basis Set:
  Basis Set: 6-31G*
  Basis Set:
  @DF-RHF Final Energy:  -383.94057118680564
    Total Energy =                       -383.9405711868053004
  Basis Set: 6-31G*
  Basis Set:
  Charge       = 0
  Multiplicity = 1
  Basis Set: 6-31G*
  Basis Set:

    Orbital Energies (a.u.)
    -----------------------

    Doubly Occupied:

       1A    -20.605582     2A    -20.555176     3A    -11.381195
       4A    -11.239704     5A    -11.222633     6A    -11.220868
       7A    -11.220169     8A    -11.212629     9A     -1.467898
      10A     -1.366522    11A     -1.095858    12A     -1.040406
      13A     -0.960238    14A     -0.867697    15A     -0.816389
      16A     -0.777409    17A     -0.702331    18A     -0.685865
      19A     -0.663151    20A     -0.631514    21A     -0.613409
      22A     -0.589068    23A     -0.563114    24A     -0.551526
      25A     -0.545522    26A     -0.510840    27A     -0.497525
      28A     -0.481582    29A     -0.469590    30A     -0.467182
      31A     -0.457548    32A     -0.443038

  @DF-RHF Final Energy:  -383.94057140414503

   => Energetics <=

    Nuclear Repulsion Energy =            375.5852159305645159
    One-Electron Energy =               -1267.2052145189502426
    Two-Electron Energy =                 507.6794271842405237
    DFT Exchange-Correlation Energy =       0.0000000000000000
    Empirical Dispersion Energy =           0.0000000000000000
    PCM Polarization Energy =               0.0000000000000000
    EFP Energy =                            0.0000000000000000
    Total Energy =                       -383.9405714041451461
    Molecular point group: c1
  Basis Set: 6-31G*
  Basis Set:

  -Total Gradient:
     Atom            X                  Y                   Z
    ------   -----------------  -----------------  -----------------
       1       -0.006632251994    -0.006845535868    -0.006712009046
       2        0.008540672951     0.010070343496     0.012942264302
       3       -0.002584239060    -0.006462612637    -0.016093656407
       4       -0.000029963818    -0.000019683928    -0.000012668088
       5        0.000691416828     0.003274101256     0.009858746193
       6        0.000003135320     0.000006834768     0.000011701976
       7       -0.000009014278    -0.000010251810     0.000005208069
       8       -0.000008393367    -0.000001147313     0.000000999119
       9        0.000007366090    -0.000012610975    -0.000001568976
      10        0.000001324079    -0.000008819884    -0.000000990774
      11       -0.000002924681     0.000009477035     0.000002162107
      12        0.000006394307    -0.000003239346     0.000000613790
      13        0.000012453624     0.000004120668    -0.000001818316
      14        0.000001103393    -0.000002391868     0.000001861177
      15       -0.000001175751     0.000005278475     0.000000273662
      16        0.000000199615    -0.000002386748    -0.000001470376
      17        0.000005094874    -0.000002003518    -0.000000069392
      18        0.000000077610     0.000001590028    -0.000001223886
      19       -0.000001547664     0.000000574440     0.000002124633
      20        0.000000271915    -0.000001636275    -0.000000479766

  **** Optimization is complete! (in 10 steps) ****
    Final optimized geometry and variables:
    Molecular point group: c1

    Geometry (in Angstrom), charge = 0, multiplicity = 1:

    H            3.563465507849    -1.194342715510    -0.406320913010
    O            2.855404974444    -1.125611760588     0.224485703042
    C            2.076851769126    -0.072135857889    -0.078754126119
    C            0.627482449453    -0.346652742599     0.228876376962
    O            2.524099024355     0.958928726044    -0.454153191472
    C           -0.265383231884     0.883080212156     0.081994797371
    H            0.315928889217    -1.157006867919    -0.423377263041
    H            0.584381728836    -0.748846541121     1.237755600344
    C           -1.723521747040     0.638195131865     0.484226556751
    H           -0.220758640625     1.238475671990    -0.942950246212
    H            0.142575543077     1.680720631077     0.693737353401
    C           -2.488734959043    -0.332435490587    -0.419818981617
    H           -2.239844355249     1.595348861895     0.479935003851
    H           -1.761875193676     0.279774382719     1.511897560157
    C           -3.962433017949    -0.456828440419    -0.033514504181
    H           -2.413375352274     0.004395278300    -1.451810001988
    H           -2.031357107454    -1.317864709554    -0.384973440269
    H           -4.482996341390    -1.150273594911    -0.686579989334
    H           -4.467125726194     0.502729221327    -0.099486901824
    H           -4.071192702999    -0.817219269771     0.985546513902

  Mulliken Charges: (a.u.)
   Center  Symbol    Alpha    Beta     Spin     Total
       1     H     0.26685  0.26685  0.00000  0.46631
       2     O     4.35829  4.35829  0.00000 -0.71657
       3     C     2.62649  2.62649  0.00000  0.74701
       4     C     3.21246  3.21246  0.00000 -0.42493
       5     O     4.26648  4.26648  0.00000 -0.53297
       6     C     3.15451  3.15451  0.00000 -0.30902
       7     H     0.40039  0.40039  0.00000  0.19921
       8     H     0.39793  0.39793  0.00000  0.20413
       9     C     3.15540  3.15540  0.00000 -0.31079
      10     H     0.41237  0.41237  0.00000  0.17525
      11     H     0.40846  0.40846  0.00000  0.18308
      12     C     3.15477  3.15477  0.00000 -0.30954
      13     H     0.41791  0.41791  0.00000  0.16418
      14     H     0.42338  0.42338  0.00000  0.15323
      15     C     3.23920  3.23920  0.00000 -0.47840
      16     H     0.42175  0.42175  0.00000  0.15650
      17     H     0.42311  0.42311  0.00000  0.15378
      18     H     0.41850  0.41850  0.00000  0.16300
      19     H     0.42057  0.42057  0.00000  0.15887
      20     H     0.42116  0.42116  0.00000  0.15767

   Total alpha = 32.00000, Total beta = 32.00000, Total charge = -0.00000
