                              Psi4 1.0.54 Driver

  ==> Input File <==

--------------------------------------------------------------------------
set {
	reference rhf
	basis cc-pvtz
}

set_num_threads( 4 )
memory 2 gb

molecule MOL {
0 1

H	 -0.894043	 -1.225607	 -0.380029
N	 -1.173824	 -0.310545	 -0.096857
C	 -0.022588	 0.563366	 0.065815
H	 -1.790508	 0.040224	 -0.799902
C	 1.270420	 -0.230572	 -0.014245
H	 -0.045354	 1.293678	 -0.735129
H	 -0.043155	 1.123061	 1.001180
H	 1.336273	 -0.754933	 -0.959364
H	 2.130728	 0.422015	 0.082222
H	 1.323344	 -0.967006	 0.781773

	symmetry c1
}
set optking {
	frozen_dihedral = ("
		1 2 3 6
	")
}

ee,wfn = optimize('scf', return_wfn=True)
oeprop( wfn, 'DIPOLE', 'QUADRUPOLE', 'MULLIKEN_CHARGES')
f=open( 'psi4out.xyz', 'w' )
f.write( "10  " )
f.write( str(ee) + "\n" )
f.write( MOL.save_string_xyz() )
f.close()
--------------------------------------------------------------------------

    Molecular point group: c1
  Charge       = 0
  Multiplicity = 1
  Basis Set: CC-PVTZ
  Basis Set:
  @DF-RHF Final Energy:  -134.29987979268617
    Total Energy =                       -134.2998797926862267
    Molecular point group: c1
  Basis Set: CC-PVTZ
  Basis Set:
  Basis Set: CC-PVTZ
  Basis Set:
  @DF-RHF Final Energy:  -134.25828986401899
    Total Energy =                       -134.2582898640189626
  Basis Set: CC-PVTZ
  Basis Set:
  Basis Set: CC-PVTZ
  Basis Set:
  @DF-RHF Final Energy:  -134.29973421216670
    Total Energy =                       -134.2997342121667543
  Basis Set: CC-PVTZ
  Basis Set:
  Basis Set: CC-PVTZ
  Basis Set:
  @DF-RHF Final Energy:  -134.30121105170414
    Total Energy =                       -134.3012110517041720
  Basis Set: CC-PVTZ
  Basis Set:
  Basis Set: CC-PVTZ
  Basis Set:
  @DF-RHF Final Energy:  -134.30126498136670
    Total Energy =                       -134.3012649813667281
  Basis Set: CC-PVTZ
  Basis Set:
  Basis Set: CC-PVTZ
  Basis Set:
  @DF-RHF Final Energy:  -134.30126907262058
    Total Energy =                       -134.3012690726205278
  Basis Set: CC-PVTZ
  Basis Set:
  Charge       = 0
  Multiplicity = 1
  Basis Set: CC-PVTZ
  Basis Set:

    Orbital Energies (a.u.)
    -----------------------

    Doubly Occupied:

       1A    -15.523254     2A    -11.240653     3A    -11.210932
       4A     -1.174711     5A     -0.990375     6A     -0.830102
       7A     -0.663520     8A     -0.619182     9A     -0.595304
      10A     -0.527159    11A     -0.504713    12A     -0.493624
      13A     -0.377954

  @DF-RHF Final Energy:  -134.30126949118619

   => Energetics <=

    Nuclear Repulsion Energy =             83.4633052614772595
    One-Electron Energy =                -346.0261855245736342
    Two-Electron Energy =                 128.2616107719101706
    DFT Exchange-Correlation Energy =       0.0000000000000000
    Empirical Dispersion Energy =           0.0000000000000000
    PCM Polarization Energy =               0.0000000000000000
    EFP Energy =                            0.0000000000000000
    Total Energy =                       -134.3012694911861900
    Molecular point group: c1
  Basis Set: CC-PVTZ
  Basis Set:

  -Total Gradient:
     Atom            X                  Y                   Z
    ------   -----------------  -----------------  -----------------
       1        0.000074790969    -0.001278784929     0.001513598918
       2       -0.000317144622     0.001826010775    -0.001498028676
       3        0.001028493088    -0.001300458256    -0.001456110311
       4       -0.000002828435     0.000004989886    -0.000011502842
       5       -0.000021366542    -0.000000969313    -0.000000058440
       6       -0.000768825809     0.000726281996     0.001477500354
       7       -0.000019539541     0.000011425232    -0.000007199327
       8        0.000010634742    -0.000010156997     0.000000308118
       9        0.000014469325    -0.000003733578    -0.000008279004
      10        0.000001316824     0.000025395184    -0.000010228790

  **** Optimization is complete! (in 7 steps) ****
    Final optimized geometry and variables:
    Molecular point group: c1

    Geometry (in Angstrom), charge = 0, multiplicity = 1:

    H           -1.153801535819    -0.787794805798    -0.744408228427
    N           -1.230687255983    -0.034200288615    -0.097754440944
    C            0.074912144874     0.485651302208     0.293644733238
    H           -1.816560711811     0.664164108979    -0.496890191359
    C            1.205924512704    -0.439592346455    -0.123307046421
    H            0.242187679397     1.476501121074    -0.119995494332
    H            0.098462711715     0.602528775237     1.372743734108
    H            1.263544680801    -0.523982965259    -1.203705912882
    H            2.159301900430    -0.071507488286     0.236734552486
    H            1.055762427110    -1.433134052164     0.285574327848

  Mulliken Charges: (a.u.)
   Center  Symbol    Alpha    Beta     Spin     Total
       1     H     0.42874  0.42874  0.00000  0.14253
       2     N     3.69478  3.69478  0.00000 -0.38955
       3     C     3.01081  3.01081  0.00000 -0.02162
       4     H     0.42714  0.42714  0.00000  0.14572
       5     C     3.14706  3.14706  0.00000 -0.29413
       6     H     0.46609  0.46609  0.00000  0.06781
       7     H     0.46453  0.46453  0.00000  0.07094
       8     H     0.45797  0.45797  0.00000  0.08407
       9     H     0.45166  0.45166  0.00000  0.09667
      10     H     0.45122  0.45122  0.00000  0.09757

   Total alpha = 13.00000, Total beta = 13.00000, Total charge =  0.00000

*** Psi4 exiting successfully. Buy a developer a beer!
