  ==> Input File <==

--------------------------------------------------------------------------
set {
	reference rhf
	basis 6-31G*
}

set_num_threads( 1 )
memory 2 gb

molecule MOL {
0 1

O	 3.225979	 0.970355	 -0.599647
C	 2.701189	 0.057885	 -0.047330
C	 1.245376	 -0.013843	 0.345420
O	 3.347903	 -1.046386	 0.304773
C	 0.300692	 0.429160	 -0.769675
H	 1.051051	 -1.033193	 0.662210
H	 1.119384	 0.601787	 1.232449
C	 -1.173612	 0.462191	 -0.352745
H	 0.425930	 -0.225438	 -1.626959
H	 0.597997	 1.417821	 -1.102212
C	 -1.784837	 -0.905174	 -0.033644
H	 -1.742036	 0.916703	 -1.160852
H	 -1.292680	 1.120369	 0.506694
C	 -3.282729	 -0.831189	 0.269419
H	 -1.621203	 -1.575501	 -0.876084
H	 -1.276347	 -1.353619	 0.816830
C	 -3.903181	 -2.191066	 0.594851
H	 -3.801131	 -0.395366	 -0.582961
H	 -3.448001	 -0.152686	 1.104893
C	 -5.399962	 -2.108985	 0.892525
H	 -3.738060	 -2.870612	 -0.238572
H	 -3.389184	 -2.626337	 1.449326
H	 -5.810590	 -3.088022	 1.119415
H	 -5.947220	 -1.709626	 0.043281
H	 -5.595591	 -1.462970	 1.743799
C	 4.728119	 -1.109107	 -0.004993
H	 4.882018	 -1.033965	 -1.071845
H	 5.068212	 -2.067527	 0.355250
H	 5.265056	 -0.311663	 0.488280

	symmetry c1
}
set optking {
	frozen_dihedral = ("
		21 17 14 11,
		17 14 11 15,
		15 11 8 5,
		6 3 5 9,
		11 8 5 9,
		2 4 26 27,
		1 2 4 26
	")
}

ee = energy('scf')
oeprop('DIPOLE', 'QUADRUPOLE', 'MULLIKEN_CHARGES')
f=open( 'psi4out.xyz', 'w' )
f.write( "29  " )
f.write( str(ee) + "\n" )
f.write( MOL.save_string_xyz() )
f.close()
--------------------------------------------------------------------------

    Molecular point group: c1

    Geometry (in Angstrom), charge = 0, multiplicity = 1:

       Center              X                  Y                   Z               Mass
    ------------   -----------------  -----------------  -----------------  -----------------
           O          3.182228503836     1.550327943931    -0.655896654841    15.994914619560
           C          2.657438503836     0.637857943931    -0.103579654841    12.000000000000
           C          1.201625503836     0.566129943931     0.289170345159    12.000000000000
           O          3.304152503836    -0.466413056069     0.248523345159    15.994914619560
           C          0.256941503836     1.009132943931    -0.825924654841    12.000000000000
           H          1.007300503836    -0.453220056069     0.605960345159     1.007825032070
           H          1.075633503836     1.181759943931     1.176199345159     1.007825032070
           C         -1.217362496164     1.042163943931    -0.408994654841    12.000000000000
           H          0.382179503836     0.354534943931    -1.683208654841     1.007825032070
           H          0.554246503836     1.997793943931    -1.158461654841     1.007825032070
           C         -1.828587496164    -0.325201056069    -0.089893654841    12.000000000000
           H         -1.785786496164     1.496675943931    -1.217101654841     1.007825032070
           H         -1.336430496164     1.700341943931     0.450444345159     1.007825032070
           C         -3.326479496164    -0.251216056069     0.213169345159    12.000000000000
           H         -1.664953496164    -0.995528056069    -0.932333654841     1.007825032070
           H         -1.320097496164    -0.773646056069     0.760580345159     1.007825032070
           C         -3.946931496164    -1.611093056069     0.538601345159    12.000000000000
           H         -3.844881496164     0.184606943931    -0.639210654841     1.007825032070
           H         -3.491751496164     0.427286943931     1.048643345159     1.007825032070
           C         -5.443712496164    -1.529012056069     0.836275345159    12.000000000000
           H         -3.781810496164    -2.290639056069    -0.294821654841     1.007825032070
           H         -3.432934496164    -2.046364056069     1.393076345159     1.007825032070
           H         -5.854340496164    -2.508049056069     1.063165345159     1.007825032070
           H         -5.990970496164    -1.129653056069    -0.012968654841     1.007825032070
           H         -5.639341496164    -0.882997056069     1.687549345159     1.007825032070
           C          4.684368503836    -0.529134056069    -0.061242654841    12.000000000000
           H          4.838267503836    -0.453992056069    -1.128094654841     1.007825032070
           H          5.024461503836    -1.487554056069     0.299000345159     1.007825032070
           H          5.221305503836     0.268309943931     0.432030345159     1.007825032070

  Charge       = 0
  Multiplicity = 1
  Basis Set: 6-31G*
  Basis Set:

    Orbital Energies (a.u.)
    -----------------------

    Doubly Occupied:

       1A    -20.604900     2A    -20.543624     3A    -11.371615
       4A    -11.280320     5A    -11.233084     6A    -11.223921
       7A    -11.219611     8A    -11.216810     9A    -11.216398
      10A    -11.215146    11A    -11.209471    12A     -1.469139
      13A     -1.361936    14A     -1.099510    15A     -1.067666
      16A     -1.019801    17A     -0.977394    18A     -0.929189
      19A     -0.862908    20A     -0.799993    21A     -0.790957
      22A     -0.768112    23A     -0.698965    24A     -0.680253
      25A     -0.672503    26A     -0.651369    27A     -0.626045
      28A     -0.606177    29A     -0.595554    30A     -0.581013
      31A     -0.561610    32A     -0.558298    33A     -0.534445
      34A     -0.529292    35A     -0.516244    36A     -0.515081
      37A     -0.496580    38A     -0.478401    39A     -0.471384
      40A     -0.463473    41A     -0.459516    42A     -0.455544
      43A     -0.442059    44A     -0.432706

  @DF-RHF Final Energy:  -501.04258268117485

   => Energetics <=

    Nuclear Repulsion Energy =            610.9226707441029021
    One-Electron Energy =               -1892.9143596742035243
    Two-Electron Energy =                 780.9491062489275919
    DFT Exchange-Correlation Energy =       0.0000000000000000
    Empirical Dispersion Energy =           0.0000000000000000
    PCM Polarization Energy =               0.0000000000000000
    EFP Energy =                            0.0000000000000000
    Total Energy =                       -501.0425826811731440

  Mulliken Charges: (a.u.)
   Center  Symbol    Alpha    Beta     Spin     Total
       1     O     4.28614  4.28614  0.00000 -0.57227
       2     C     2.60473  2.60473  0.00000  0.79054
       3     C     3.21174  3.21174  0.00000 -0.42348
       4     O     4.30469  4.30469  0.00000 -0.60939
       5     C     3.16059  3.16059  0.00000 -0.32117
       6     H     0.39779  0.39779  0.00000  0.20443
       7     H     0.40131  0.40131  0.00000  0.19738
       8     C     3.15629  3.15629  0.00000 -0.31258
       9     H     0.41716  0.41716  0.00000  0.16568
      10     H     0.40231  0.40231  0.00000  0.19538
      11     C     3.15485  3.15485  0.00000 -0.30970
      12     H     0.41808  0.41808  0.00000  0.16384
      13     H     0.42214  0.42214  0.00000  0.15572
      14     C     3.15050  3.15050  0.00000 -0.30100
      15     H     0.42302  0.42302  0.00000  0.15397
      16     H     0.42249  0.42249  0.00000  0.15501
      17     C     3.15146  3.15146  0.00000 -0.30293
      18     H     0.42342  0.42342  0.00000  0.15315
      19     H     0.42378  0.42378  0.00000  0.15245
      20     C     3.23938  3.23938  0.00000 -0.47875
      21     H     0.42287  0.42287  0.00000  0.15426
      22     H     0.42321  0.42321  0.00000  0.15358
      23     H     0.41915  0.41915  0.00000  0.16169
      24     H     0.42157  0.42157  0.00000  0.15686
      25     H     0.42171  0.42171  0.00000  0.15657
      26     C     3.09338  3.09338  0.00000 -0.18677
      27     H     0.40878  0.40878  0.00000  0.18243
      28     H     0.40853  0.40853  0.00000  0.18295
      29     H     0.40893  0.40893  0.00000  0.18215

   Total alpha = 44.00000, Total beta = 44.00000, Total charge =  0.00000
