  ==> Input File <==

--------------------------------------------------------------------------
set {
	reference rhf
	basis 6-31G*
}

set_num_threads( 4 )
memory 2 gb

molecule MOL {
0 1

H	 1.307819	 1.166499	 6.491037
C	 0.847719	 0.278534	 6.068723
C	 0.083150	 0.608754	 4.787488
H	 1.636264	 -0.442988	 5.876515
H	 0.189094	 -0.143430	 6.823016
C	 -0.584455	 -0.621494	 4.168934
H	 0.764230	 1.051046	 4.067690
H	 -0.675793	 1.358701	 5.004916
C	 -1.372664	 -0.318728	 2.894444
H	 0.167370	 -1.371021	 3.948451
H	 -1.264925	 -1.059521	 4.895663
C	 -0.508491	 0.016640	 1.687805
H	 -1.969411	 -1.186201	 2.616680
H	 -2.084601	 0.486846	 3.059894
C	 -1.181045	 0.701995	 0.511084
O	 0.652280	 -0.262245	 1.652593
C	 -2.285934	 -0.139295	 -0.145128
H	 -0.404593	 0.928186	 -0.209801
H	 -1.602401	 1.644916	 0.854658
C	 -3.651768	 0.085446	 0.506485
H	 -2.346596	 0.110469	 -1.202272
H	 -2.034737	 -1.195320	 -0.088721
C	 -4.759797	 -0.746382	 -0.137905
H	 -3.908762	 1.140117	 0.445781
H	 -3.588286	 -0.154158	 1.565709
H	 -4.868882	 -0.505166	 -1.191300
H	 -4.548009	 -1.809175	 -0.062213
H	 -5.715422	 -0.564821	 0.343442

	symmetry c1
}
set optking {
	frozen_dihedral = ("
		12 15 17 21
	")
}

ee = optimize('scf')
oeprop('DIPOLE', 'QUADRUPOLE', 'MULLIKEN_CHARGES')
f=open( 'psi4out.xyz', 'w' )
f.write( "28  " )
f.write( str(ee) + "\n" )
f.write( MOL.save_string_xyz() )
f.close()
--------------------------------------------------------------------------

    Molecular point group: c1
  Charge       = 0
  Multiplicity = 1
  Basis Set: 6-31G*
  Basis Set:
  @DF-RHF Final Energy:  -426.16334486777384
    Total Energy =                       -426.1633448677739580
    Molecular point group: c1
  Basis Set: 6-31G*
  Basis Set:
  Basis Set: 6-31G*
  Basis Set:
  @DF-RHF Final Energy:  -426.16493030879462
    Total Energy =                       -426.1649303087942826
  Basis Set: 6-31G*
  Basis Set:
  Basis Set: 6-31G*
  Basis Set:
  @DF-RHF Final Energy:  -426.16445901690292
    Total Energy =                       -426.1644590169030380
  Basis Set: 6-31G*
  Basis Set:
  Basis Set: 6-31G*
  Basis Set:
  @DF-RHF Final Energy:  -426.16496829356572
    Total Energy =                       -426.1649682935653800
  Basis Set: 6-31G*
  Basis Set:
  @DF-RHF Final Energy:  -426.16509030685006
    Total Energy =                       -426.1650903068498337
  @DF-RHF Final Energy:  -426.16510702972107
    Total Energy =                       -426.1651070297211845
  @DF-RHF Final Energy:  -426.16514835116720
    Total Energy =                       -426.1651483511672041
  @DF-RHF Final Energy:  -426.16530725671225
    Total Energy =                       -426.1653072567128220
  @DF-RHF Final Energy:  -426.16526829891109
    Total Energy =                       -426.1652682989108598
  @DF-RHF Final Energy:  -426.16587115462562
    Total Energy =                       -426.1658711546256200
  @DF-RHF Final Energy:  -426.16648731096893
    Total Energy =                       -426.1664873109689324
  @DF-RHF Final Energy:  -426.16776080051602
    Total Energy =                       -426.1677608005160209
  @DF-RHF Final Energy:  -426.16853400425293
    Total Energy =                       -426.1685340042529333
  @DF-RHF Final Energy:  -426.16930945666923
    Total Energy =                       -426.1693094566694526
  @DF-RHF Final Energy:  -426.16991865135378
    Total Energy =                       -426.1699186513536688
  @DF-RHF Final Energy:  -426.17014102306348
    Total Energy =                       -426.1701410230635929
  Basis Set: 6-31G*
  Basis Set:
  @DF-RHF Final Energy:  -426.17017079625089
    Total Energy =                       -426.1701707962510000
  Basis Set: 6-31G*
  Basis Set:
  Basis Set: 6-31G*
  Basis Set:
  @DF-RHF Final Energy:  -426.17018498814696
    Total Energy =                       -426.1701849881468434
  Basis Set: 6-31G*
  Basis Set:
  Basis Set: 6-31G*
  Basis Set:
  @DF-RHF Final Energy:  -426.17018710136506
    Total Energy =                       -426.1701871013647178
  Basis Set: 6-31G*
  Basis Set:
  Charge       = 0
  Multiplicity = 1
  Basis Set: 6-31G*
  Basis Set:

    Orbital Energies (a.u.)
    -----------------------

    Doubly Occupied:

       1A    -20.550921     2A    -11.325095     3A    -11.231386
       4A    -11.231218     5A    -11.217417     6A    -11.215808
       7A    -11.215147     8A    -11.213158     9A    -11.206970
      10A    -11.206411    11A     -1.396492    12A     -1.087527
      13A     -1.076387    14A     -1.021484    15A     -0.989790
      16A     -0.910167    17A     -0.865160    18A     -0.807439
      19A     -0.789988    20A     -0.723350    21A     -0.677187
      22A     -0.636888    23A     -0.632620    24A     -0.612972
      25A     -0.605882    26A     -0.589331    27A     -0.577609
      28A     -0.573729    29A     -0.537814    30A     -0.526898
      31A     -0.517782    32A     -0.511713    33A     -0.497226
      34A     -0.479612    35A     -0.470935    36A     -0.467637
      37A     -0.466067    38A     -0.458555    39A     -0.457535
      40A     -0.396334

  @DF-RHF Final Energy:  -426.17018729543167

   => Energetics <=

    Nuclear Repulsion Energy =            536.0465730768487447
    One-Electron Energy =               -1640.4822429646562796
    Two-Electron Energy =                 678.2654825923758608
    DFT Exchange-Correlation Energy =       0.0000000000000000
    Empirical Dispersion Energy =           0.0000000000000000
    PCM Polarization Energy =               0.0000000000000000
    EFP Energy =                            0.0000000000000000
    Total Energy =                       -426.1701872954316741
    Molecular point group: c1
  Basis Set: 6-31G*
  Basis Set:

  -Total Gradient:
     Atom            X                  Y                   Z
    ------   -----------------  -----------------  -----------------
       1       -0.000006135655     0.000013059059    -0.000004181634
       2       -0.000016995821     0.000003563653     0.000008961448
       3        0.000001504503     0.000005256474    -0.000021540492
       4        0.000003938237    -0.000000608306    -0.000003727262
       5       -0.000003762445    -0.000002676955     0.000002063418
       6       -0.000017672719    -0.000024546212     0.000009548598
       7        0.000006201783    -0.000014500917     0.000008539362
       8       -0.000005430956     0.000003343176    -0.000011315611
       9        0.000031448018     0.000012787345     0.000022263679
      10        0.000003156972    -0.000013458291     0.000004229994
      11       -0.000005502061    -0.000006689332    -0.000013424538
      12        0.002354861822     0.000415725927    -0.000717652225
      13        0.000025750092     0.000013970706     0.000013008150
      14       -0.000002765101     0.000049184107     0.000001274469
      15       -0.002613216697    -0.000785613356     0.001069777820
      16        0.000031877441    -0.000065179089    -0.000039580902
      17       -0.003096669411     0.001354814135    -0.000295557321
      18        0.000005048479     0.000003043495     0.000010432858
      19        0.000022245680    -0.000023261413     0.000003812799
      20       -0.000046048802     0.000051770162    -0.000058261379
      21        0.003338229584    -0.000988581907    -0.000067933086
      22        0.000015707600     0.000056011932     0.000014736272
      23        0.000012633005    -0.000023935841     0.000017439006
      24       -0.000036832725     0.000014308990    -0.000003032977
      25       -0.000008284302    -0.000039053785     0.000046534375
      26        0.000000522143     0.000005362051     0.000009349039
      27        0.000005492748    -0.000012692371    -0.000014434124
      28        0.000000698586    -0.000001403437     0.000008670265

  **** Optimization is complete! (in 20 steps) ****
    Final optimized geometry and variables:
    Molecular point group: c1

    Geometry (in Angstrom), charge = 0, multiplicity = 1:

    H            4.166194099880    -0.210630490145     3.143857861551
    C            3.101191658542    -0.273735246081     3.344484155274
    C            2.289378453868     0.383973518657     2.229406936397
    H            2.845217741341    -1.324339489750     3.444831165675
    H            2.915927361350     0.205449768020     4.302012123561
    C            0.781919274191     0.320774803263     2.485383197041
    H            2.516678418403    -0.101694375763     1.286003000300
    H            2.593559419045     1.424695292951     2.129227746136
    C           -0.054816092144     0.989007402625     1.395087316399
    H            0.472744024293    -0.714051671648     2.583378370160
    H            0.561491693062     0.807919422262     3.432463946930
    C           -0.101283516468     0.232002574737     0.077179017292
    H           -1.089477785128     1.084674224674     1.723388158679
    H            0.286882967801     2.005096186068     1.209727975039
    C           -0.612336807762     1.018386193022    -1.120366972315
    O            0.235057693072    -0.910215707994    -0.006989611933
    C           -0.886711379555     0.174216008762    -2.367025450774
    H            0.153456860947     1.764478622425    -1.330301279794
    H           -1.490844396762     1.585786528617    -0.820678643229
    C           -2.287857372720    -0.437272606372    -2.393234588469
    H           -0.723256158472     0.782458408202    -3.253044660830
    H           -0.149805437012    -0.619670673446    -2.409998435705
    C           -2.528253772527    -1.312216180331    -3.622250130618
    H           -3.031382512922     0.357273266468    -2.364124316103
    H           -2.433084227718    -1.031844045951    -1.494639335156
    H           -2.413279004047    -0.740672401799    -4.539211664682
    H           -1.824173976260    -2.138219756942    -3.656398210514
    H           -3.529987351780    -1.730527314205    -3.616854736942

  Mulliken Charges: (a.u.)
   Center  Symbol    Alpha    Beta     Spin     Total
       1     H     0.41924  0.41924  0.00000  0.16152
       2     C     3.24012  3.24012  0.00000 -0.48024
       3     C     3.15657  3.15657  0.00000 -0.31313
       4     H     0.41835  0.41835  0.00000  0.16329
       5     H     0.42348  0.42348  0.00000  0.15303
       6     C     3.14946  3.14946  0.00000 -0.29892
       7     H     0.41021  0.41021  0.00000  0.17958
       8     H     0.42752  0.42752  0.00000  0.14496
       9     C     3.20942  3.20942  0.00000 -0.41884
      10     H     0.40714  0.40714  0.00000  0.18572
      11     H     0.42158  0.42158  0.00000  0.15685
      12     C     2.73223  2.73223  0.00000  0.53554
      13     H     0.40440  0.40440  0.00000  0.19120
      14     H     0.41190  0.41190  0.00000  0.17620
      15     C     3.21092  3.21092  0.00000 -0.42183
      16     O     4.26906  4.26906  0.00000 -0.53812
      17     C     3.15390  3.15390  0.00000 -0.30780
      18     H     0.40504  0.40504  0.00000  0.18992
      19     H     0.40997  0.40997  0.00000  0.18005
      20     C     3.15400  3.15400  0.00000 -0.30800
      21     H     0.42122  0.42122  0.00000  0.15757
      22     H     0.40185  0.40185  0.00000  0.19631
      23     C     3.24032  3.24032  0.00000 -0.48064
      24     H     0.42598  0.42598  0.00000  0.14804
      25     H     0.41623  0.41623  0.00000  0.16755
      26     H     0.42282  0.42282  0.00000  0.15436
      27     H     0.41773  0.41773  0.00000  0.16455
      28     H     0.41935  0.41935  0.00000  0.16130

   Total alpha = 40.00000, Total beta = 40.00000, Total charge = -0.00000
