  ==> Input File <==

--------------------------------------------------------------------------
set {
	reference rhf
	basis cc-pvtz
}

set_num_threads( 4 )
memory 2 gb

molecule MOL {
0 1

O	 2.405069	 2.069653	 0.281284
C	 1.413208	 2.373685	 0.859112
C	 0.163295	 1.517723	 0.829489
C	 1.332679	 3.647343	 1.669998
C	 0.288398	 0.247429	 0.000314
H	 -0.096457	 1.281958	 1.859057
H	 -0.650398	 2.139092	 0.462325
C	 -0.993089	 -0.581367	 -0.000217
H	 1.111146	 -0.346466	 0.381743
H	 0.556855	 0.511468	 -1.016223
C	 -2.258482	 0.271340	 0.000669
H	 -1.002280	 -1.233920	 -0.870484
H	 -1.002061	 -1.235367	 0.868958
C	 -3.544441	 -0.550271	 -0.000253
H	 -2.250545	 0.925250	 -0.867923
H	 -2.250598	 0.923423	 0.870642
C	 -4.804551	 0.308747	 0.000556
H	 -3.553737	 -1.201524	 -0.870151
H	 -3.553831	 -1.203282	 0.868313
H	 -4.842050	 0.949078	 -0.874436
H	 -5.698404	 -0.304480	 -0.000254
H	 -4.842277	 0.947103	 0.876982
H	 1.095568	 3.418648	 2.703209
H	 2.273891	 4.172795	 1.620884
H	 0.539778	 4.282503	 1.290629

	symmetry c1
}
set optking {
	frozen_dihedral = ("
		9 5 8 12
	")
}

ee = optimize('scf')
oeprop('DIPOLE', 'QUADRUPOLE', 'MULLIKEN_CHARGES')
f=open( 'psi4out.xyz', 'w' )
f.write( "25  " )
f.write( str(ee) + "\n" )
f.write( MOL.save_string_xyz() )
f.close()
--------------------------------------------------------------------------

    Molecular point group: c1
  Charge       = 0
  Multiplicity = 1
  Basis Set: CC-PVTZ
  Basis Set:
  @DF-RHF Final Energy:  -387.26704000667291
    Total Energy =                       -387.2670400066729144
    Molecular point group: c1
  Basis Set: CC-PVTZ
  Basis Set:
  Basis Set: CC-PVTZ
  Basis Set:
  @DF-RHF Final Energy:  -387.26793895713803
    Total Energy =                       -387.2679389571378579
  Basis Set: CC-PVTZ
  Basis Set:
  Basis Set: CC-PVTZ
  Basis Set:
  @DF-RHF Final Energy:  -387.26968140186892
    Total Energy =                       -387.2696814018688656
  Basis Set: CC-PVTZ
  Basis Set:
  Basis Set: CC-PVTZ
  Basis Set:
  @DF-RHF Final Energy:  -387.26983320597486
    Total Energy =                       -387.2698332059746917
  Basis Set: CC-PVTZ
  Basis Set:
  Basis Set: CC-PVTZ
  Basis Set:
  @DF-RHF Final Energy:  -387.26973862602193
    Total Energy =                       -387.2697386260218764
  Basis Set: CC-PVTZ
  Basis Set:
  Basis Set: CC-PVTZ
  Basis Set:
  @DF-RHF Final Energy:  -387.26987482262791
    Total Energy =                       -387.2698748226280259
  Basis Set: CC-PVTZ
  Basis Set:
  Basis Set: CC-PVTZ
  Basis Set:
  @DF-RHF Final Energy:  -387.26988413731226
    Total Energy =                       -387.2698841373126015
  Basis Set: CC-PVTZ
  Basis Set:
  Charge       = 0
  Multiplicity = 1
  Basis Set: CC-PVTZ
  Basis Set:

    Orbital Energies (a.u.)
    -----------------------

    Doubly Occupied:

       1A    -20.538590     2A    -11.320111     3A    -11.229204
       4A    -11.226284     5A    -11.215822     6A    -11.215686
       7A    -11.215213     8A    -11.214618     9A    -11.209130
      10A     -1.398661    11A     -1.095729    12A     -1.056706
      13A     -1.015031    14A     -0.968515    15A     -0.899998
      16A     -0.817522    17A     -0.786932    18A     -0.729478
      19A     -0.661538    20A     -0.656164    21A     -0.635856
      22A     -0.623479    23A     -0.598160    24A     -0.583369
      25A     -0.568938    26A     -0.563919    27A     -0.544132
      28A     -0.527801    29A     -0.520170    30A     -0.495108
      31A     -0.492284    32A     -0.477829    33A     -0.460913
      34A     -0.459171    35A     -0.447330    36A     -0.402600

  @DF-RHF Final Energy:  -387.26988426464146

   => Energetics <=

    Nuclear Repulsion Energy =            446.6710778771090986
    One-Electron Energy =               -1410.1379485509780807
    Two-Electron Energy =                 576.1969864092277476
    DFT Exchange-Correlation Energy =       0.0000000000000000
    Empirical Dispersion Energy =           0.0000000000000000
    PCM Polarization Energy =               0.0000000000000000
    EFP Energy =                            0.0000000000000000
    Total Energy =                       -387.2698842646411777
    Molecular point group: c1
  Basis Set: CC-PVTZ
  Basis Set:

  -Total Gradient:
     Atom            X                  Y                   Z
    ------   -----------------  -----------------  -----------------
       1        0.000005867653     0.000001402424     0.000001888396
       2       -0.000003233056    -0.000004615078    -0.000004262651
       3        0.000028879730    -0.000013342240     0.000007211274
       4       -0.000000551338     0.000006579103    -0.000007894544
       5        0.000613360487    -0.001536321437    -0.007249707158
       6       -0.000009356767    -0.000001113965    -0.000004158733
       7        0.000015096438    -0.000004048434    -0.000007650069
       8        0.003165592188    -0.004389366143     0.004985843096
       9       -0.000986739053     0.001981148704     0.005382228447
      10        0.000001152947     0.000007522046     0.000010286868
      11       -0.000002740894    -0.000028410654    -0.000048125538
      12       -0.002808228967     0.004006633704    -0.003068889508
      13       -0.000000707877    -0.000014350647     0.000003825686
      14       -0.000001620641     0.000004027680    -0.000013640663
      15       -0.000000302756     0.000000542481    -0.000007214854
      16       -0.000002654429    -0.000015447868    -0.000011646080
      17       -0.000010460360    -0.000003448348     0.000026177441
      18        0.000003065300     0.000009598469    -0.000001119873
      19       -0.000002251321    -0.000006194245    -0.000005529741
      20        0.000004752576    -0.000009453193     0.000001278591
      21       -0.000006784140     0.000002693863     0.000007523410
      22       -0.000005687867     0.000008502772    -0.000001195734
      23        0.000003649003    -0.000005771247    -0.000001155883
      24        0.000000444346     0.000001465658    -0.000000202253
      25       -0.000000541187     0.000001766601     0.000006130076

  **** Optimization is complete! (in 8 steps) ****
    Final optimized geometry and variables:
    Molecular point group: c1

    Geometry (in Angstrom), charge = 0, multiplicity = 1:

    O            3.148631760009     0.950444087659    -0.132318179854
    C            2.189762010824     1.330358878224     0.456115419264
    C            0.871320454688     0.582293622387     0.435084727163
    C            2.220979356983     2.602801450310     1.272955016459
    C            0.898949964687    -0.693983785927    -0.401241525694
    H            0.606300978472     0.363300285060     1.467365273246
    H            0.115654339034     1.277773902262     0.083690796973
    C           -0.383014031668    -1.537680640524    -0.328535645921
    H            1.725620784111    -1.286222376147    -0.029634774897
    H            1.124138591380    -0.437669783808    -1.428737070626
    C           -1.698630667510    -0.757565212886    -0.375035125382
    H           -0.388440997008    -2.202346152465    -1.186973319390
    H           -0.368324286622    -2.157083116462     0.563114052843
    C           -2.921284531871    -1.667788622932    -0.458922412160
    H           -1.693885164310    -0.089611302112    -1.234167592851
    H           -1.795061365431    -0.125803195735     0.502790742997
    C           -4.239615398713    -0.901566429247    -0.485202143050
    H           -2.847416005203    -2.287294383471    -1.348253285855
    H           -2.918401028942    -2.349854331217     0.387112121725
    H           -4.287468547358    -0.234189616558    -1.339358759889
    H           -5.085358211960    -1.576752122291    -0.546333325203
    H           -4.361475269188    -0.300108243939     0.409649623431
    H            1.971323006122     2.390128115946     2.306616586954
    H            3.202656882465     3.047833338187     1.220419531552
    H            1.482212423438     3.304040614281     0.900800247734

  Mulliken Charges: (a.u.)
   Center  Symbol    Alpha    Beta     Spin     Total
       1     O     4.17009  4.17009  0.00000 -0.34018
       2     C     2.86320  2.86320  0.00000  0.27361
       3     C     3.11772  3.11772  0.00000 -0.23543
       4     C     3.15115  3.15115  0.00000 -0.30229
       5     C     3.09092  3.09092  0.00000 -0.18185
       6     H     0.44451  0.44451  0.00000  0.11097
       7     H     0.44176  0.44176  0.00000  0.11649
       8     C     3.09859  3.09859  0.00000 -0.19717
       9     H     0.44132  0.44132  0.00000  0.11737
      10     H     0.44409  0.44409  0.00000  0.11182
      11     C     3.09276  3.09276  0.00000 -0.18551
      12     H     0.44842  0.44842  0.00000  0.10315
      13     H     0.45072  0.45072  0.00000  0.09856
      14     C     3.08506  3.08506  0.00000 -0.17012
      15     H     0.45376  0.45376  0.00000  0.09249
      16     H     0.45366  0.45366  0.00000  0.09268
      17     C     3.14983  3.14983  0.00000 -0.29966
      18     H     0.45271  0.45271  0.00000  0.09458
      19     H     0.45447  0.45447  0.00000  0.09106
      20     H     0.45505  0.45505  0.00000  0.08989
      21     H     0.44774  0.44774  0.00000  0.10452
      22     H     0.45598  0.45598  0.00000  0.08804
      23     H     0.45075  0.45075  0.00000  0.09849
      24     H     0.43513  0.43513  0.00000  0.12974
      25     H     0.45062  0.45062  0.00000  0.09876

   Total alpha = 36.00000, Total beta = 36.00000, Total charge = -0.00000
