  ==> Input File <==

--------------------------------------------------------------------------
set {
	reference rhf
	basis 6-31G*
}

set_num_threads( 4 )
memory 2 gb

molecule MOL {
0 1

O	 1.433307	 -0.025128	 -0.808771
C	 0.576249	 0.131685	 -0.000108
C	 -0.766779	 -0.556801	 -0.000461
O	 0.694727	 0.954481	 1.034123
C	 -1.945214	 0.412366	 0.000161
H	 -0.796911	 -1.211249	 -0.867467
H	 -0.796854	 -1.212390	 0.865687
C	 -3.287791	 -0.317055	 0.000105
H	 -1.876087	 1.060580	 -0.866812
H	 -1.875822	 1.059691	 0.867761
H	 -3.394745	 -0.949193	 -0.877058
H	 -4.111778	 0.388953	 0.000015
H	 -3.394954	 -0.949187	 0.877259
C	 1.913111	 1.666283	 1.152804
H	 2.744084	 0.982991	 1.253490
H	 1.816267	 2.270788	 2.041095
H	 2.072247	 2.294155	 0.287955

	symmetry c1
}
set optking {
	frozen_dihedral = ("
		1 2 3 6
	")
}

ee = optimize('scf')
oeprop('DIPOLE', 'QUADRUPOLE', 'MULLIKEN_CHARGES')
f=open( 'psi4out.xyz', 'w' )
f.write( "17  " )
f.write( str(ee) + "\n" )
f.write( MOL.save_string_xyz() )
f.close()
--------------------------------------------------------------------------

    Molecular point group: c1
  Charge       = 0
  Multiplicity = 1
  Basis Set: 6-31G*
  Basis Set:
  @DF-RHF Final Energy:  -344.90518630503885
    Total Energy =                       -344.9051863050390239
    Molecular point group: c1
  Basis Set: 6-31G*
  Basis Set:
  Basis Set: 6-31G*
  Basis Set:
  @DF-RHF Final Energy:  -344.90516704456246
    Total Energy =                       -344.9051670445622904
  Basis Set: 6-31G*
  Basis Set:
  Basis Set: 6-31G*
  Basis Set:
  @DF-RHF Final Energy:  -344.90487958914787
    Total Energy =                       -344.9048795891476971
  Basis Set: 6-31G*
  Basis Set:
  Basis Set: 6-31G*
  Basis Set:
  @DF-RHF Final Energy:  -344.90549728192127
    Total Energy =                       -344.9054972819211571
  Basis Set: 6-31G*
  Basis Set:
  Basis Set: 6-31G*
  Basis Set:
  @DF-RHF Final Energy:  -344.90550042028178
    Total Energy =                       -344.9055004202821237
  Basis Set: 6-31G*
  Basis Set:
  Basis Set: 6-31G*
  Basis Set:
  @DF-RHF Final Energy:  -344.90550212631757
    Total Energy =                       -344.9055021263174012
  Basis Set: 6-31G*
  Basis Set:
  Charge       = 0
  Multiplicity = 1
  Basis Set: 6-31G*
  Basis Set:

    Orbital Energies (a.u.)
    -----------------------

    Doubly Occupied:

       1A    -20.604678     2A    -20.544133     3A    -11.371480
       4A    -11.281253     5A    -11.234978     6A    -11.230602
       7A    -11.218322     8A     -1.469285     9A     -1.361784
      10A     -1.084282    11A     -0.998735    12A     -0.941899
      13A     -0.831271    14A     -0.774424    15A     -0.696884
      16A     -0.680504    17A     -0.672856    18A     -0.637289
      19A     -0.595889    20A     -0.577889    21A     -0.550431
      22A     -0.544680    23A     -0.525358    24A     -0.509892
      25A     -0.489252    26A     -0.483211    27A     -0.455042
      28A     -0.431606

  @DF-RHF Final Energy:  -344.90550219325536

   => Energetics <=

    Nuclear Repulsion Energy =            314.2171218934929016
    One-Electron Energy =               -1092.6494255273246381
    Two-Electron Energy =                 433.5268014405761505
    DFT Exchange-Correlation Energy =       0.0000000000000000
    Empirical Dispersion Energy =           0.0000000000000000
    PCM Polarization Energy =               0.0000000000000000
    EFP Energy =                            0.0000000000000000
    Total Energy =                       -344.9055021932555292
    Molecular point group: c1
  Basis Set: 6-31G*
  Basis Set:

  -Total Gradient:
     Atom            X                  Y                   Z
    ------   -----------------  -----------------  -----------------
       1        0.000174390042    -0.000340315868     0.000245720745
       2       -0.000287813295     0.000549667179    -0.000405461740
       3        0.000289761001    -0.000536039153     0.000415938513
       4       -0.000002141748     0.000007070738     0.000001253765
       5        0.000000795760     0.000003555274    -0.000027424599
       6       -0.000175250455     0.000323960452    -0.000233847594
       7        0.000002651076    -0.000003059675    -0.000006241622
       8       -0.000003092088    -0.000002922608     0.000014535721
       9        0.000003619080    -0.000003538889     0.000002612577
      10       -0.000002363841     0.000000765061    -0.000002530246
      11       -0.000001799839     0.000007003188    -0.000005756536
      12        0.000000688343    -0.000000295809     0.000005438492
      13        0.000003247254    -0.000005628082    -0.000004004152
      14       -0.000003805920    -0.000001254683    -0.000001889663
      15        0.000000336851     0.000000039615     0.000000254496
      16       -0.000000342681     0.000000028544     0.000000756831
      17        0.000001120455     0.000000964717     0.000000645014

  **** Optimization is complete! (in 7 steps) ****
    Final optimized geometry and variables:
    Molecular point group: c1

    Geometry (in Angstrom), charge = 0, multiplicity = 1:

    O            1.588236284362    -0.356988364249    -1.021576605309
    C            0.744702212761    -0.199666683238    -0.198559114149
    C           -0.593416964293    -0.896734719420    -0.188482729253
    O            0.888113815865     0.616416905096     0.838331924900
    C           -1.783922319958     0.071200761325    -0.196455391212
    H           -0.619745519727    -1.544097649482    -1.055473138278
    H           -0.636102839865    -1.519908405894     0.700656988509
    C           -3.119852913544    -0.669009575153    -0.230768286047
    H           -1.709451495252     0.724030092393    -1.062400264476
    H           -1.736780119689     0.706609432818     0.680400986611
    H           -3.203885550515    -1.290014104313    -1.117665486600
    H           -3.949810191442     0.029994033851    -0.235902872094
    H           -3.234058326171    -1.312442344825     0.636925625874
    C            2.111649336718     1.322690921099     0.935732602547
    H            2.940943912072     0.635075314639     1.018349473205
    H            2.034618014400     1.925050304729     1.827466800463
    H            2.256836163014     1.952000723036     0.069580207546

  Mulliken Charges: (a.u.)
   Center  Symbol    Alpha    Beta     Spin     Total
       1     O     4.28559  4.28559  0.00000 -0.57118
       2     C     2.61389  2.61389  0.00000  0.77222
       3     C     3.19733  3.19733  0.00000 -0.39466
       4     O     4.30260  4.30260  0.00000 -0.60519
       5     C     3.16249  3.16249  0.00000 -0.32499
       6     H     0.39871  0.39871  0.00000  0.20257
       7     H     0.40416  0.40416  0.00000  0.19168
       8     C     3.24146  3.24146  0.00000 -0.48292
       9     H     0.41488  0.41488  0.00000  0.17024
      10     H     0.40684  0.40684  0.00000  0.18632
      11     H     0.41855  0.41855  0.00000  0.16290
      12     H     0.41533  0.41533  0.00000  0.16934
      13     H     0.41963  0.41963  0.00000  0.16073
      14     C     3.09227  3.09227  0.00000 -0.18454
      15     H     0.40867  0.40867  0.00000  0.18266
      16     H     0.40880  0.40880  0.00000  0.18240
      17     H     0.40879  0.40879  0.00000  0.18242

   Total alpha = 28.00000, Total beta = 28.00000, Total charge =  0.00000
