  ==> Input File <==

--------------------------------------------------------------------------
set {
	reference rhf
	basis cc-pvtz
}

set_num_threads( 4 )
memory 2 gb

molecule MOL {
0 1

H	 -2.936868	 2.271351	 -0.327168
O	 -2.246329	 1.679911	 -0.562858
C	 -2.302264	 0.528872	 0.237390
C	 -1.175688	 -0.398187	 -0.171891
H	 -2.203055	 0.790948	 1.288697
H	 -3.259113	 0.025768	 0.114279
C	 0.196029	 0.106276	 0.266738
H	 -1.201873	 -0.515469	 -1.250677
H	 -1.365975	 -1.378728	 0.252664
C	 1.330220	 -0.826136	 -0.155230
H	 0.359542	 1.097229	 -0.145561
H	 0.212134	 0.218135	 1.348778
C	 2.719700	 -0.407669	 0.328325
H	 1.339388	 -0.911200	 -1.239363
H	 1.119001	 -1.821953	 0.224128
C	 3.241564	 0.893452	 -0.276737
H	 3.418299	 -1.204729	 0.093035
H	 2.711776	 -0.323368	 1.411960
H	 3.254204	 0.841071	 -1.360784
H	 2.634460	 1.745075	 0.005842
H	 4.254264	 1.092401	 0.054971

	symmetry c1
}
set optking {
	frozen_dihedral = ("
		2 3 4 8
	")
}

ee = optimize('scf')
oeprop('DIPOLE', 'QUADRUPOLE', 'MULLIKEN_CHARGES')
f=open( 'psi4out.xyz', 'w' )
f.write( "21  " )
f.write( str(ee) + "\n" )
f.write( MOL.save_string_xyz() )
f.close()
--------------------------------------------------------------------------

    Molecular point group: c1
  Charge       = 0
  Multiplicity = 1
  Basis Set: CC-PVTZ
  Basis Set:
  @DF-RHF Final Energy:  -310.33267017695709
    Total Energy =                       -310.3326701769567535
    Molecular point group: c1
  Basis Set: CC-PVTZ
  Basis Set:
  Basis Set: CC-PVTZ
  Basis Set:
  @DF-RHF Final Energy:  -310.33279253876236
    Total Energy =                       -310.3327925387625328
  Basis Set: CC-PVTZ
  Basis Set:
  Basis Set: CC-PVTZ
  Basis Set:
  @DF-RHF Final Energy:  -310.33281665685917
    Total Energy =                       -310.3328166568593360
  Basis Set: CC-PVTZ
  Basis Set:
  Charge       = 0
  Multiplicity = 1
  Basis Set: CC-PVTZ
  Basis Set:

    Orbital Energies (a.u.)
    -----------------------

    Doubly Occupied:

       1A    -20.546387     2A    -11.265708     3A    -11.210061
       4A    -11.209522     5A    -11.207251     6A    -11.204993
       7A    -11.201720     8A     -1.364010     9A     -1.082805
      10A     -1.031325    11A     -0.954048    12A     -0.875770
      13A     -0.802798    14A     -0.773857    15A     -0.709027
      16A     -0.639569    17A     -0.629607    18A     -0.601341
      19A     -0.590661    20A     -0.564008    21A     -0.541544
      22A     -0.518552    23A     -0.502980    24A     -0.495653
      25A     -0.476428    26A     -0.456811    27A     -0.456045
      28A     -0.443881    29A     -0.428087

  @DF-RHF Final Energy:  -310.33281647126176

   => Energetics <=

    Nuclear Repulsion Energy =            317.4975477168990778
    One-Electron Energy =               -1050.0918218432823323
    Two-Electron Energy =                 422.2614576551217169
    DFT Exchange-Correlation Energy =       0.0000000000000000
    Empirical Dispersion Energy =           0.0000000000000000
    PCM Polarization Energy =               0.0000000000000000
    EFP Energy =                            0.0000000000000000
    Total Energy =                       -310.3328164712614807
    Molecular point group: c1
  Basis Set: CC-PVTZ
  Basis Set:

  -Total Gradient:
     Atom            X                  Y                   Z
    ------   -----------------  -----------------  -----------------
       1       -0.000005985567    -0.000037961821     0.000010711298
       2       -0.000744579507    -0.000616396245    -0.000965100606
       3        0.001214741415     0.001098795149     0.001201504609
       4       -0.001742431339    -0.001977660167    -0.000246111959
       5        0.000017363779     0.000045031454     0.000021255147
       6        0.000073708525    -0.000066979273     0.000003772000
       7        0.000233209854     0.000097026222     0.000059170359
       8        0.001122410049     0.001494507164    -0.000260447387
       9       -0.000015665148     0.000071825448     0.000097320760
      10       -0.000090557661    -0.000000521371     0.000027082225
      11        0.000014054301    -0.000047529884     0.000015923017
      12        0.000010645456    -0.000016657881     0.000056207338
      13        0.000016723064    -0.000005848623    -0.000060453934
      14       -0.000004015260    -0.000048086762    -0.000002245808
      15       -0.000012976793    -0.000002045843     0.000038017952
      16       -0.000030449223     0.000010472832     0.000022196679
      17        0.000017083903     0.000009266884    -0.000023193195
      18       -0.000001222199    -0.000022715146    -0.000013607030
      19        0.000000406007    -0.000009315609     0.000014765851
      20       -0.000076741781     0.000013510262    -0.000005969312
      21        0.000004278117     0.000011283210     0.000009201998

  **** Optimization is complete! (in 4 steps) ****
    Final optimized geometry and variables:
    Molecular point group: c1

    Geometry (in Angstrom), charge = 0, multiplicity = 1:

    H           -3.096288387862     2.027209031281    -0.280680354080
    O           -2.436441956199     1.407748996537    -0.531364298172
    C           -2.509968962818     0.265833989002     0.283311250194
    C           -1.378162583496    -0.673342894582    -0.088517525682
    H           -2.440262499076     0.539619652428     1.334038212331
    H           -3.463022571709    -0.235966387385     0.136364049880
    C           -0.001736376410    -0.171595505124     0.343724808158
    H           -1.390638652342    -0.800568753035    -1.166536857502
    H           -1.573263379057    -1.644667867277     0.356934703967
    C            1.128546754915    -1.098945261026    -0.097143340653
    H            0.147655942634     0.821627497272    -0.060334126038
    H            0.018942051455    -0.073935492584     1.427511830544
    C            2.521832964478    -0.679840416686     0.374991441168
    H            1.127430590529    -1.174144712471    -1.182179799614
    H            0.925550359193    -2.099843222595     0.275364954328
    C            3.026172312607     0.633685007040    -0.217741261688
    H            3.223073721942    -1.468604667176     0.119709942350
    H            2.526675469791    -0.610827947000     1.459778208054
    H            3.029687548565     0.594789895989    -1.302338509995
    H            2.412163590523     1.474882247511     0.079794414402
    H            4.039827857926     0.838247091232     0.107980600810

  Mulliken Charges: (a.u.)
   Center  Symbol    Alpha    Beta     Spin     Total
       1     H     0.39577  0.39577  0.00000  0.20846
       2     O     4.19841  4.19841  0.00000 -0.39682
       3     C     2.97339  2.97339  0.00000  0.05323
       4     C     3.09094  3.09094  0.00000 -0.18188
       5     H     0.47412  0.47412  0.00000  0.05176
       6     H     0.46514  0.46514  0.00000  0.06972
       7     C     3.09395  3.09395  0.00000 -0.18790
       8     H     0.45152  0.45152  0.00000  0.09696
       9     H     0.45256  0.45256  0.00000  0.09488
      10     C     3.09469  3.09469  0.00000 -0.18938
      11     H     0.44323  0.44323  0.00000  0.11354
      12     H     0.45882  0.45882  0.00000  0.08235
      13     C     3.08979  3.08979  0.00000 -0.17957
      14     H     0.45347  0.45347  0.00000  0.09306
      15     H     0.45169  0.45169  0.00000  0.09662
      16     C     3.15184  3.15184  0.00000 -0.30369
      17     H     0.44941  0.44941  0.00000  0.10119
      18     H     0.45579  0.45579  0.00000  0.08842
      19     H     0.45477  0.45477  0.00000  0.09045
      20     H     0.45300  0.45300  0.00000  0.09400
      21     H     0.44771  0.44771  0.00000  0.10459

   Total alpha = 29.00000, Total beta = 29.00000, Total charge = -0.00000
