                              Psi4 1.0.54 Driver

  ==> Input File <==

--------------------------------------------------------------------------
set {
	reference rhf
	basis cc-pvtz
}

set_num_threads( 4 )
memory 2 gb

molecule MOL {
0 1

H	 -3.162190	 0.493205	 -0.000107
C	 -2.363908	 -0.234727	 0.000005
O	 -1.158738	 0.454634	 -0.000087
H	 -2.464314	 -0.863616	 -0.882153
H	 -2.464327	 -0.863359	 0.882345
C	 -0.028611	 -0.359694	 0.000037
C	 1.212847	 0.509314	 -0.000053
H	 -0.034155	 -1.007047	 -0.877198
H	 -0.034195	 -1.006836	 0.877430
C	 2.410753	 -0.186638	 -0.636468
H	 0.990542	 1.429187	 -0.529524
H	 1.441483	 0.785090	 1.023482
H	 2.211870	 -0.449992	 -1.669994
H	 3.282585	 0.455823	 -0.623330
H	 2.666009	 -1.098222	 -0.106442

	symmetry c1
}
set optking {
	frozen_dihedral = ("
		11 7 6 8
	")
}

ee,wfn = optimize('scf', return_wfn=True)
oeprop( wfn, 'DIPOLE', 'QUADRUPOLE', 'MULLIKEN_CHARGES')
f=open( 'psi4out.xyz', 'w' )
f.write( "15  " )
f.write( str(ee) + "\n" )
f.write( MOL.save_string_xyz() )
f.close()
--------------------------------------------------------------------------

    Molecular point group: c1
  Charge       = 0
  Multiplicity = 1
  Basis Set: CC-PVTZ
  Basis Set:
  @DF-RHF Final Energy:  -232.22565886218624
    Total Energy =                       -232.2256588621863784
    Molecular point group: c1
  Basis Set: CC-PVTZ
  Basis Set:
  Basis Set: CC-PVTZ
  Basis Set:
  @DF-RHF Final Energy:  -232.22591484756842
    Total Energy =                       -232.2259148475684469
  Basis Set: CC-PVTZ
  Basis Set:
  Basis Set: CC-PVTZ
  Basis Set:
  @DF-RHF Final Energy:  -232.22598848184217
    Total Energy =                       -232.2259884818419096
  Basis Set: CC-PVTZ
  Basis Set:
  Basis Set: CC-PVTZ
  Basis Set:
  @DF-RHF Final Energy:  -232.22599082349922
    Total Energy =                       -232.2259908234992736
  Basis Set: CC-PVTZ
  Basis Set:
  Charge       = 0
  Multiplicity = 1
  Basis Set: CC-PVTZ
  Basis Set:

    Orbital Energies (a.u.)
    -----------------------

    Doubly Occupied:

       1A    -20.548570     2A    -11.264447     3A    -11.262054
       4A    -11.212525     5A    -11.210667     6A     -1.382719
       7A     -1.057159     8A     -0.956357     9A     -0.878176
      10A     -0.810133    11A     -0.674883    12A     -0.657900
      13A     -0.633405    14A     -0.604507    15A     -0.566747
      16A     -0.542552    17A     -0.502866    18A     -0.491282
      19A     -0.476485    20A     -0.463026    21A     -0.415575

  @DF-RHF Final Energy:  -232.22599108977104

   => Energetics <=

    Nuclear Repulsion Energy =            189.9225508591785854
    One-Electron Energy =                -691.0730108646798726
    Two-Electron Energy =                 268.9244689157301877
    DFT Exchange-Correlation Energy =       0.0000000000000000
    Empirical Dispersion Energy =           0.0000000000000000
    PCM Polarization Energy =               0.0000000000000000
    EFP Energy =                            0.0000000000000000
    Total Energy =                       -232.2259910897710711
    Molecular point group: c1
  Basis Set: CC-PVTZ
  Basis Set:

  -Total Gradient:
     Atom            X                  Y                   Z
    ------   -----------------  -----------------  -----------------
       1       -0.000003075394    -0.000000462329    -0.000002566651
       2        0.000006727598    -0.000010420397     0.000004421687
       3       -0.000007979670     0.000010532315     0.000001824254
       4       -0.000007831395     0.000000841516    -0.000001034308
       5       -0.000007347702     0.000001005684    -0.000000723064
       6       -0.002850139163     0.004229147093    -0.001978530710
       7        0.002131563140    -0.003009202437    -0.003968078647
       8        0.002086068828    -0.003059793697     0.002246041056
       9       -0.000019358593     0.000008994740     0.000005044507
      10        0.000012293747     0.000014523489    -0.000011810629
      11       -0.001318780057     0.001816451639     0.003683238497
      12       -0.000006023091    -0.000004809941     0.000007180337
      13       -0.000001172548     0.000002766425     0.000012436716
      14       -0.000002904117    -0.000003751944     0.000000403442
      15       -0.000012041582     0.000004177844     0.000002153512

  **** Optimization is complete! (in 5 steps) ****
    Final optimized geometry and variables:
    Molecular point group: c1

    Geometry (in Angstrom), charge = 0, multiplicity = 1:

    H           -3.154432364111     0.457340429226     0.171995324730
    C           -2.352425110588    -0.266514135861     0.163454889593
    O           -1.151464508630     0.428525594258     0.114167584342
    H           -2.474737669051    -0.913554836596    -0.702717659957
    H           -2.423362924894    -0.877844244610     1.060614591234
    C           -0.019159766262    -0.379614616148     0.086882192641
    C            1.230689904674     0.487679717057     0.108329396172
    H           -0.020388074463    -1.024850114426    -0.792169328379
    H           -0.020190309988    -1.048748146831     0.948053234473
    C            2.452753345643    -0.211935200017    -0.472036749288
    H            1.012301410360     1.408058617499    -0.420442865215
    H            1.432059979018     0.784268824010     1.132870040186
    H            2.309340098941    -0.448039551242    -1.520772850273
    H            3.333589761928     0.413141171871    -0.389629398563
    H            2.660324531286    -1.140682670215     0.050156892107

  Mulliken Charges: (a.u.)
   Center  Symbol    Alpha    Beta     Spin     Total
       1     H     0.44682  0.44682  0.00000  0.10637
       2     C     3.03161  3.03161  0.00000 -0.06322
       3     O     4.17121  4.17121  0.00000 -0.34243
       4     H     0.47247  0.47247  0.00000  0.05505
       5     H     0.47158  0.47158  0.00000  0.05684
       6     C     2.95717  2.95717  0.00000  0.08567
       7     C     3.08266  3.08266  0.00000 -0.16532
       8     H     0.47717  0.47717  0.00000  0.04567
       9     H     0.47541  0.47541  0.00000  0.04919
      10     C     3.15423  3.15423  0.00000 -0.30847
      11     H     0.44805  0.44805  0.00000  0.10391
      12     H     0.45403  0.45403  0.00000  0.09194
      13     H     0.45439  0.45439  0.00000  0.09121
      14     H     0.44704  0.44704  0.00000  0.10592
      15     H     0.45616  0.45616  0.00000  0.08767

   Total alpha = 21.00000, Total beta = 21.00000, Total charge =  0.00000

*** Psi4 exiting successfully. Buy a developer a beer!
