  ==> Input File <==

--------------------------------------------------------------------------
set {
	reference rhf
	basis 6-31G*
}

set_num_threads( 4 )
memory 2 gb

molecule MOL {
0 1

O	 3.225979	 0.970355	 -0.599647
C	 2.701189	 0.057885	 -0.047330
C	 1.245376	 -0.013843	 0.345420
O	 3.347903	 -1.046386	 0.304773
C	 0.455112	 1.231400	 -0.050772
H	 0.838542	 -0.913825	 -0.103701
H	 1.208210	 -0.175333	 1.419774
C	 -0.998893	 1.219485	 0.433193
H	 0.482531	 1.345121	 -1.130325
H	 0.957290	 2.103070	 0.354729
C	 -1.883438	 0.145884	 -0.207175
H	 -1.431207	 2.195402	 0.224832
H	 -1.019646	 1.105716	 1.516076
C	 -3.347647	 0.245583	 0.225435
H	 -1.822183	 0.231698	 -1.291012
H	 -1.510341	 -0.844814	 0.042401
C	 -4.239992	 -0.825570	 -0.404234
H	 -3.732888	 1.230466	 -0.033079
H	 -3.408585	 0.170602	 1.310038
C	 -4.693990	 -0.468774	 -1.819255
H	 -3.705064	 -1.772698	 -0.425276
H	 -5.113217	 -0.982763	 0.225487
H	 -5.324543	 -1.246792	 -2.238418
H	 -3.843630	 -0.339108	 -2.482783
H	 -5.262084	 0.457230	 -1.826982
C	 4.728119	 -1.109107	 -0.004993
H	 4.882018	 -1.033965	 -1.071845
H	 5.068212	 -2.067527	 0.355250
H	 5.265056	 -0.311663	 0.488280

	symmetry c1
}
set optking {
	frozen_dihedral = ("
		21 17 14 11
	")
}

ee = optimize('scf')
oeprop('DIPOLE', 'QUADRUPOLE', 'MULLIKEN_CHARGES')
f=open( 'psi4out.xyz', 'w' )
f.write( "29  " )
f.write( str(ee) + "\n" )
f.write( MOL.save_string_xyz() )
f.close()
--------------------------------------------------------------------------

    Molecular point group: c1
  Charge       = 0
  Multiplicity = 1
  Basis Set: 6-31G*
  Basis Set:
  @DF-RHF Final Energy:  -501.04153175405634
    Total Energy =                       -501.0415317540573596
    Molecular point group: c1
  Basis Set: 6-31G*
  Basis Set:
  Basis Set: 6-31G*
  Basis Set:
  @DF-RHF Final Energy:  -501.04169397927990
    Total Energy =                       -501.0416939792806943
  Basis Set: 6-31G*
  Basis Set:
  Basis Set: 6-31G*
  Basis Set:
  @DF-RHF Final Energy:  -501.04172514081779
    Total Energy =                       -501.0417251408172206
  Basis Set: 6-31G*
  Basis Set:
  Charge       = 0
  Multiplicity = 1
  Basis Set: 6-31G*
  Basis Set:

    Orbital Energies (a.u.)
    -----------------------

    Doubly Occupied:

       1A    -20.603412     2A    -20.545236     3A    -11.372047
       4A    -11.280695     5A    -11.234800     6A    -11.219139
       7A    -11.217629     8A    -11.216019     9A    -11.215915
      10A    -11.214472    11A    -11.208652    12A     -1.469110
      13A     -1.362552    14A     -1.098004    15A     -1.066131
      16A     -1.018295    17A     -0.976080    18A     -0.928141
      19A     -0.867182    20A     -0.801822    21A     -0.783775
      22A     -0.764017    23A     -0.700547    24A     -0.682411
      25A     -0.672130    26A     -0.643207    27A     -0.628045
      28A     -0.609614    29A     -0.600757    30A     -0.582469
      31A     -0.560914    32A     -0.554564    33A     -0.535559
      34A     -0.524912    35A     -0.515770    36A     -0.508532
      37A     -0.501423    38A     -0.476214    39A     -0.473329
      40A     -0.460017    41A     -0.456658    42A     -0.453264
      43A     -0.441552    44A     -0.435573

  @DF-RHF Final Energy:  -501.04172569202865

   => Energetics <=

    Nuclear Repulsion Energy =            614.6256166377779664
    One-Electron Energy =               -1900.3735145722200741
    Two-Electron Energy =                 784.7061722424130039
    DFT Exchange-Correlation Energy =       0.0000000000000000
    Empirical Dispersion Energy =           0.0000000000000000
    PCM Polarization Energy =               0.0000000000000000
    EFP Energy =                            0.0000000000000000
    Total Energy =                       -501.0417256920291038
    Molecular point group: c1
  Basis Set: 6-31G*
  Basis Set:

  -Total Gradient:
     Atom            X                  Y                   Z
    ------   -----------------  -----------------  -----------------
       1        0.000005873196     0.000008605434     0.000026983504
       2       -0.000013231291    -0.000037293475    -0.000079574308
       3        0.000001877707    -0.000006234942     0.000015314169
       4       -0.000001408395     0.000012968572     0.000018118977
       5       -0.000015240620     0.000007655622    -0.000049345822
       6        0.000023578168    -0.000003525719     0.000010642363
       7        0.000000460776     0.000007244150    -0.000004569555
       8       -0.000150043937     0.000048306385    -0.000038412349
       9        0.000023721590     0.000019209375    -0.000008928270
      10       -0.000012528028    -0.000022012358     0.000005336990
      11        0.000392255896    -0.001288452368     0.001364764196
      12       -0.000041977860     0.000011293948     0.000030636127
      13        0.000027115523    -0.000004364855     0.000011955244
      14       -0.000295840005     0.001825077651    -0.002526500411
      15        0.000132744120    -0.000024840330     0.000025945748
      16       -0.000062154793    -0.000013125944     0.000037957233
      17       -0.001060013065    -0.001311020395     0.003496888125
      18       -0.000070927831    -0.000018866123     0.000000959417
      19       -0.000018617107    -0.000112937134    -0.000023735453
      20        0.000057307429     0.000127971306     0.000002596120
      21        0.001042910863     0.000635592986    -0.002274982490
      22        0.000065459589     0.000139193088    -0.000028771854
      23        0.000011845595    -0.000034867968     0.000060993594
      24       -0.000033783378    -0.000012414757    -0.000038277459
      25       -0.000010561238     0.000045936993    -0.000037355159
      26        0.000001805253     0.000000326803     0.000001287354
      27       -0.000001324515     0.000000183724    -0.000000084004
      28       -0.000000116751     0.000000643425     0.000000181419
      29        0.000000813102    -0.000000253091    -0.000000023444

  **** Optimization is complete! (in 4 steps) ****
    Final optimized geometry and variables:
    Molecular point group: c1

    Geometry (in Angstrom), charge = 0, multiplicity = 1:

    O            3.133324438673     0.945611065006    -0.428465016650
    C            2.610151444330     0.035890394348     0.129885689337
    C            1.154346670941    -0.036006287771     0.522650715767
    O            3.259001827440    -1.064460431162     0.490193583885
    C            0.361697669611     1.204783540885     0.117263380672
    H            0.749641421537    -0.940121481018     0.079973058444
    H            1.117134753295    -0.189762963035     1.598128702252
    C           -1.093155607459     1.192576205010     0.598804593911
    H            0.390928268060     1.311973568396    -0.962918234907
    H            0.861091285974     2.080109127489     0.518247429288
    C           -1.973162305404     0.110545642310    -0.033586230884
    H           -1.528139258926     2.165190761785     0.380923827704
    H           -1.115493153986     1.088637273371     1.682736697093
    C           -3.437143551342     0.209699548897     0.405402573171
    H           -1.902032274058     0.186109702915    -1.116955209995
    H           -1.601434243008    -0.876912650991     0.229438327083
    C           -4.353141461978    -0.844552020976    -0.232798876642
    H           -3.821659894449     1.204139829969     0.187315633364
    H           -3.474006611126     0.102501152417     1.487587560205
    C           -4.813787405367    -0.480318432244    -1.646522229623
    H           -3.830488120969    -1.797793108717    -0.272320047614
    H           -5.228163364820    -0.990784511437     0.393942892695
    H           -5.448534970179    -1.257525305903    -2.061284263515
    H           -3.974170665088    -0.349517014650    -2.322318061166
    H           -5.382886379871     0.445128791331    -1.644678557967
    C            4.639545269947    -1.126441321364     0.181692719942
    H            4.793922633702    -1.058597041547    -0.885583526493
    H            4.981441428801    -2.081530249457     0.548983415486
    H            5.174468563933    -0.324347335768     0.669582191140

  Mulliken Charges: (a.u.)
   Center  Symbol    Alpha    Beta     Spin     Total
       1     O     4.28595  4.28595  0.00000 -0.57190
       2     C     2.60484  2.60484  0.00000  0.79032
       3     C     3.20968  3.20968  0.00000 -0.41935
       4     O     4.30747  4.30747  0.00000 -0.61494
       5     C     3.15373  3.15373  0.00000 -0.30746
       6     H     0.39890  0.39890  0.00000  0.20220
       7     H     0.40121  0.40121  0.00000  0.19758
       8     C     3.15651  3.15651  0.00000 -0.31301
       9     H     0.41312  0.41312  0.00000  0.17375
      10     H     0.40880  0.40880  0.00000  0.18241
      11     C     3.15639  3.15639  0.00000 -0.31279
      12     H     0.41809  0.41809  0.00000  0.16383
      13     H     0.42393  0.42393  0.00000  0.15215
      14     C     3.15304  3.15304  0.00000 -0.30607
      15     H     0.42177  0.42177  0.00000  0.15646
      16     H     0.42329  0.42329  0.00000  0.15342
      17     C     3.15360  3.15360  0.00000 -0.30721
      18     H     0.42270  0.42270  0.00000  0.15459
      19     H     0.42208  0.42208  0.00000  0.15585
      20     C     3.24030  3.24030  0.00000 -0.48060
      21     H     0.42318  0.42318  0.00000  0.15364
      22     H     0.42005  0.42005  0.00000  0.15989
      23     H     0.41956  0.41956  0.00000  0.16087
      24     H     0.42103  0.42103  0.00000  0.15793
      25     H     0.42166  0.42166  0.00000  0.15668
      26     C     3.09241  3.09241  0.00000 -0.18482
      27     H     0.40908  0.40908  0.00000  0.18183
      28     H     0.40851  0.40851  0.00000  0.18298
      29     H     0.40911  0.40911  0.00000  0.18177

   Total alpha = 44.00000, Total beta = 44.00000, Total charge = -0.00000
