  ==> Input File <==

--------------------------------------------------------------------------
set {
	reference rhf
	basis 6-31G*
}

set_num_threads( 4 )
memory 2 gb

molecule MOL {
0 1

H	 -3.300935	 0.569811	 -0.092853
C	 -2.250438	 0.343604	 -0.073943
C	 -1.813319	 -0.976409	 -0.047156
C	 -1.314746	 1.357472	 -0.075855
H	 -2.528528	 -1.779715	 -0.045257
C	 -0.467130	 -1.270318	 -0.022861
H	 -1.634366	 2.384364	 -0.096394
C	 0.047459	 1.077717	 -0.051544
H	 -0.115933	 -2.285237	 -0.002043
C	 0.472246	 -0.241347	 -0.024952
H	 0.750370	 1.888012	 -0.053731
O	 1.765256	 -0.628444	 0.000000
C	 2.778419	 0.335181	 0.000000
H	 2.731280	 0.961222	 -0.884976
H	 3.711703	 -0.207767	 0.000000
H	 2.731280	 0.961222	 0.884976

	symmetry c1
}
set optking {
	frozen_dihedral = ("
		10 12 13 14
	")
}

ee = optimize('scf')
oeprop('DIPOLE', 'QUADRUPOLE', 'MULLIKEN_CHARGES')
f=open( 'psi4out.xyz', 'w' )
f.write( "16  " )
f.write( str(ee) + "\n" )
f.write( MOL.save_string_xyz() )
f.close()
--------------------------------------------------------------------------

    Molecular point group: c1
  Charge       = 0
  Multiplicity = 1
  Basis Set: 6-31G*
  Basis Set:
  @DF-RHF Final Energy:  -344.58278921468252
    Total Energy =                       -344.5827892146827480
    Molecular point group: c1
  Basis Set: 6-31G*
  Basis Set:
  Basis Set: 6-31G*
  Basis Set:
  @DF-RHF Final Energy:  -344.58279271416831
    Total Energy =                       -344.5827927141684768
  Basis Set: 6-31G*
  Basis Set:
  Charge       = 0
  Multiplicity = 1
  Basis Set: 6-31G*
  Basis Set:

    Orbital Energies (a.u.)
    -----------------------

    Doubly Occupied:

       1A    -20.585270     2A    -11.294028     3A    -11.280008
       4A    -11.232814     5A    -11.231301     6A    -11.223722
       7A    -11.219188     8A    -11.219105     9A     -1.414413
      10A     -1.145712    11A     -1.021758    12A     -1.012619
      13A     -0.941647    14A     -0.830290    15A     -0.804537
      16A     -0.721764    17A     -0.663837    18A     -0.661523
      19A     -0.656476    20A     -0.616856    21A     -0.586596
      22A     -0.575523    23A     -0.523755    24A     -0.520738
      25A     -0.508740    26A     -0.475364    27A     -0.462299
      28A     -0.334579    29A     -0.304829

  @DF-RHF Final Energy:  -344.58279324803505

   => Energetics <=

    Nuclear Repulsion Energy =            348.1395287463981276
    One-Electron Energy =               -1157.3060584555755668
    Two-Electron Energy =                 464.5837364611422799
    DFT Exchange-Correlation Energy =       0.0000000000000000
    Empirical Dispersion Energy =           0.0000000000000000
    PCM Polarization Energy =               0.0000000000000000
    EFP Energy =                            0.0000000000000000
    Total Energy =                       -344.5827932480351592
    Molecular point group: c1
  Basis Set: 6-31G*
  Basis Set:

  -Total Gradient:
     Atom            X                  Y                   Z
    ------   -----------------  -----------------  -----------------
       1       -0.000000919037     0.000004013552    -0.000006804052
       2       -0.000011914643    -0.000053326731     0.000004177956
       3       -0.000035754501     0.000038874494     0.000008221020
       4        0.000050148387     0.000016055803     0.000006681356
       5       -0.000000059419    -0.000005139767    -0.000000394757
       6        0.000058544656     0.000015712100    -0.000012374728
       7       -0.000002527670    -0.000000477339    -0.000002878791
       8       -0.000032359885     0.000036467653    -0.000014871702
       9       -0.000004545739    -0.000000114074     0.000003908717
      10       -0.000000903044    -0.000049899126    -0.000132394128
      11       -0.000002778723    -0.000004511331     0.000008883882
      12       -0.000022862322     0.000014931831     0.000216971680
      13        0.000129608777    -0.000153155444    -0.000171530288
      14       -0.000103154226     0.000118187136     0.000095800900
      15       -0.000028779470    -0.000018811912    -0.000004052027
      16        0.000008256861     0.000041193157     0.000000654963

  **** Optimization is complete! (in 3 steps) ****
    Final optimized geometry and variables:
    Molecular point group: c1

    Geometry (in Angstrom), charge = 0, multiplicity = 1:

    H           -3.301079047896     0.569897668537    -0.065547182076
    C           -2.250588990985     0.343883888478    -0.043056071942
    C           -1.813349116183    -0.976306686797    -0.017282684756
    C           -1.315102227631     1.357734144493    -0.039239837981
    H           -2.528664799296    -1.779581307908    -0.019734570885
    C           -0.467373704882    -1.270004658702     0.011133204408
    H           -1.634597568853     2.384697204578    -0.058528150110
    C            0.047217302850     1.078093983155    -0.010399836071
    H           -0.115882748926    -2.284836594756     0.031039316146
    C            0.471997341564    -0.240810923537     0.014505265711
    H            0.749932953238     1.888513947770    -0.007027921882
    O            1.764707109441    -0.628024355634     0.044253180652
    C            2.778236130720     0.335078120363     0.028989051347
    H            2.730769243269     0.947838527503    -0.865171730166
    H            3.711295209576    -0.208150123721     0.037772833038
    H            2.731113227633     0.975289179952     0.903921109579

  Mulliken Charges: (a.u.)
   Center  Symbol    Alpha    Beta     Spin     Total
       1     H     0.40127  0.40127  0.00000  0.19747
       2     C     3.11208  3.11208  0.00000 -0.22416
       3     C     3.09182  3.09182  0.00000 -0.18363
       4     C     3.09097  3.09097  0.00000 -0.18193
       5     H     0.39880  0.39880  0.00000  0.20241
       6     C     3.12544  3.12544  0.00000 -0.25088
       7     H     0.39970  0.39970  0.00000  0.20061
       8     C     3.14506  3.14506  0.00000 -0.29012
       9     H     0.39294  0.39294  0.00000  0.21411
      10     C     2.78221  2.78221  0.00000  0.43558
      11     H     0.39741  0.39741  0.00000  0.20519
      12     O     4.32593  4.32593  0.00000 -0.65186
      13     C     3.09241  3.09241  0.00000 -0.18483
      14     H     0.41967  0.41967  0.00000  0.16066
      15     H     0.40458  0.40458  0.00000  0.19084
      16     H     0.41972  0.41972  0.00000  0.16056

   Total alpha = 29.00000, Total beta = 29.00000, Total charge =  0.00000
