                              Psi4 1.0.54 Driver

  ==> Input File <==

--------------------------------------------------------------------------
set {
	reference rhf
	basis cc-pvtz
}

set_num_threads( 4 )
memory 2 gb

molecule MOL {
0 1

H	 -3.436473	 1.252944	 -1.023892
O	 -3.458596	 0.315260	 -0.960865
C	 -3.176635	 -0.080824	 0.355601
C	 -1.763371	 0.265266	 0.799691
H	 -3.321825	 -1.153438	 0.379502
H	 -3.895468	 0.357385	 1.043382
C	 -0.680161	 -0.561347	 0.112895
H	 -1.586175	 1.324682	 0.620519
H	 -1.704502	 0.126249	 1.876537
C	 0.732788	 -0.178651	 0.545435
H	 -0.774135	 -0.451352	 -0.961807
H	 -0.849741	 -1.613895	 0.327119
C	 1.811899	 -1.013069	 -0.141816
H	 0.891090	 0.875372	 0.338394
H	 0.824456	 -0.294936	 1.623365
C	 3.241330	 -0.722044	 0.318487
H	 1.746250	 -0.867872	 -1.217667
H	 1.601492	 -2.064466	 0.034012
C	 3.755645	 0.670660	 -0.037883
H	 3.901705	 -1.460141	 -0.126364
H	 3.307997	 -0.866215	 1.393749
H	 3.695425	 0.845746	 -1.107367
H	 4.792829	 0.784322	 0.256350
H	 3.190410	 1.451100	 0.457120

	symmetry c1
}
set optking {
	frozen_dihedral = ("
		7 4 3 2
	")
}

ee,wfn = optimize('scf', return_wfn=True)
oeprop( wfn, 'DIPOLE', 'QUADRUPOLE', 'MULLIKEN_CHARGES')
f=open( 'psi4out.xyz', 'w' )
f.write( "24  " )
f.write( str(ee) + "\n" )
f.write( MOL.save_string_xyz() )
f.close()
--------------------------------------------------------------------------

    Molecular point group: c1
  Charge       = 0
  Multiplicity = 1
  Basis Set: CC-PVTZ
  Basis Set:
  @DF-RHF Final Energy:  -349.38012764702722
    Total Energy =                       -349.3801276470268249
    Molecular point group: c1
  Basis Set: CC-PVTZ
  Basis Set:
  Basis Set: CC-PVTZ
  Basis Set:
  @DF-RHF Final Energy:  -349.38014602331140
    Total Energy =                       -349.3801460233112266
  Basis Set: CC-PVTZ
  Basis Set:
  Basis Set: CC-PVTZ
  Basis Set:
  @DF-RHF Final Energy:  -349.38015048207251
    Total Energy =                       -349.3801504820723949
  Basis Set: CC-PVTZ
  Basis Set:
  Charge       = 0
  Multiplicity = 1
  Basis Set: CC-PVTZ
  Basis Set:

    Orbital Energies (a.u.)
    -----------------------

    Doubly Occupied:

       1A    -20.545840     2A    -11.265419     3A    -11.215294
       4A    -11.212235     5A    -11.210477     6A    -11.209737
       7A    -11.209470     8A    -11.205360     9A     -1.363770
      10A     -1.090165    11A     -1.049674    12A     -0.986705
      13A     -0.915744    14A     -0.851226    15A     -0.802529
      16A     -0.776797    17A     -0.682047    18A     -0.653917
      19A     -0.625968    20A     -0.622054    21A     -0.597923
      22A     -0.585375    23A     -0.560198    24A     -0.540286
      25A     -0.516661    26A     -0.511931    27A     -0.498184
      28A     -0.475093    29A     -0.467523    30A     -0.461303
      31A     -0.456605    32A     -0.451618    33A     -0.420555

  @DF-RHF Final Energy:  -349.38015062706444

   => Energetics <=

    Nuclear Repulsion Energy =            384.4678324695274227
    One-Electron Energy =               -1235.6206015109191867
    Two-Electron Energy =                 501.7726184143271553
    DFT Exchange-Correlation Energy =       0.0000000000000000
    Empirical Dispersion Energy =           0.0000000000000000
    PCM Polarization Energy =               0.0000000000000000
    EFP Energy =                            0.0000000000000000
    Total Energy =                       -349.3801506270646655
    Molecular point group: c1
  Basis Set: CC-PVTZ
  Basis Set:

  -Total Gradient:
     Atom            X                  Y                   Z
    ------   -----------------  -----------------  -----------------
       1        0.000000366704    -0.000026970661     0.000003920579
       2       -0.000544894884     0.001513618402     0.000555956900
       3        0.000700708023    -0.002447775902    -0.000345453052
       4       -0.000035555392     0.002060967650    -0.001367496125
       5        0.000013478643     0.000018560705     0.000004179017
       6        0.000000974090    -0.000005538334     0.000015977526
       7       -0.000118656306    -0.001091825395     0.001141997627
       8       -0.000021669900    -0.000025324355     0.000005712262
       9        0.000006026904    -0.000002648662    -0.000000254873
      10        0.000007625610    -0.000001763840     0.000002642117
      11        0.000008240084    -0.000011330489    -0.000021920753
      12       -0.000008811076     0.000013073435     0.000010466655
      13       -0.000001222840     0.000008763292    -0.000009983277
      14        0.000003531274    -0.000000736376     0.000005419707
      15       -0.000004401216    -0.000008006231     0.000001812023
      16       -0.000002200485     0.000005405101    -0.000003808694
      17        0.000001108286    -0.000004098390    -0.000002253218
      18        0.000001247589     0.000006415780     0.000003786193
      19        0.000001822471     0.000000663684    -0.000000013455
      20       -0.000003077076    -0.000000683306    -0.000000589354
      21       -0.000001525426     0.000000697738    -0.000001649162
      22        0.000000533642    -0.000000612338     0.000002164401
      23       -0.000001267834    -0.000000105891    -0.000000514884
      24       -0.000002380882    -0.000000745615    -0.000000098163

  **** Optimization is complete! (in 4 steps) ****
    Final optimized geometry and variables:
    Molecular point group: c1

    Geometry (in Angstrom), charge = 0, multiplicity = 1:

    H           -3.402387128189     1.412400490701    -1.131695156323
    O           -3.440667624744     0.474813674769    -1.079198053931
    C           -3.180134203187     0.062531647594     0.236970335533
    C           -1.770378891518     0.398763896004     0.701334700498
    H           -3.335396302856    -1.008524130964     0.251800260064
    H           -3.905650788717     0.503157438689     0.916283794323
    C           -0.684777370432    -0.426896690710     0.016950330006
    H           -1.590328948190     1.460099455777     0.540635930960
    H           -1.719642194665     0.241758895786     1.776205796376
    C            0.728174491324    -0.041930442855     0.447094483014
    H           -0.779121375666    -0.319500731921    -1.058773394283
    H           -0.853850909849    -1.478436033977     0.235413256792
    C            1.807458466102    -0.881202042017    -0.233973661967
    H            0.886596052264     1.010564364102     0.232942978110
    H            0.819090454259    -0.150930655806     1.525914534544
    C            3.237035593710    -0.585269439748     0.222839185655
    H            1.740866598620    -0.745034103968    -1.310938969879
    H            1.598027624441    -1.931272663252    -0.049190539205
    C            3.749885144935     0.805048961382    -0.144849319532
    H            3.897668496416    -1.326226658182    -0.216834575922
    H            3.304794231767    -0.721082157029     1.299128469338
    H            3.687205256430     0.972314657256    -1.215425452828
    H            4.787651755411     0.921355131109     0.146252319876
    H            3.185391875019     1.588841108482     0.345669945970

  Mulliken Charges: (a.u.)
   Center  Symbol    Alpha    Beta     Spin     Total
       1     H     0.39539  0.39539  0.00000  0.20923
       2     O     4.20419  4.20419  0.00000 -0.40837
       3     C     2.97595  2.97595  0.00000  0.04810
       4     C     3.09774  3.09774  0.00000 -0.19547
       5     H     0.45952  0.45952  0.00000  0.08097
       6     H     0.46122  0.46122  0.00000  0.07756
       7     C     3.08914  3.08914  0.00000 -0.17828
       8     H     0.46029  0.46029  0.00000  0.07942
       9     H     0.45406  0.45406  0.00000  0.09188
      10     C     3.09214  3.09214  0.00000 -0.18428
      11     H     0.44636  0.44636  0.00000  0.10728
      12     H     0.45483  0.45483  0.00000  0.09035
      13     C     3.09458  3.09458  0.00000 -0.18916
      14     H     0.45305  0.45305  0.00000  0.09391
      15     H     0.45619  0.45619  0.00000  0.08762
      16     C     3.09019  3.09019  0.00000 -0.18039
      17     H     0.45342  0.45342  0.00000  0.09315
      18     H     0.44981  0.44981  0.00000  0.10037
      19     C     3.15249  3.15249  0.00000 -0.30499
      20     H     0.44858  0.44858  0.00000  0.10284
      21     H     0.45523  0.45523  0.00000  0.08954
      22     H     0.45475  0.45475  0.00000  0.09050
      23     H     0.44662  0.44662  0.00000  0.10677
      24     H     0.45427  0.45427  0.00000  0.09146

   Total alpha = 33.00000, Total beta = 33.00000, Total charge = -0.00000

*** Psi4 exiting successfully. Buy a developer a beer!
