  ==> Input File <==

--------------------------------------------------------------------------
set {
	reference rhf
	basis 6-31G*
}

set_num_threads( 1 )
memory 2 gb

molecule MOL {
0 1

H	 -3.275893	 0.345784	 3.051040
O	 -2.563810	 -0.213018	 2.774306
C	 -1.818962	 0.431869	 1.773349
C	 -0.687956	 -0.490861	 1.354851
H	 -2.449103	 0.662327	 0.915375
H	 -1.414629	 1.373214	 2.143113
C	 0.198102	 0.111031	 0.262842
H	 -1.119712	 -1.427502	 1.012771
H	 -0.093686	 -0.723834	 2.234081
C	 1.331804	 -0.827780	 -0.158768
H	 -0.416238	 0.359965	 -0.599011
H	 0.624910	 1.048670	 0.616660
C	 2.723619	 -0.410569	 0.329459
H	 1.342964	 -0.912588	 -1.244120
H	 1.116806	 -1.824343	 0.220779
C	 3.243875	 0.895854	 -0.272975
H	 3.424222	 -1.207124	 0.091250
H	 2.714788	 -0.329854	 1.414619
H	 3.251977	 0.848779	 -1.358681
H	 2.637085	 1.747371	 0.016682
H	 4.259473	 1.094070	 0.055697

	symmetry c1
}
set optking {
	frozen_dihedral = ("
		2 3 4 8,
		8 4 7 10,
		16 13 10 14,
		1 2 3 5
	")
}

ee = energy('scf')
oeprop('DIPOLE', 'QUADRUPOLE', 'MULLIKEN_CHARGES')
f=open( 'psi4out.xyz', 'w' )
f.write( "21  " )
f.write( str(ee) + "\n" )
f.write( MOL.save_string_xyz() )
f.close()
--------------------------------------------------------------------------

    Molecular point group: c1

    Geometry (in Angstrom), charge = 0, multiplicity = 1:

       Center              X                  Y                   Z               Mass
    ------------   -----------------  -----------------  -----------------  -----------------
           H         -3.565437580276     0.402877358437     2.145328373611     1.007825032070
           O         -2.853354580276    -0.155924641563     1.868594373611    15.994914619560
           C         -2.108506580276     0.488962358437     0.867637373611    12.000000000000
           C         -0.977500580276    -0.433767641563     0.449139373611    12.000000000000
           H         -2.738647580276     0.719420358437     0.009663373611     1.007825032070
           H         -1.704173580276     1.430307358437     1.237401373611     1.007825032070
           C         -0.091442580276     0.168124358437    -0.642869626389    12.000000000000
           H         -1.409256580276    -1.370408641563     0.107059373611     1.007825032070
           H         -0.383230580276    -0.666740641563     1.328369373611     1.007825032070
           C          1.042259419724    -0.770686641563    -1.064479626389    12.000000000000
           H         -0.705782580276     0.417058358437    -1.504722626389     1.007825032070
           H          0.335365419724     1.105763358437    -0.289051626389     1.007825032070
           C          2.434074419724    -0.353475641563    -0.576252626389    12.000000000000
           H          1.053419419724    -0.855494641563    -2.149831626389     1.007825032070
           H          0.827261419724    -1.767249641563    -0.684932626389     1.007825032070
           C          2.954330419724     0.952947358437    -1.178686626389    12.000000000000
           H          3.134677419724    -1.150030641563    -0.814461626389     1.007825032070
           H          2.425243419724    -0.272760641563     0.508907373611     1.007825032070
           H          2.962432419724     0.905872358437    -2.264392626389     1.007825032070
           H          2.347540419724     1.804464358437    -0.889029626389     1.007825032070
           H          3.969928419724     1.151163358437    -0.850014626389     1.007825032070

  Charge       = 0
  Multiplicity = 1
  Basis Set: 6-31G*
  Basis Set:

    Orbital Energies (a.u.)
    -----------------------

    Doubly Occupied:

       1A    -20.551645     2A    -11.266531     3A    -11.215131
       4A    -11.214175     5A    -11.212077     6A    -11.210700
       7A    -11.208287     8A     -1.358463     9A     -1.086738
      10A     -1.032052    11A     -0.954410    12A     -0.875163
      13A     -0.812415    14A     -0.774277    15A     -0.691634
      16A     -0.659061    17A     -0.626768    18A     -0.609537
      19A     -0.575345    20A     -0.572226    21A     -0.543713
      22A     -0.524591    23A     -0.498598    24A     -0.492178
      25A     -0.482804    26A     -0.456338    27A     -0.450557
      28A     -0.444288    29A     -0.433911

  @DF-RHF Final Energy:  -310.20750825868765

   => Energetics <=

    Nuclear Repulsion Energy =            314.5147297172755998
    One-Electron Energy =               -1043.7774611873026060
    Two-Electron Energy =                 419.0552232113385571
    DFT Exchange-Correlation Energy =       0.0000000000000000
    Empirical Dispersion Energy =           0.0000000000000000
    PCM Polarization Energy =               0.0000000000000000
    EFP Energy =                            0.0000000000000000
    Total Energy =                       -310.2075082586884491

  Mulliken Charges: (a.u.)
   Center  Symbol    Alpha    Beta     Spin     Total
       1     H     0.28123  0.28123  0.00000  0.43754
       2     O     4.37179  4.37179  0.00000 -0.74358
       3     C     2.99027  2.99027  0.00000  0.01946
       4     C     3.16139  3.16139  0.00000 -0.32279
       5     H     0.43289  0.43289  0.00000  0.13423
       6     H     0.43301  0.43301  0.00000  0.13398
       7     C     3.16322  3.16322  0.00000 -0.32644
       8     H     0.41435  0.41435  0.00000  0.17131
       9     H     0.41475  0.41475  0.00000  0.17051
      10     C     3.15548  3.15548  0.00000 -0.31096
      11     H     0.42075  0.42075  0.00000  0.15849
      12     H     0.42096  0.42096  0.00000  0.15807
      13     C     3.15430  3.15430  0.00000 -0.30859
      14     H     0.42163  0.42163  0.00000  0.15674
      15     H     0.41781  0.41781  0.00000  0.16438
      16     C     3.24056  3.24056  0.00000 -0.48113
      17     H     0.42089  0.42089  0.00000  0.15823
      18     H     0.42283  0.42283  0.00000  0.15435
      19     H     0.42208  0.42208  0.00000  0.15585
      20     H     0.42084  0.42084  0.00000  0.15831
      21     H     0.41897  0.41897  0.00000  0.16206

   Total alpha = 29.00000, Total beta = 29.00000, Total charge =  0.00000
