  ==> Input File <==

--------------------------------------------------------------------------
set {
	reference rhf
	basis 6-31G*
}

set_num_threads( 4 )
memory 2 gb

molecule MOL {
0 1

O	 0.844541	 0.088902	 0.863957
C	 0.028650	 0.075053	 -0.000277
C	 -1.233602	 -0.752807	 0.000328
O	 0.125993	 0.803627	 -1.104634
C	 -2.501530	 0.091881	 0.000126
H	 -1.193807	 -1.406641	 -0.865785
H	 -1.193516	 -1.405779	 0.867015
H	 -2.545121	 0.729328	 -0.874513
H	 -3.377167	 -0.548497	 0.000561
H	 -2.544818	 0.730135	 0.874258
C	 1.270050	 1.628638	 -1.231441
H	 1.310197	 2.348488	 -0.426694
H	 1.166516	 2.132873	 -2.179539
H	 2.171286	 1.032716	 -1.220470

	symmetry c1
}
set optking {
	frozen_dihedral = ("
		4 2 3 6
	")
}

ee = optimize('scf')
oeprop('DIPOLE', 'QUADRUPOLE', 'MULLIKEN_CHARGES')
f=open( 'psi4out.xyz', 'w' )
f.write( "14  " )
f.write( str(ee) + "\n" )
f.write( MOL.save_string_xyz() )
f.close()
--------------------------------------------------------------------------

    Molecular point group: c1
  Charge       = 0
  Multiplicity = 1
  Basis Set: 6-31G*
  Basis Set:
  @DF-RHF Final Energy:  -305.87036687649697
    Total Energy =                       -305.8703668764972008
    Molecular point group: c1
  Basis Set: 6-31G*
  Basis Set:
  Basis Set: 6-31G*
  Basis Set:
  @DF-RHF Final Energy:  -305.87065020080172
    Total Energy =                       -305.8706502008014922
  Basis Set: 6-31G*
  Basis Set:
  Basis Set: 6-31G*
  Basis Set:
  @DF-RHF Final Energy:  -305.87051549408477
    Total Energy =                       -305.8705154940846000
  Basis Set: 6-31G*
  Basis Set:
  Basis Set: 6-31G*
  Basis Set:
  @DF-RHF Final Energy:  -305.87066210585124
    Total Energy =                       -305.8706621058513520
  Basis Set: 6-31G*
  Basis Set:
  Basis Set: 6-31G*
  Basis Set:
  @DF-RHF Final Energy:  -305.87066397725914
    Total Energy =                       -305.8706639772591416
  Basis Set: 6-31G*
  Basis Set:
  Charge       = 0
  Multiplicity = 1
  Basis Set: 6-31G*
  Basis Set:

    Orbital Energies (a.u.)
    -----------------------

    Doubly Occupied:

       1A    -20.605106     2A    -20.544885     3A    -11.371953
       4A    -11.281607     5A    -11.237815     6A    -11.225888
       7A     -1.469802     8A     -1.362473     9A     -1.067573
      10A     -0.975690    11A     -0.885491    12A     -0.774405
      13A     -0.696202    14A     -0.679395    15A     -0.673521
      16A     -0.619212    17A     -0.589382    18A     -0.568977
      19A     -0.544418    20A     -0.518939    21A     -0.513067
      22A     -0.503024    23A     -0.456149    24A     -0.434333

  @DF-RHF Final Energy:  -305.87066410447596

   => Energetics <=

    Nuclear Repulsion Energy =            248.3045126970615684
    One-Electron Energy =                -909.1517454903978432
    Two-Electron Energy =                 354.9765686888603682
    DFT Exchange-Correlation Energy =       0.0000000000000000
    Empirical Dispersion Energy =           0.0000000000000000
    PCM Polarization Energy =               0.0000000000000000
    EFP Energy =                            0.0000000000000000
    Total Energy =                       -305.8706641044759067
    Molecular point group: c1
  Basis Set: 6-31G*
  Basis Set:

  -Total Gradient:
     Atom            X                  Y                   Z
    ------   -----------------  -----------------  -----------------
       1       -0.000003607453     0.000019089173    -0.000023863339
       2        0.000093117532    -0.000169871759    -0.000010764754
       3       -0.000125031237     0.000192038485    -0.000069472832
       4       -0.000057504970     0.000108857265     0.000068218615
       5        0.000002065159    -0.000021671948    -0.000014441413
       6        0.000057040095    -0.000107299862     0.000070809092
       7        0.000011785188    -0.000018168710     0.000010273100
       8       -0.000011363148     0.000011421745    -0.000010851411
       9        0.000006719772     0.000006296120    -0.000000571438
      10        0.000015567342    -0.000010634542    -0.000001524455
      11        0.000018360344    -0.000032392607    -0.000027635126
      12       -0.000009805687     0.000000363611     0.000008473039
      13        0.000000467962     0.000009022644     0.000001899783
      14        0.000002189101     0.000012950386    -0.000000548865

  **** Optimization is complete! (in 6 steps) ****
    Final optimized geometry and variables:
    Molecular point group: c1

    Geometry (in Angstrom), charge = 0, multiplicity = 1:

    O            1.082221653827    -0.277603306445     1.106139624165
    C            0.256781656417    -0.276731429307     0.250595088721
    C           -1.005335182822    -1.103849830973     0.264246789179
    O            0.347507923681     0.468511644800    -0.843890867104
    C           -2.275282201816    -0.246734179403     0.247709083730
    H           -0.988937335488    -1.752112452483    -0.606397909910
    H           -0.968850947731    -1.725089780337     1.148883426423
    H           -2.329479533378     0.354828720788    -0.650909531258
    H           -3.152638047234    -0.882738162700     0.285162164789
    H           -2.308926897862     0.416747238469     1.105755319149
    C            1.490944575725     1.295068284988    -0.965748138815
    H            1.537966858788     2.000696338670    -0.148891238237
    H            1.380372397091     1.815637973068    -1.904201729033
    H            2.391519925101     0.698186207644    -0.972044607949

  Mulliken Charges: (a.u.)
   Center  Symbol    Alpha    Beta     Spin     Total
       1     O     4.28470  4.28470  0.00000 -0.56940
       2     C     2.61504  2.61504  0.00000  0.76992
       3     C     3.19711  3.19711  0.00000 -0.39422
       4     O     4.30245  4.30245  0.00000 -0.60490
       5     C     3.24939  3.24939  0.00000 -0.49878
       6     H     0.40334  0.40334  0.00000  0.19332
       7     H     0.39793  0.39793  0.00000  0.20413
       8     H     0.40631  0.40631  0.00000  0.18739
       9     H     0.41262  0.41262  0.00000  0.17477
      10     H     0.41280  0.41280  0.00000  0.17440
      11     C     3.09219  3.09219  0.00000 -0.18439
      12     H     0.40878  0.40878  0.00000  0.18244
      13     H     0.40875  0.40875  0.00000  0.18250
      14     H     0.40859  0.40859  0.00000  0.18282

   Total alpha = 24.00000, Total beta = 24.00000, Total charge =  0.00000
