                              Psi4 1.0.54 Driver

  ==> Input File <==

--------------------------------------------------------------------------
set {
	reference rhf
	basis cc-pvtz
}

set_num_threads( 4 )
memory 2 gb

molecule MOL {
0 1

H	 2.612799	 0.507749	 0.376498
O	 2.063695	 -0.083403	 -0.105237
C	 0.742924	 0.005675	 0.350750
H	 0.731380	 0.039219	 1.440080
C	 -0.064076	 -1.193495	 -0.124425
C	 -0.047832	 1.190568	 -0.194462
H	 0.194729	 -1.376165	 -1.161308
H	 0.163013	 -2.094508	 0.429933
C	 -1.533112	 -0.752002	 0.006102
H	 0.148003	 1.266545	 -1.259275
H	 0.226235	 2.136493	 0.259722
C	 -1.506634	 0.799189	 0.067162
H	 -2.124360	 -1.110499	 -0.826089
H	 -1.983103	 -1.158030	 0.903403
H	 -2.183808	 1.252169	 -0.644677
H	 -1.813926	 1.138698	 1.049457

	symmetry c1
}
set optking {
	frozen_dihedral = ("
		1 2 3 6
	")
}

ee,wfn = optimize('scf', return_wfn=True)
oeprop( wfn, 'DIPOLE', 'QUADRUPOLE', 'MULLIKEN_CHARGES')
f=open( 'psi4out.xyz', 'w' )
f.write( "16  " )
f.write( str(ee) + "\n" )
f.write( MOL.save_string_xyz() )
f.close()
--------------------------------------------------------------------------

    Molecular point group: c1
  Charge       = 0
  Multiplicity = 1
  Basis Set: CC-PVTZ
  Basis Set:
  @DF-RHF Final Energy:  -270.11672097085182
    Total Energy =                       -270.1167209708520431
    Molecular point group: c1
  Basis Set: CC-PVTZ
  Basis Set:
  Basis Set: CC-PVTZ
  Basis Set:
  @DF-RHF Final Energy:  -270.11672938903212
    Total Energy =                       -270.1167293890321162
  Basis Set: CC-PVTZ
  Basis Set:
  Charge       = 0
  Multiplicity = 1
  Basis Set: CC-PVTZ
  Basis Set:

    Orbital Energies (a.u.)
    -----------------------

    Doubly Occupied:

       1A    -20.545890     2A    -11.267610     3A    -11.214001
       4A    -11.212677     5A    -11.208405     6A    -11.206629
       7A     -1.365764     8A     -1.114289     9A     -0.965621
      10A     -0.949177    11A     -0.787203    12A     -0.776876
      13A     -0.711601    14A     -0.656124    15A     -0.620077
      16A     -0.585580    17A     -0.564178    18A     -0.525930
      19A     -0.512694    20A     -0.480615    21A     -0.470192
      22A     -0.456511    23A     -0.451240    24A     -0.418701

  @DF-RHF Final Energy:  -270.11673033269267

   => Energetics <=

    Nuclear Repulsion Energy =            255.5266436264132892
    One-Electron Energy =                -873.1515734004508431
    Two-Electron Energy =                 347.5081994413449138
    DFT Exchange-Correlation Energy =       0.0000000000000000
    Empirical Dispersion Energy =           0.0000000000000000
    PCM Polarization Energy =               0.0000000000000000
    EFP Energy =                            0.0000000000000000
    Total Energy =                       -270.1167303326926685
    Molecular point group: c1
  Basis Set: CC-PVTZ
  Basis Set:

  -Total Gradient:
     Atom            X                  Y                   Z
    ------   -----------------  -----------------  -----------------
       1        0.000160345931    -0.000728803063     0.000611402694
       2       -0.000371001661     0.000762755262    -0.000965268308
       3        0.000356764709     0.000298047766     0.000827076583
       4       -0.000011179599    -0.000008410858     0.000002170403
       5       -0.000017789978    -0.000026090654     0.000044530457
       6       -0.000133049165    -0.000305872095    -0.000496143035
       7        0.000001489628    -0.000001717447    -0.000019993574
       8        0.000007390403    -0.000014208441    -0.000009695744
       9        0.000029990593     0.000012102607    -0.000043122106
      10       -0.000005479928     0.000013596711     0.000021585345
      11       -0.000006019994    -0.000006040635    -0.000012759431
      12       -0.000039452514    -0.000000780318     0.000024420952
      13        0.000004370231    -0.000008053101     0.000018777677
      14        0.000017031502    -0.000004389547     0.000017613669
      15        0.000014206520     0.000010442638    -0.000010734618
      16       -0.000007616679     0.000007421173    -0.000009860965

  **** Optimization is complete! (in 3 steps) ****
    Final optimized geometry and variables:
    Molecular point group: c1

    Geometry (in Angstrom), charge = 0, multiplicity = 1:

    H            2.614656962593     0.512680951686     0.363147926550
    O            2.062313204020    -0.079371295197    -0.112733852276
    C            0.743622117689     0.006480895127     0.351977947417
    H            0.737009447339     0.038745179866     1.440832146686
    C           -0.065306092987    -1.192797173251    -0.122266344326
    C           -0.047998402316     1.191078747451    -0.193428260772
    H            0.197081676010    -1.377907359558    -1.157898361807
    H            0.160007532850    -2.093017643423     0.434278153247
    C           -1.534348619643    -0.750662773686     0.001912446433
    H            0.150491939671     1.265673995180    -1.257572201629
    H            0.226334243809     2.137278053107     0.259455044288
    C           -1.506910408254     0.800363363419     0.066043293307
    H           -2.121749667518    -1.106885521040    -0.833964075155
    H           -1.989124341702    -1.158346712404     0.896116276715
    H           -2.183534044461     1.255027686399    -0.645287717902
    H           -1.814914598352     1.137949109477     1.048903961343

  Mulliken Charges: (a.u.)
   Center  Symbol    Alpha    Beta     Spin     Total
       1     H     0.39516  0.39516  0.00000  0.20968
       2     O     4.20048  4.20048  0.00000 -0.40097
       3     C     2.92237  2.92237  0.00000  0.15526
       4     H     0.46759  0.46759  0.00000  0.06482
       5     C     3.10220  3.10220  0.00000 -0.20439
       6     C     3.09878  3.09878  0.00000 -0.19755
       7     H     0.45112  0.45112  0.00000  0.09776
       8     H     0.44467  0.44467  0.00000  0.11066
       9     C     3.10941  3.10941  0.00000 -0.21881
      10     H     0.45364  0.45364  0.00000  0.09273
      11     H     0.45096  0.45096  0.00000  0.09808
      12     C     3.11495  3.11495  0.00000 -0.22991
      13     H     0.44557  0.44557  0.00000  0.10887
      14     H     0.44887  0.44887  0.00000  0.10226
      15     H     0.44348  0.44348  0.00000  0.11303
      16     H     0.45076  0.45076  0.00000  0.09848

   Total alpha = 24.00000, Total beta = 24.00000, Total charge = -0.00000

*** Psi4 exiting successfully. Buy a developer a beer!
