                              Psi4 1.0.54 Driver

  ==> Input File <==

--------------------------------------------------------------------------
set {
	reference rhf
	basis cc-pvtz
}

set_num_threads( 4 )
memory 2 gb

molecule MOL {
0 1

O	 -2.374409	 1.338660	 -0.336961
C	 -2.104891	 0.204655	 -0.107126
C	 -0.881910	 -0.448129	 -0.720509
C	 -2.949910	 -0.638219	 0.818225
C	 0.127264	 0.606626	 -1.191574
H	 -1.214060	 -1.036414	 -1.566504
H	 -0.412128	 -1.114385	 -0.004776
C	 1.365769	 -0.019861	 -1.828854
H	 -0.370417	 1.262676	 -1.894524
H	 0.432717	 1.223360	 -0.349768
C	 2.433660	 0.984693	 -2.265187
H	 1.062816	 -0.616263	 -2.685885
H	 1.811374	 -0.711596	 -1.119247
C	 2.012615	 1.907100	 -3.406575
H	 3.316223	 0.431965	 -2.571589
H	 2.734346	 1.583068	 -1.409109
H	 1.701147	 1.334956	 -4.274463
H	 2.836787	 2.542584	 -3.709349
H	 1.190472	 2.553679	 -3.124978
H	 -3.440322	 -1.417144	 0.243099
H	 -3.694377	 -0.025850	 1.303346
H	 -2.331085	 -1.129829	 1.560495

	symmetry c1
}
set optking {
	frozen_dihedral = ("
		6 3 2 1
	")
}

ee,wfn = optimize('scf', return_wfn=True)
oeprop( wfn, 'DIPOLE', 'QUADRUPOLE', 'MULLIKEN_CHARGES')
f=open( 'psi4out.xyz', 'w' )
f.write( "22  " )
f.write( str(ee) + "\n" )
f.write( MOL.save_string_xyz() )
f.close()
--------------------------------------------------------------------------

    Molecular point group: c1
  Charge       = 0
  Multiplicity = 1
  Basis Set: CC-PVTZ
  Basis Set:
  @DF-RHF Final Energy:  -348.22357338872911
    Total Energy =                       -348.2235733887291644
    Molecular point group: c1
  Basis Set: CC-PVTZ
  Basis Set:
  Basis Set: CC-PVTZ
  Basis Set:
  @DF-RHF Final Energy:  -348.19021291011194
    Total Energy =                       -348.1902129101111996
  Basis Set: CC-PVTZ
  Basis Set:
  Basis Set: CC-PVTZ
  Basis Set:
  @DF-RHF Final Energy:  -348.22275018162287
    Total Energy =                       -348.2227501816224162
  Basis Set: CC-PVTZ
  Basis Set:
  Basis Set: CC-PVTZ
  Basis Set:
  @DF-RHF Final Energy:  -348.22408726763922
    Total Energy =                       -348.2240872676393906
  Basis Set: CC-PVTZ
  Basis Set:
  @DF-RHF Final Energy:  -348.22463051837877
    Total Energy =                       -348.2246305183787172
  @DF-RHF Final Energy:  -348.22478924156962
    Total Energy =                       -348.2247892415696811
  @DF-RHF Final Energy:  -348.22479625173298
    Total Energy =                       -348.2247962517321298
  Basis Set: CC-PVTZ
  Basis Set:
  @DF-RHF Final Energy:  -348.22486674925494
    Total Energy =                       -348.2248667492548293
  Basis Set: CC-PVTZ
  Basis Set:
  Basis Set: CC-PVTZ
  Basis Set:
  @DF-RHF Final Energy:  -348.22487595030168
    Total Energy =                       -348.2248759503016799
  Basis Set: CC-PVTZ
  Basis Set:
  Basis Set: CC-PVTZ
  Basis Set:
  @DF-RHF Final Energy:  -348.22489121127319
    Total Energy =                       -348.2248912112730181
  Basis Set: CC-PVTZ
  Basis Set:
  Charge       = 0
  Multiplicity = 1
  Basis Set: CC-PVTZ
  Basis Set:

    Orbital Energies (a.u.)
    -----------------------

    Doubly Occupied:

       1A    -20.538267     2A    -11.320760     3A    -11.230171
       4A    -11.226998     5A    -11.216042     6A    -11.215384
       7A    -11.214649     8A    -11.205618     9A     -1.398666
      10A     -1.092179    11A     -1.044024    12A     -1.001966
      13A     -0.935795    14A     -0.854963    15A     -0.782220
      16A     -0.732072    17A     -0.660175    18A     -0.648586
      19A     -0.631242    20A     -0.616754    21A     -0.600289
      22A     -0.581099    23A     -0.562350    24A     -0.547161
      25A     -0.525989    26A     -0.511470    27A     -0.499795
      28A     -0.486623    29A     -0.466389    30A     -0.462361
      31A     -0.458101    32A     -0.401041

  @DF-RHF Final Energy:  -348.22489134015774

   => Energetics <=

    Nuclear Repulsion Energy =            373.0091651361953495
    One-Electron Energy =               -1211.1297170624814044
    Two-Electron Energy =                 489.8956605861283151
    DFT Exchange-Correlation Energy =       0.0000000000000000
    Empirical Dispersion Energy =           0.0000000000000000
    PCM Polarization Energy =               0.0000000000000000
    EFP Energy =                            0.0000000000000000
    Total Energy =                       -348.2248913401576829
    Molecular point group: c1
  Basis Set: CC-PVTZ
  Basis Set:

  -Total Gradient:
     Atom            X                  Y                   Z
    ------   -----------------  -----------------  -----------------
       1       -0.000686002676    -0.000060156843    -0.000853005925
       2        0.000990174854     0.000265897872     0.001123285932
       3       -0.000410450429    -0.001182510549     0.000165065734
       4       -0.000024170660     0.000035043956    -0.000015884497
       5       -0.000025183607    -0.000015799999    -0.000016619769
       6        0.000125504462     0.000971174036    -0.000413007992
       7       -0.000005177992    -0.000006075443     0.000005343436
       8       -0.000009016690     0.000001714383     0.000001413241
       9       -0.000010140307    -0.000010679873     0.000015270778
      10       -0.000000144192    -0.000007212397    -0.000017909091
      11        0.000004755559     0.000022512598     0.000022821245
      12       -0.000014655554     0.000010866648     0.000002676358
      13       -0.000002080313    -0.000014724872    -0.000011898041
      14        0.000011083444     0.000000207065    -0.000012323303
      15        0.000008264665     0.000004798644     0.000006226228
      16       -0.000000165070     0.000010352964    -0.000001487406
      17       -0.000003713340     0.000001677859    -0.000000359171
      18        0.000002736245     0.000000393298    -0.000006912202
      19        0.000028111368     0.000000437749    -0.000011461622
      20        0.000005104761    -0.000006839549    -0.000000895572
      21        0.000002566810    -0.000010382746     0.000005211597
      22        0.000012598663    -0.000010694803     0.000014450044

  **** Optimization is complete! (in 11 steps) ****
    Final optimized geometry and variables:
    Molecular point group: c1

    Geometry (in Angstrom), charge = 0, multiplicity = 1:

    O           -1.983003638427     0.744605467774     1.229014934421
    C           -1.743280018561    -0.413771555834     1.124694438652
    C           -0.620873136843    -0.929579508719     0.245660185088
    C           -2.566595961452    -1.457840050779     1.842172747510
    C            0.453503345885     0.104825706486    -0.067384388288
    H           -1.091920022717    -1.265695292342    -0.676862899996
    H           -0.190486513350    -1.815991969612     0.701417198366
    C            1.531151130956    -0.442977478194    -1.000816820359
    H           -0.019767885457     0.976173591513    -0.497695892659
    H            0.910651369950     0.435061302733     0.860739748097
    C            2.679159552301     0.527551522222    -1.283821391915
    H            1.075107320937    -0.740089133300    -1.942907307632
    H            1.946424671010    -1.349114368845    -0.567143237068
    C            2.280717729116     1.772474938496    -2.072614022846
    H            3.448205285095    -0.003656231147    -1.836140746324
    H            3.134222425181     0.826869292489    -0.343448324755
    H            1.816383227570     1.503357084079    -3.016039221873
    H            3.150603918859     2.379612438331    -2.295460672147
    H            1.582240803068     2.393376940078    -1.525370986758
    H           -2.866001510363    -2.245456906071     1.159823858633
    H           -3.437531940551    -1.001294467819     2.286734564292
    H           -1.964189294482    -1.916984500897     2.619372247774

  Mulliken Charges: (a.u.)
   Center  Symbol    Alpha    Beta     Spin     Total
       1     O     4.17233  4.17233  0.00000 -0.34466
       2     C     2.86092  2.86092  0.00000  0.27816
       3     C     3.11244  3.11244  0.00000 -0.22487
       4     C     3.15244  3.15244  0.00000 -0.30488
       5     C     3.08861  3.08861  0.00000 -0.17722
       6     H     0.44422  0.44422  0.00000  0.11156
       7     H     0.44447  0.44447  0.00000  0.11107
       8     C     3.09613  3.09613  0.00000 -0.19227
       9     H     0.43899  0.43899  0.00000  0.12202
      10     H     0.45056  0.45056  0.00000  0.09887
      11     C     3.09014  3.09014  0.00000 -0.18029
      12     H     0.45443  0.45443  0.00000  0.09114
      13     H     0.45087  0.45087  0.00000  0.09826
      14     C     3.15256  3.15256  0.00000 -0.30512
      15     H     0.44859  0.44859  0.00000  0.10283
      16     H     0.45418  0.45418  0.00000  0.09163
      17     H     0.45551  0.45551  0.00000  0.08899
      18     H     0.44668  0.44668  0.00000  0.10664
      19     H     0.45065  0.45065  0.00000  0.09869
      20     H     0.45056  0.45056  0.00000  0.09887
      21     H     0.43584  0.43584  0.00000  0.12831
      22     H     0.44886  0.44886  0.00000  0.10228

   Total alpha = 32.00000, Total beta = 32.00000, Total charge = -0.00000

*** Psi4 exiting successfully. Buy a developer a beer!
