                              Psi4 1.0.54 Driver

  ==> Input File <==

--------------------------------------------------------------------------
set {
	reference rhf
	basis cc-pvtz
}

set_num_threads( 4 )
memory 2 gb

molecule MOL {
0 1

H	 2.369962	 -0.617617	 -0.611458
C	 1.948180	 -0.217873	 0.320185
C	 0.692262	 0.592428	 0.156232
O	 2.483184	 -0.433991	 1.352027
C	 -0.554654	 -0.292621	 0.086567
H	 0.791858	 1.203694	 -0.731051
H	 0.617379	 1.254358	 1.016534
C	 -1.846385	 0.513195	 -0.016346
H	 -0.473986	 -0.956115	 -0.769708
H	 -0.597929	 -0.929215	 0.966651
C	 -3.089953	 -0.365049	 -0.098564
H	 -1.798267	 1.154820	 -0.891143
H	 -1.925398	 1.173265	 0.842889
H	 -3.055079	 -1.012299	 -0.968245
H	 -3.988403	 0.236438	 -0.170014
H	 -3.183055	 -0.995885	 0.779079

	symmetry c1
}
set optking {
	frozen_dihedral = ("
		4 2 3 6
	")
}

ee,wfn = optimize('scf', return_wfn=True)
oeprop( wfn, 'DIPOLE', 'QUADRUPOLE', 'MULLIKEN_CHARGES')
f=open( 'psi4out.xyz', 'w' )
f.write( "16  " )
f.write( str(ee) + "\n" )
f.write( MOL.save_string_xyz() )
f.close()
--------------------------------------------------------------------------

    Molecular point group: c1
  Charge       = 0
  Multiplicity = 1
  Basis Set: CC-PVTZ
  Basis Set:
  @DF-RHF Final Energy:  -270.11829909195831
    Total Energy =                       -270.1182990919584768
    Molecular point group: c1
  Basis Set: CC-PVTZ
  Basis Set:
  Basis Set: CC-PVTZ
  Basis Set:
  @DF-RHF Final Energy:  -270.11776682154164
    Total Energy =                       -270.1177668215416361
  Basis Set: CC-PVTZ
  Basis Set:
  Basis Set: CC-PVTZ
  Basis Set:
  @DF-RHF Final Energy:  -270.11850656857308
    Total Energy =                       -270.1185065685731956
  Basis Set: CC-PVTZ
  Basis Set:
  Basis Set: CC-PVTZ
  Basis Set:
  @DF-RHF Final Energy:  -270.11878291456622
    Total Energy =                       -270.1187829145661112
  Basis Set: CC-PVTZ
  Basis Set:
  Basis Set: CC-PVTZ
  Basis Set:
  @DF-RHF Final Energy:  -270.11876919923509
    Total Energy =                       -270.1187691992349755
  Basis Set: CC-PVTZ
  Basis Set:
  Basis Set: CC-PVTZ
  Basis Set:
  @DF-RHF Final Energy:  -270.11879110327033
    Total Energy =                       -270.1187911032703823
  Basis Set: CC-PVTZ
  Basis Set:
  Charge       = 0
  Multiplicity = 1
  Basis Set: CC-PVTZ
  Basis Set:

    Orbital Energies (a.u.)
    -----------------------

    Doubly Occupied:

       1A    -20.551986     2A    -11.321238     3A    -11.234370
       4A    -11.233600     5A    -11.226805     6A    -11.215983
       7A     -1.406842     8A     -1.096891     9A     -1.019307
      10A     -0.906556    11A     -0.812703    12A     -0.791260
      13A     -0.684070    14A     -0.647790    15A     -0.632964
      16A     -0.604129    17A     -0.579543    18A     -0.553940
      19A     -0.528433    20A     -0.513322    21A     -0.487580
      22A     -0.480560    23A     -0.479420    24A     -0.411070

  @DF-RHF Final Energy:  -270.11879149828741

   => Energetics <=

    Nuclear Repulsion Energy =            230.2015398282175056
    One-Electron Energy =                -821.7999353760128542
    Two-Electron Energy =                 321.4796040495081684
    DFT Exchange-Correlation Energy =       0.0000000000000000
    Empirical Dispersion Energy =           0.0000000000000000
    PCM Polarization Energy =               0.0000000000000000
    EFP Energy =                            0.0000000000000000
    Total Energy =                       -270.1187914982871803
    Molecular point group: c1
  Basis Set: CC-PVTZ
  Basis Set:

  -Total Gradient:
     Atom            X                  Y                   Z
    ------   -----------------  -----------------  -----------------
       1       -0.000011621544     0.000011718310     0.000035579286
       2        0.000905701824     0.001246311771    -0.000419380345
       3        0.000288411790     0.000570858348     0.000901637913
       4       -0.000708691600    -0.000992132787     0.000157736010
       5        0.000034519043     0.000020609814    -0.000016603346
       6       -0.000521165442    -0.000846130020    -0.000623200556
       7        0.000017935679    -0.000003331299    -0.000016437822
       8       -0.000007968665     0.000003103681    -0.000021005542
       9       -0.000013034258     0.000000619879    -0.000001715764
      10       -0.000001605586     0.000002956148    -0.000012846122
      11        0.000001004790    -0.000004632202     0.000019033239
      12        0.000006943103    -0.000006195573     0.000001463279
      13        0.000010013570    -0.000005029244    -0.000008277829
      14       -0.000000864832     0.000008830471     0.000003646084
      15        0.000004926660    -0.000004205885     0.000006301790
      16       -0.000004504534    -0.000003351412    -0.000005930273

  **** Optimization is complete! (in 7 steps) ****
    Final optimized geometry and variables:
    Molecular point group: c1

    Geometry (in Angstrom), charge = 0, multiplicity = 1:

    H            2.339583892319    -0.649522290543    -0.935621487915
    C            1.997032154988    -0.202997566323     0.006724587725
    C            0.760101996345     0.646882455889    -0.092436389829
    O            2.570053930972    -0.436331974251     1.014372306264
    C           -0.491776040449    -0.234316550413    -0.188495894453
    H            0.830892153229     1.263428553784    -0.983982384767
    H            0.709054303081     1.288917479494     0.777049499450
    C           -1.773329972482     0.577986164347    -0.349851934788
    H           -0.391909269235    -0.918121407461    -1.027933738251
    H           -0.558938627503    -0.848134222928     0.704063876468
    C           -3.022052454051    -0.293415385838    -0.427977342911
    H           -1.700903051416     1.188075521756    -1.245776769366
    H           -1.865255044555     1.268006486940     0.483667209002
    H           -2.974224805340    -0.971994666827    -1.273017787168
    H           -3.913747727246     0.311916130601    -0.540263198963
    H           -3.138606658024    -0.891296335056     0.469414190625

  Mulliken Charges: (a.u.)
   Center  Symbol    Alpha    Beta     Spin     Total
       1     H     0.46239  0.46239  0.00000  0.07521
       2     C     2.91172  2.91172  0.00000  0.17656
       3     C     3.07672  3.07672  0.00000 -0.15344
       4     O     4.16649  4.16649  0.00000 -0.33298
       5     C     3.09994  3.09994  0.00000 -0.19989
       6     H     0.45142  0.45142  0.00000  0.09715
       7     H     0.44280  0.44280  0.00000  0.11439
       8     C     3.08496  3.08496  0.00000 -0.16993
       9     H     0.45215  0.45215  0.00000  0.09569
      10     H     0.44341  0.44341  0.00000  0.11319
      11     C     3.14916  3.14916  0.00000 -0.29832
      12     H     0.45351  0.45351  0.00000  0.09297
      13     H     0.45097  0.45097  0.00000  0.09806
      14     H     0.45460  0.45460  0.00000  0.09081
      15     H     0.44688  0.44688  0.00000  0.10624
      16     H     0.45286  0.45286  0.00000  0.09428

   Total alpha = 24.00000, Total beta = 24.00000, Total charge = -0.00000

*** Psi4 exiting successfully. Buy a developer a beer!
