  ==> Input File <==

--------------------------------------------------------------------------
set {
	reference rhf
	basis 6-31G*
}

set_num_threads( 4 )
memory 2 gb

molecule MOL {
0 1

O	 3.225979	 0.970355	 -0.599647
C	 2.701189	 0.057885	 -0.047330
C	 1.245376	 -0.013843	 0.345420
O	 3.347903	 -1.046386	 0.304773
C	 0.455112	 1.231400	 -0.050772
H	 0.838542	 -0.913825	 -0.103701
H	 1.208210	 -0.175333	 1.419774
C	 -0.998893	 1.219485	 0.433193
H	 0.482531	 1.345121	 -1.130325
H	 0.957290	 2.103070	 0.354729
C	 -1.883438	 0.145884	 -0.207175
H	 -1.431207	 2.195402	 0.224832
H	 -1.019646	 1.105716	 1.516076
C	 -1.822435	 0.158846	 -1.735936
H	 -1.576992	 -0.833725	 0.156524
H	 -2.917258	 0.277600	 0.104014
C	 -2.706522	 -0.906425	 -2.386873
H	 -0.792004	 0.014119	 -2.056095
H	 -2.118461	 1.141527	 -2.099813
C	 -2.636938	 -0.889263	 -3.913492
H	 -2.412718	 -1.888945	 -2.023589
H	 -3.737587	 -0.760755	 -2.071491
H	 -3.273860	 -1.655063	 -4.345335
H	 -1.623388	 -1.067133	 -4.261735
H	 -2.957891	 0.069981	 -4.309867
C	 4.728119	 -1.109107	 -0.004993
H	 4.882018	 -1.033965	 -1.071845
H	 5.068212	 -2.067527	 0.355250
H	 5.265056	 -0.311663	 0.488280

	symmetry c1
}
set optking {
	frozen_dihedral = ("
		15 11 8 5
	")
}

ee = optimize('scf')
oeprop('DIPOLE', 'QUADRUPOLE', 'MULLIKEN_CHARGES')
f=open( 'psi4out.xyz', 'w' )
f.write( "29  " )
f.write( str(ee) + "\n" )
f.write( MOL.save_string_xyz() )
f.close()
--------------------------------------------------------------------------

    Molecular point group: c1
  Charge       = 0
  Multiplicity = 1
  Basis Set: 6-31G*
  Basis Set:
  @DF-RHF Final Energy:  -501.04088990945365
    Total Energy =                       -501.0408899094536537
    Molecular point group: c1
  Basis Set: 6-31G*
  Basis Set:
  Basis Set: 6-31G*
  Basis Set:
  @DF-RHF Final Energy:  -501.04188817561123
    Total Energy =                       -501.0418881756108931
  Basis Set: 6-31G*
  Basis Set:
  Basis Set: 6-31G*
  Basis Set:
  @DF-RHF Final Energy:  -501.04228849082290
    Total Energy =                       -501.0422884908228980
  Basis Set: 6-31G*
  Basis Set:
  Basis Set: 6-31G*
  Basis Set:
  @DF-RHF Final Energy:  -501.04232376892139
    Total Energy =                       -501.0423237689221878
  Basis Set: 6-31G*
  Basis Set:
  Basis Set: 6-31G*
  Basis Set:
  @DF-RHF Final Energy:  -501.04217506983184
    Total Energy =                       -501.0421750698321830
  Basis Set: 6-31G*
  Basis Set:
  Basis Set: 6-31G*
  Basis Set:
  @DF-RHF Final Energy:  -501.04232837747304
    Total Energy =                       -501.0423283774725860
  Basis Set: 6-31G*
  Basis Set:
  Basis Set: 6-31G*
  Basis Set:
  @DF-RHF Final Energy:  -501.04233077548452
    Total Energy =                       -501.0423307754839470
  Basis Set: 6-31G*
  Basis Set:
  Charge       = 0
  Multiplicity = 1
  Basis Set: 6-31G*
  Basis Set:

    Orbital Energies (a.u.)
    -----------------------

    Doubly Occupied:

       1A    -20.603433     2A    -20.545251     3A    -11.372042
       4A    -11.280723     5A    -11.234770     6A    -11.218398
       7A    -11.217801     8A    -11.216261     9A    -11.216149
      10A    -11.214735    11A    -11.208979    12A     -1.469115
      13A     -1.362557    14A     -1.098548    15A     -1.065193
      16A     -1.018916    17A     -0.975984    18A     -0.929453
      19A     -0.867484    20A     -0.807227    21A     -0.780896
      22A     -0.758297    23A     -0.701731    24A     -0.682739
      25A     -0.671481    26A     -0.647044    27A     -0.634425
      28A     -0.603533    29A     -0.594702    30A     -0.578156
      31A     -0.564060    32A     -0.557881    33A     -0.535843
      34A     -0.527402    35A     -0.523208    36A     -0.508894
      37A     -0.490027    38A     -0.481894    39A     -0.471769
      40A     -0.457597    41A     -0.456617    42A     -0.454087
      43A     -0.441282    44A     -0.436994

  @DF-RHF Final Energy:  -501.04233165922972

   => Energetics <=

    Nuclear Repulsion Energy =            625.7612590377965489
    One-Electron Energy =               -1922.6400249077951230
    Two-Electron Energy =                 795.8364342107681750
    DFT Exchange-Correlation Energy =       0.0000000000000000
    Empirical Dispersion Energy =           0.0000000000000000
    PCM Polarization Energy =               0.0000000000000000
    EFP Energy =                            0.0000000000000000
    Total Energy =                       -501.0423316592302854
    Molecular point group: c1
  Basis Set: 6-31G*
  Basis Set:

  -Total Gradient:
     Atom            X                  Y                   Z
    ------   -----------------  -----------------  -----------------
       1       -0.000006539410     0.000009111953     0.000002826713
       2        0.000011608317     0.000007723420     0.000000917627
       3       -0.000020329007    -0.000020393964    -0.000030772488
       4       -0.000015024855    -0.000010914895    -0.000004259320
       5       -0.000324116778     0.000902120966    -0.001042163009
       6        0.000001634584    -0.000009376605     0.000011939067
       7        0.000003711793     0.000008625400     0.000004617623
       8        0.000130180523    -0.001246948506     0.001879061036
       9        0.000013373082     0.000003904472     0.000014320797
      10       -0.000023700396     0.000006470900     0.000004614208
      11        0.001464544064     0.000186002143    -0.002232493592
      12        0.000017104867     0.000010242761    -0.000003065893
      13        0.000002463763    -0.000007261746    -0.000002462134
      14        0.000006975174     0.000003085223    -0.000040895183
      15       -0.001295957654     0.000148779554     0.001405868896
      16        0.000036358832     0.000032241264     0.000052223190
      17        0.000045469724    -0.000034779393     0.000011259357
      18       -0.000040044633    -0.000013683521    -0.000036584882
      19        0.000005656691     0.000013567932     0.000005456741
      20       -0.000011335913     0.000017740764    -0.000003123147
      21       -0.000002984353    -0.000011977102     0.000007666515
      22        0.000008104242    -0.000000712535    -0.000004341522
      23       -0.000007927058     0.000007567838    -0.000000324852
      24       -0.000004611449    -0.000009969317     0.000002193392
      25        0.000011727890     0.000001646461    -0.000004672700
      26       -0.000002071437     0.000007510795     0.000002655957
      27       -0.000001143888     0.000000016531    -0.000000589774
      28       -0.000003636229    -0.000000100597     0.000000345839
      29        0.000000509502    -0.000000240194    -0.000000218459

  **** Optimization is complete! (in 8 steps) ****
    Final optimized geometry and variables:
    Molecular point group: c1

    Geometry (in Angstrom), charge = 0, multiplicity = 1:

    O            2.722083361001     1.054188732762     0.237404047690
    C            2.180428937962     0.111632079160     0.718320950342
    C            0.709821515546     0.013554560233     1.044257013180
    O            2.818727147933    -1.007178198763     1.038454374148
    C           -0.069503221126     1.278634015594     0.692633916112
    H            0.325056567235    -0.857737495253     0.523616925794
    H            0.627478727164    -0.215482090175     2.103629839853
    C           -1.544748583908     1.222135706000     1.106546699037
    H            0.020290669969     1.473149707706    -0.369972238549
    H            0.397968945725     2.123185468346     1.187541321025
    C           -2.401965485495     0.132433521579     0.446579551806
    H           -1.988471435398     2.190062354692     0.883927820858
    H           -1.607289885780     1.104645165276     2.186621834736
    C           -2.394429397082     0.136128906861    -1.083750766681
    H           -2.110515234367    -0.849028106307     0.815511316984
    H           -3.425840351522     0.272016735877     0.787957175752
    C           -3.382593593572    -0.865343594949    -1.685598155139
    H           -1.397487254176    -0.087974311243    -1.455711121180
    H           -2.634009689718     1.136253291387    -1.442132390524
    C           -3.370073402411    -0.872334132658    -3.213799086804
    H           -3.152266002829    -1.863445589311    -1.318440647111
    H           -4.386221163661    -0.636004118196    -1.334223113339
    H           -4.083809828959    -1.588096941575    -3.609883813597
    H           -2.388724510073    -1.137338606691    -3.597135091594
    H           -3.626232854768     0.105274543168    -3.612315565903
    C            4.211058785057    -1.047817969531     0.784196571553
    H            4.409017223143    -0.915650433653    -0.269783981145
    H            4.541754748102    -2.022586814271     1.107397043773
    H            4.721866092793    -0.275453331475     1.341024332125

  Mulliken Charges: (a.u.)
   Center  Symbol    Alpha    Beta     Spin     Total
       1     O     4.28586  4.28586  0.00000 -0.57173
       2     C     2.60523  2.60523  0.00000  0.78953
       3     C     3.20935  3.20935  0.00000 -0.41869
       4     O     4.30737  4.30737  0.00000 -0.61475
       5     C     3.15662  3.15662  0.00000 -0.31324
       6     H     0.39936  0.39936  0.00000  0.20128
       7     H     0.40109  0.40109  0.00000  0.19782
       8     C     3.15687  3.15687  0.00000 -0.31374
       9     H     0.41007  0.41007  0.00000  0.17985
      10     H     0.40921  0.40921  0.00000  0.18158
      11     C     3.15700  3.15700  0.00000 -0.31399
      12     H     0.41880  0.41880  0.00000  0.16239
      13     H     0.42204  0.42204  0.00000  0.15592
      14     C     3.15302  3.15302  0.00000 -0.30603
      15     H     0.42380  0.42380  0.00000  0.15239
      16     H     0.42046  0.42046  0.00000  0.15907
      17     C     3.15121  3.15121  0.00000 -0.30241
      18     H     0.42300  0.42300  0.00000  0.15400
      19     H     0.42275  0.42275  0.00000  0.15449
      20     C     3.23930  3.23930  0.00000 -0.47859
      21     H     0.42352  0.42352  0.00000  0.15296
      22     H     0.42269  0.42269  0.00000  0.15461
      23     H     0.41926  0.41926  0.00000  0.16149
      24     H     0.42169  0.42169  0.00000  0.15662
      25     H     0.42129  0.42129  0.00000  0.15742
      26     C     3.09238  3.09238  0.00000 -0.18477
      27     H     0.40914  0.40914  0.00000  0.18173
      28     H     0.40851  0.40851  0.00000  0.18298
      29     H     0.40909  0.40909  0.00000  0.18182

   Total alpha = 44.00000, Total beta = 44.00000, Total charge =  0.00000
