                              Psi4 1.0.54 Driver

  ==> Input File <==

--------------------------------------------------------------------------
set {
	reference rhf
	basis cc-pvtz
}

set_num_threads( 4 )
memory 2 gb

molecule MOL {
0 1

O	 -1.562591	 -0.600655	 -0.664617
C	 -1.081510	 0.147522	 0.122720
C	 0.327029	 -0.064006	 0.641890
C	 -1.848060	 1.332121	 0.660674
C	 1.349460	 -0.017068	 -0.500215
H	 0.399029	 -1.014606	 1.159950
H	 0.538021	 0.726928	 1.350471
C	 2.779782	 -0.209014	 -0.009215
H	 1.115007	 -0.782959	 -1.233891
H	 1.259071	 0.936707	 -1.006644
H	 3.481860	 -0.160270	 -0.833072
H	 2.903471	 -1.171535	 0.475559
H	 3.052569	 0.559584	 0.705428
H	 -1.804725	 1.356090	 1.743865
H	 -2.875120	 1.290701	 0.332148
H	 -1.389040	 2.247578	 0.301381

	symmetry c1
}
set optking {
	frozen_dihedral = ("
		4 2 3 5
	")
}

ee,wfn = optimize('scf', return_wfn=True)
oeprop( wfn, 'DIPOLE', 'QUADRUPOLE', 'MULLIKEN_CHARGES')
f=open( 'psi4out.xyz', 'w' )
f.write( "16  " )
f.write( str(ee) + "\n" )
f.write( MOL.save_string_xyz() )
f.close()
--------------------------------------------------------------------------

    Molecular point group: c1
  Charge       = 0
  Multiplicity = 1
  Basis Set: CC-PVTZ
  Basis Set:
  @DF-RHF Final Energy:  -270.12843067548340
    Total Energy =                       -270.1284306754832869
    Molecular point group: c1
  Basis Set: CC-PVTZ
  Basis Set:
  Basis Set: CC-PVTZ
  Basis Set:
  @DF-RHF Final Energy:  -270.12746873239132
    Total Energy =                       -270.1274687323913213
  Basis Set: CC-PVTZ
  Basis Set:
  Basis Set: CC-PVTZ
  Basis Set:
  @DF-RHF Final Energy:  -270.12854762649619
    Total Energy =                       -270.1285476264961858
  Basis Set: CC-PVTZ
  Basis Set:
  Basis Set: CC-PVTZ
  Basis Set:
  @DF-RHF Final Energy:  -270.12932100511756
    Total Energy =                       -270.1293210051177311
  Basis Set: CC-PVTZ
  Basis Set:
  Basis Set: CC-PVTZ
  Basis Set:
  @DF-RHF Final Energy:  -270.12934559316000
    Total Energy =                       -270.1293455931597691
  Basis Set: CC-PVTZ
  Basis Set:
  Basis Set: CC-PVTZ
  Basis Set:
  @DF-RHF Final Energy:  -270.12930860745928
    Total Energy =                       -270.1293086074590519
  Basis Set: CC-PVTZ
  Basis Set:
  Basis Set: CC-PVTZ
  Basis Set:
  @DF-RHF Final Energy:  -270.12935354484790
    Total Energy =                       -270.1293535448479020
  Basis Set: CC-PVTZ
  Basis Set:
  Charge       = 0
  Multiplicity = 1
  Basis Set: CC-PVTZ
  Basis Set:

    Orbital Energies (a.u.)
    -----------------------

    Doubly Occupied:

       1A    -20.537448     2A    -11.320596     3A    -11.228930
       4A    -11.227837     5A    -11.226179     6A    -11.214954
       7A     -1.398137     8A     -1.080565     9A     -1.015695
      10A     -0.949267    11A     -0.826902    12A     -0.735477
      13A     -0.660187    14A     -0.650659    15A     -0.617138
      16A     -0.605616    17A     -0.573856    18A     -0.561322
      19A     -0.543394    20A     -0.513486    21A     -0.500126
      22A     -0.482847    23A     -0.473796    24A     -0.400887

  @DF-RHF Final Energy:  -270.12935648020959

   => Energetics <=

    Nuclear Repulsion Energy =            237.3392473342807136
    One-Electron Energy =                -836.2466058883417190
    Two-Electron Energy =                 328.7780020738514395
    DFT Exchange-Correlation Energy =       0.0000000000000000
    Empirical Dispersion Energy =           0.0000000000000000
    PCM Polarization Energy =               0.0000000000000000
    EFP Energy =                            0.0000000000000000
    Total Energy =                       -270.1293564802095943
    Molecular point group: c1
  Basis Set: CC-PVTZ
  Basis Set:

  -Total Gradient:
     Atom            X                  Y                   Z
    ------   -----------------  -----------------  -----------------
       1        0.000026075524     0.000053624888     0.000048182311
       2       -0.000150045152    -0.000136188759     0.000145515134
       3        0.000094456391    -0.000169260513    -0.000101685074
       4        0.000044367738     0.000086747384    -0.000110513350
       5       -0.000048883222     0.000170568419     0.000072451703
       6       -0.000025591118     0.000001383410     0.000021131736
       7       -0.000005223157    -0.000010723835    -0.000002729581
       8        0.000015210507    -0.000004354078    -0.000032303513
       9        0.000033829594     0.000017448736     0.000006949517
      10        0.000038539749    -0.000003479316    -0.000012568886
      11       -0.000008158847    -0.000000985938    -0.000000299203
      12       -0.000024302344     0.000011772152    -0.000003165984
      13       -0.000024802064    -0.000001595127    -0.000005834133
      14        0.000010551448    -0.000002018960    -0.000038790132
      15        0.000020820541     0.000004856723     0.000010682807
      16        0.000003154414    -0.000017795185     0.000002976648

  **** Optimization is complete! (in 8 steps) ****
    Final optimized geometry and variables:
    Molecular point group: c1

    Geometry (in Angstrom), charge = 0, multiplicity = 1:

    O           -1.558758834093    -0.773283923940    -0.618838625221
    C           -1.085611291289     0.043092468110     0.102568524189
    C            0.343211595511    -0.091426400971     0.600218385836
    C           -1.869073677882     1.249745040952     0.556591940025
    C            1.348955697253    -0.121191524358    -0.553067865649
    H            0.399235684387    -1.022318188633     1.155424954100
    H            0.583228447973     0.712281383484     1.287232113293
    C            2.782618926801    -0.312976609726    -0.072441800024
    H            1.074043251015    -0.918463688563    -1.231293778956
    H            1.277850888535     0.804692403924    -1.117041812192
    H            3.472264337884    -0.327686080554    -0.908018940522
    H            2.891949910201    -1.249268183519     0.464118604649
    H            3.086787947372     0.487645724505     0.593595653459
    H           -1.939757820021     1.255381948221     1.639321435217
    H           -2.857726015653     1.238108880961     0.124355922539
    H           -1.348827941534     2.156772181150     0.266352124545

  Mulliken Charges: (a.u.)
   Center  Symbol    Alpha    Beta     Spin     Total
       1     O     4.17628  4.17628  0.00000 -0.35256
       2     C     2.85788  2.85788  0.00000  0.28423
       3     C     3.10087  3.10087  0.00000 -0.20174
       4     C     3.15339  3.15339  0.00000 -0.30677
       5     C     3.08645  3.08645  0.00000 -0.17290
       6     H     0.44255  0.44255  0.00000  0.11490
       7     H     0.44876  0.44876  0.00000  0.10249
       8     C     3.14930  3.14930  0.00000 -0.29860
       9     H     0.43909  0.43909  0.00000  0.12183
      10     H     0.45403  0.45403  0.00000  0.09195
      11     H     0.44623  0.44623  0.00000  0.10754
      12     H     0.45319  0.45319  0.00000  0.09361
      13     H     0.45589  0.45589  0.00000  0.08822
      14     H     0.44913  0.44913  0.00000  0.10173
      15     H     0.43641  0.43641  0.00000  0.12718
      16     H     0.45055  0.45055  0.00000  0.09890

   Total alpha = 24.00000, Total beta = 24.00000, Total charge = -0.00000

*** Psi4 exiting successfully. Buy a developer a beer!
