  ==> Input File <==

--------------------------------------------------------------------------
set {
	reference rhf
	basis 6-31G*
}

set_num_threads( 4 )
memory 2 gb

molecule MOL {
0 1

H	 1.535431	 -1.882367	 2.224774
O	 1.225164	 -1.746153	 1.334849
C	 0.236083	 -0.854046	 1.373516
C	 -0.318135	 -0.576402	 0.000164
O	 -0.132386	 -0.362123	 2.389999
C	 -1.454360	 0.441875	 -0.000474
H	 0.508784	 -0.244926	 -0.622196
H	 -0.640040	 -1.526582	 -0.417615
C	 -2.826123	 -0.230780	 0.000056
H	 -1.357605	 1.085198	 -0.868380
H	 -1.357504	 1.086451	 0.866496
H	 -2.959731	 -0.858053	 -0.876869
H	 -3.619374	 0.509403	 -0.000080
H	 -2.959371	 -0.857318	 0.877556

	symmetry c1
}
set optking {
	frozen_dihedral = ("
		7 4 6 10
	")
}

ee = optimize('scf')
oeprop('DIPOLE', 'QUADRUPOLE', 'MULLIKEN_CHARGES')
f=open( 'psi4out.xyz', 'w' )
f.write( "14  " )
f.write( str(ee) + "\n" )
f.write( MOL.save_string_xyz() )
f.close()
--------------------------------------------------------------------------

    Molecular point group: c1
  Charge       = 0
  Multiplicity = 1
  Basis Set: 6-31G*
  Basis Set:
  @DF-RHF Final Energy:  -305.87769600408973
    Total Energy =                       -305.8776960040894437
    Molecular point group: c1
  Basis Set: 6-31G*
  Basis Set:
  Basis Set: 6-31G*
  Basis Set:
  @DF-RHF Final Energy:  -305.87799707603421
    Total Energy =                       -305.8779970760340348
  Basis Set: 6-31G*
  Basis Set:
  Basis Set: 6-31G*
  Basis Set:
  @DF-RHF Final Energy:  -305.87786920086978
    Total Energy =                       -305.8778692008696112
  Basis Set: 6-31G*
  Basis Set:
  Basis Set: 6-31G*
  Basis Set:
  @DF-RHF Final Energy:  -305.87806563015459
    Total Energy =                       -305.8780656301546514
  Basis Set: 6-31G*
  Basis Set:
  Basis Set: 6-31G*
  Basis Set:
  @DF-RHF Final Energy:  -305.87806903059845
    Total Energy =                       -305.8780690305984535
  Basis Set: 6-31G*
  Basis Set:
  Basis Set: 6-31G*
  Basis Set:
  @DF-RHF Final Energy:  -305.87807137810785
    Total Energy =                       -305.8780713781077907
  Basis Set: 6-31G*
  Basis Set:
  Charge       = 0
  Multiplicity = 1
  Basis Set: 6-31G*
  Basis Set:

    Orbital Energies (a.u.)
    -----------------------

    Doubly Occupied:

       1A    -20.613788     2A    -20.553065     3A    -11.382767
       4A    -11.241010     5A    -11.224475     6A    -11.213166
       7A     -1.476053     8A     -1.366987     9A     -1.080429
      10A     -0.977535    11A     -0.859557    12A     -0.789260
      13A     -0.702289    14A     -0.694112    15A     -0.656859
      16A     -0.610146    17A     -0.597810    18A     -0.564882
      19A     -0.558250    20A     -0.492434    21A     -0.490225
      22A     -0.485752    23A     -0.476178    24A     -0.446343

  @DF-RHF Final Energy:  -305.87807246424023

   => Energetics <=

    Nuclear Repulsion Energy =            242.7298005102692855
    One-Electron Energy =                -898.1090015453785327
    Two-Electron Energy =                 349.5011285708688433
    DFT Exchange-Correlation Energy =       0.0000000000000000
    Empirical Dispersion Energy =           0.0000000000000000
    PCM Polarization Energy =               0.0000000000000000
    EFP Energy =                            0.0000000000000000
    Total Energy =                       -305.8780724642403470
    Molecular point group: c1
  Basis Set: 6-31G*
  Basis Set:

  -Total Gradient:
     Atom            X                  Y                   Z
    ------   -----------------  -----------------  -----------------
       1       -0.000002342323    -0.000000102947    -0.000002385956
       2        0.000006572503    -0.000009458628     0.000030114837
       3        0.000015898616     0.000029306696    -0.000053730792
       4        0.002368449810     0.002948179786     0.004378484545
       5        0.000009359199    -0.000014790879     0.000010490971
       6       -0.002960708373    -0.003596066518    -0.003292555472
       7       -0.001524386179    -0.001857635323    -0.003083106010
       8       -0.000006786689    -0.000010595456     0.000004457135
       9        0.000021318260     0.000023363046    -0.000018594733
      10        0.002104242019     0.002499651596     0.002014457019
      11       -0.000010623858     0.000004175350     0.000010128985
      12       -0.000008076929    -0.000003602964     0.000002874873
      13       -0.000008638615    -0.000008342699    -0.000001976299
      14       -0.000004277444    -0.000004081062     0.000001340895

  **** Optimization is complete! (in 7 steps) ****
    Final optimized geometry and variables:
    Molecular point group: c1

    Geometry (in Angstrom), charge = 0, multiplicity = 1:

    H            2.063196947922    -1.297070921121     1.348074789291
    O            1.776596074455    -1.131892687801     0.455149768924
    C            0.752432120793    -0.281099156200     0.499958086730
    C            0.227793340803     0.025427405885    -0.879144553144
    O            0.333194566401     0.148482072812     1.525219962851
    C           -0.932044242729     1.028189131489    -0.903753021297
    H            1.060089740486     0.350572999742    -1.495066101129
    H           -0.072396906083    -0.926546089610    -1.311109218127
    C           -2.306638090564     0.364643475788    -0.865236574475
    H           -0.835088391362     1.658843691576    -1.781969536147
    H           -0.834540473312     1.691760297469    -0.052575659806
    H           -2.459823766714    -0.278727522017    -1.727344551534
    H           -3.096771416695     1.108358373879    -0.861626557677
    H           -2.417515181156    -0.239730236183     0.029676427818

  Mulliken Charges: (a.u.)
   Center  Symbol    Alpha    Beta     Spin     Total
       1     H     0.26756  0.26756  0.00000  0.46489
       2     O     4.34994  4.34994  0.00000 -0.69988
       3     C     2.62595  2.62595  0.00000  0.74810
       4     C     3.21323  3.21323  0.00000 -0.42645
       5     O     4.27930  4.27930  0.00000 -0.55860
       6     C     3.15859  3.15859  0.00000 -0.31718
       7     H     0.39506  0.39506  0.00000  0.20987
       8     H     0.39749  0.39749  0.00000  0.20502
       9     C     3.24274  3.24274  0.00000 -0.48547
      10     H     0.41739  0.41739  0.00000  0.16522
      11     H     0.40018  0.40018  0.00000  0.19964
      12     H     0.42285  0.42285  0.00000  0.15431
      13     H     0.41642  0.41642  0.00000  0.16716
      14     H     0.41332  0.41332  0.00000  0.17336

   Total alpha = 24.00000, Total beta = 24.00000, Total charge =  0.00000
