                              Psi4 1.0.54 Driver

  ==> Input File <==

--------------------------------------------------------------------------
set {
	reference rhf
	basis cc-pvtz
}

set_num_threads( 4 )
memory 2 gb

molecule MOL {
0 1

O	 -1.278239	 1.034789	 -0.784693
C	 -1.204115	 0.062668	 -0.112312
C	 -2.386398	 -0.667698	 0.460323
O	 -0.068058	 -0.518372	 0.226882
H	 -2.382952	 -1.693172	 0.114333
H	 -3.296656	 -0.175702	 0.158400
H	 -2.312537	 -0.685191	 1.540100
C	 1.169086	 0.037484	 -0.230612
C	 1.628887	 0.995568	 0.850023
C	 0.965203	 0.712423	 -1.575043
H	 1.876935	 -0.770648	 -0.335306
H	 1.756808	 0.477275	 1.791702
H	 2.576854	 1.440581	 0.572473
H	 0.905806	 1.789843	 0.992204
H	 1.898332	 1.144491	 -1.917225
H	 0.631463	 -0.000530	 -2.315964
H	 0.230808	 1.505791	 -1.494332

	symmetry c1
}
set optking {
	frozen_dihedral = ("
		11 8 4 2
	")
}

ee,wfn = optimize('scf', return_wfn=True)
oeprop( wfn, 'DIPOLE', 'QUADRUPOLE', 'MULLIKEN_CHARGES')
f=open( 'psi4out.xyz', 'w' )
f.write( "17  " )
f.write( str(ee) + "\n" )
f.write( MOL.save_string_xyz() )
f.close()
--------------------------------------------------------------------------

    Molecular point group: c1
  Charge       = 0
  Multiplicity = 1
  Basis Set: CC-PVTZ
  Basis Set:
  @DF-RHF Final Energy:  -345.01077966860868
    Total Energy =                       -345.0107796686083930
    Molecular point group: c1
  Basis Set: CC-PVTZ
  Basis Set:
  Basis Set: CC-PVTZ
  Basis Set:
  @DF-RHF Final Energy:  -345.02969661348038
    Total Energy =                       -345.0296966134806098
  Basis Set: CC-PVTZ
  Basis Set:
  Basis Set: CC-PVTZ
  Basis Set:
  @DF-RHF Final Energy:  -345.03402502888116
    Total Energy =                       -345.0340250288812740
  Basis Set: CC-PVTZ
  Basis Set:
  Basis Set: CC-PVTZ
  Basis Set:
  @DF-RHF Final Energy:  -345.03339336546986
    Total Energy =                       -345.0333933654694647
  Basis Set: CC-PVTZ
  Basis Set:
  @DF-RHF Final Energy:  -345.03473901730115
    Total Energy =                       -345.0347390173010922
  @DF-RHF Final Energy:  -345.03524338974745
    Total Energy =                       -345.0352433897471087
  Basis Set: CC-PVTZ
  Basis Set:
  @DF-RHF Final Energy:  -345.03526687589789
    Total Energy =                       -345.0352668758977188
  Basis Set: CC-PVTZ
  Basis Set:
  Basis Set: CC-PVTZ
  Basis Set:
  @DF-RHF Final Energy:  -345.03527143328762
    Total Energy =                       -345.0352714332873347
  Basis Set: CC-PVTZ
  Basis Set:
  Basis Set: CC-PVTZ
  Basis Set:
  @DF-RHF Final Energy:  -345.03527303576959
    Total Energy =                       -345.0352730357693645
  Basis Set: CC-PVTZ
  Basis Set:
  Charge       = 0
  Multiplicity = 1
  Basis Set: CC-PVTZ
  Basis Set:

    Orbital Energies (a.u.)
    -----------------------

    Doubly Occupied:

       1A    -20.588256     2A    -20.528748     3A    -11.366392
       4A    -11.293568     5A    -11.228560     6A    -11.215908
       7A    -11.211521     8A     -1.463486     9A     -1.363250
      10A     -1.078374    11A     -1.003322    12A     -0.946973
      13A     -0.868316    14A     -0.734201    15A     -0.695166
      16A     -0.674132    17A     -0.661997    18A     -0.617866
      19A     -0.584554    20A     -0.580676    21A     -0.569237
      22A     -0.551628    23A     -0.530327    24A     -0.519232
      25A     -0.503757    26A     -0.482276    27A     -0.446683
      28A     -0.431108

  @DF-RHF Final Energy:  -345.03527399750789

   => Energetics <=

    Nuclear Repulsion Energy =            326.2198894248485317
    One-Electron Energy =               -1117.0312932459146396
    Two-Electron Energy =                 445.7761298235584491
    DFT Exchange-Correlation Energy =       0.0000000000000000
    Empirical Dispersion Energy =           0.0000000000000000
    PCM Polarization Energy =               0.0000000000000000
    EFP Energy =                            0.0000000000000000
    Total Energy =                       -345.0352739975076020
    Molecular point group: c1
  Basis Set: CC-PVTZ
  Basis Set:

  -Total Gradient:
     Atom            X                  Y                   Z
    ------   -----------------  -----------------  -----------------
       1        0.000032866837    -0.000037628314     0.000092099582
       2       -0.000768934641    -0.003615342092    -0.003539269899
       3        0.000013028450    -0.000016000715    -0.000046501367
       4        0.000856276684     0.005440778976     0.004761524110
       5        0.000014238881    -0.000040331767    -0.000000275043
       6       -0.000035265747     0.000019260869    -0.000004362788
       7        0.000016193307     0.000033000858     0.000051086793
       8        0.001813302763    -0.000243809044     0.003024601942
       9       -0.000056058524    -0.000057083238     0.000081641428
      10        0.000102748737     0.000087317217    -0.000010008318
      11       -0.001997075440    -0.001586133568    -0.004403577534
      12       -0.000009023472    -0.000005447167    -0.000003473063
      13       -0.000020659007    -0.000013473122    -0.000016386908
      14       -0.000001175335     0.000039446576     0.000011350370
      15        0.000017808355     0.000000159311    -0.000013709319
      16       -0.000006257873     0.000019305617     0.000019383130
      17        0.000027986027    -0.000024020394    -0.000004123119

  **** Optimization is complete! (in 10 steps) ****
    Final optimized geometry and variables:
    Molecular point group: c1

    Geometry (in Angstrom), charge = 0, multiplicity = 1:

    O           -1.360740931346     0.760026233585    -0.383565157494
    C           -1.070611947567    -0.176595290194     0.279653580857
    C           -2.067633220305    -1.021095918264     1.025885098351
    O            0.158232010799    -0.607816842116     0.487282475801
    H           -2.028820294478    -2.037939983267     0.656155880181
    H           -3.057368702743    -0.615644898943     0.891522555853
    H           -1.811650123820    -1.044386915299     2.077084032739
    C            1.316580339715    -0.149431729416    -0.228932967884
    C            1.958971032458     0.990453282009     0.537129295856
    C            1.083122714438     0.169855444206    -1.699813511330
    H            1.949960703871    -1.025292097451    -0.208955478959
    H            2.150758627108     0.700701581592     1.562382746909
    H            2.900915115024     1.263961017045     0.076296343742
    H            1.312753504079     1.859400855871     0.536039282599
    H            2.053121799863     0.217316138217    -2.182553022515
    H            0.512480042358    -0.615116277086    -2.180524161620
    H            0.571100480996     1.105691894956    -1.848595283990

  Mulliken Charges: (a.u.)
   Center  Symbol    Alpha    Beta     Spin     Total
       1     O     4.20019  4.20019  0.00000 -0.40038
       2     C     2.80320  2.80320  0.00000  0.39359
       3     C     3.13765  3.13765  0.00000 -0.27530
       4     O     4.16392  4.16392  0.00000 -0.32785
       5     H     0.44742  0.44742  0.00000  0.10516
       6     H     0.43907  0.43907  0.00000  0.12185
       7     H     0.44508  0.44508  0.00000  0.10984
       8     C     2.93721  2.93721  0.00000  0.12558
       9     C     3.15032  3.15032  0.00000 -0.30063
      10     C     3.15974  3.15974  0.00000 -0.31949
      11     H     0.44122  0.44122  0.00000  0.11757
      12     H     0.44672  0.44672  0.00000  0.10657
      13     H     0.45161  0.45161  0.00000  0.09678
      14     H     0.44438  0.44438  0.00000  0.11124
      15     H     0.45040  0.45040  0.00000  0.09920
      16     H     0.44776  0.44776  0.00000  0.10448
      17     H     0.43411  0.43411  0.00000  0.13178

   Total alpha = 28.00000, Total beta = 28.00000, Total charge = -0.00000

*** Psi4 exiting successfully. Buy a developer a beer!
