                              Psi4 1.0.54 Driver

  ==> Input File <==

--------------------------------------------------------------------------
set {
	reference rhf
	basis cc-pvtz
}

set_num_threads( 4 )
memory 2 gb

molecule MOL {
0 1

H	 -0.000105	 1.988529	 0.748933
O	 -0.000098	 1.879786	 -0.188206
C	 -0.000014	 0.545691	 -0.532416
C	 -1.286000	 -0.125171	 -0.046657
C	 1.286016	 -0.125031	 -0.046584
H	 0.000021	 0.481103	 -1.610604
F	 -2.003472	 0.745255	 0.620015
F	 -2.016602	 -0.575285	 -1.035257
F	 -1.025777	 -1.130434	 0.761492
F	 2.317750	 0.468717	 -0.594166
F	 1.336617	 -1.393765	 -0.365123
F	 1.414467	 -0.024806	 1.259108

	symmetry c1
}
set optking {
	frozen_dihedral = ("
		7 4 3 6
	")
}

ee,wfn = optimize('scf', return_wfn=True)
oeprop( wfn, 'DIPOLE', 'QUADRUPOLE', 'MULLIKEN_CHARGES')
f=open( 'psi4out.xyz', 'w' )
f.write( "12  " )
f.write( str(ee) + "\n" )
f.write( MOL.save_string_xyz() )
f.close()
--------------------------------------------------------------------------

    Molecular point group: c1
  Charge       = 0
  Multiplicity = 1
  Basis Set: CC-PVTZ
  Basis Set:
  @DF-RHF Final Energy:  -786.58190855091652
    Total Energy =                       -786.5819085509159549
    Molecular point group: c1
  Basis Set: CC-PVTZ
  Basis Set:
  Basis Set: CC-PVTZ
  Basis Set:
  @DF-RHF Final Energy:  -786.58255565723880
    Total Energy =                       -786.5825556572390269
  Basis Set: CC-PVTZ
  Basis Set:
  Basis Set: CC-PVTZ
  Basis Set:
  @DF-RHF Final Energy:  -786.58352545511696
    Total Energy =                       -786.5835254551172966
  Basis Set: CC-PVTZ
  Basis Set:
  Basis Set: CC-PVTZ
  Basis Set:
  @DF-RHF Final Energy:  -786.58358457860493
    Total Energy =                       -786.5835845786050413
  Basis Set: CC-PVTZ
  Basis Set:
  Basis Set: CC-PVTZ
  Basis Set:
  @DF-RHF Final Energy:  -786.58359542809137
    Total Energy =                       -786.5835954280915985
  Basis Set: CC-PVTZ
  Basis Set:
  Basis Set: CC-PVTZ
  Basis Set:
  @DF-RHF Final Energy:  -786.58359751810713
    Total Energy =                       -786.5835975181071262
  Basis Set: CC-PVTZ
  Basis Set:
  Charge       = 0
  Multiplicity = 1
  Basis Set: CC-PVTZ
  Basis Set:

    Orbital Energies (a.u.)
    -----------------------

    Doubly Occupied:

       1A    -26.358604     2A    -26.356830     3A    -26.356452
       4A    -26.355770     5A    -26.355464     6A    -26.351914
       7A    -20.608741     8A    -11.522610     9A    -11.517193
      10A    -11.351808    11A     -1.772178    12A     -1.765432
      13A     -1.665873    14A     -1.663987    15A     -1.663606
      16A     -1.659026    17A     -1.438704    18A     -1.100195
      19A     -1.000668    20A     -0.943948    21A     -0.872484
      22A     -0.865706    23A     -0.857764    24A     -0.853512
      25A     -0.841569    26A     -0.819802    27A     -0.739657
      28A     -0.737017    29A     -0.735698    30A     -0.730160
      31A     -0.694607    32A     -0.691514    33A     -0.688575
      34A     -0.684069    35A     -0.674822    36A     -0.668807
      37A     -0.662438    38A     -0.654360    39A     -0.622482
      40A     -0.552140    41A     -0.508988

  @DF-RHF Final Energy:  -786.58359778427121

   => Energetics <=

    Nuclear Repulsion Energy =            669.5926366021833473
    One-Electron Energy =               -2426.4221243726133252
    Two-Electron Energy =                 970.2458899861587724
    DFT Exchange-Correlation Energy =       0.0000000000000000
    Empirical Dispersion Energy =           0.0000000000000000
    PCM Polarization Energy =               0.0000000000000000
    EFP Energy =                            0.0000000000000000
    Total Energy =                       -786.5835977842712055
    Molecular point group: c1
  Basis Set: CC-PVTZ
  Basis Set:

  -Total Gradient:
     Atom            X                  Y                   Z
    ------   -----------------  -----------------  -----------------
       1       -0.000001335873     0.000000752440    -0.000002152853
       2        0.000004860579    -0.000013545742     0.000010826120
       3        0.000278108066    -0.000500828502    -0.000114585545
       4        0.000299262708    -0.000082045535     0.000630589057
       5        0.000004037762    -0.000024693830    -0.000000738300
       6       -0.000276322791     0.000470072847    -0.000040300534
       7       -0.000219646681     0.000100138921    -0.000429821030
       8       -0.000030328693     0.000003169324    -0.000033533573
       9       -0.000004657312     0.000033470111    -0.000029347872
      10       -0.000027317245     0.000015168905     0.000002398329
      11       -0.000015835776    -0.000023602651    -0.000023126907
      12       -0.000010824749     0.000021943717     0.000029793108

  **** Optimization is complete! (in 7 steps) ****
    Final optimized geometry and variables:
    Molecular point group: c1

    Geometry (in Angstrom), charge = 0, multiplicity = 1:

    H           -0.073436282486     2.045854938896     0.727928871979
    O            0.022789477388     1.909914622932    -0.199799544097
    C            0.004965124912     0.572385208223    -0.521757645073
    C           -1.288967067319    -0.138168326880    -0.037210067400
    C            1.287813924422    -0.104994697032    -0.043371647619
    H            0.008728573283     0.507746049296    -1.598443775766
    F           -2.051922786576     0.691943828886     0.632130133037
    F           -1.977455128269    -0.571368480214    -1.067991239265
    F           -1.056495350540    -1.167486282572     0.741347372202
    F            2.323657937439     0.499999266890    -0.569507635633
    F            1.333395166573    -1.363940035785    -0.405741765274
    F            1.410658346610    -0.040531794907     1.264611846560

  Mulliken Charges: (a.u.)
   Center  Symbol    Alpha    Beta     Spin     Total
       1     H     0.38236  0.38236  0.00000  0.23527
       2     O     4.18360  4.18360  0.00000 -0.36720
       3     C     3.02258  3.02258  0.00000 -0.04515
       4     C     2.67373  2.67373  0.00000  0.65255
       5     C     2.67823  2.67823  0.00000  0.64354
       6     H     0.42826  0.42826  0.00000  0.14348
       7     F     4.60528  4.60528  0.00000 -0.21056
       8     F     4.60518  4.60518  0.00000 -0.21037
       9     F     4.60190  4.60190  0.00000 -0.20380
      10     F     4.60153  4.60153  0.00000 -0.20305
      11     F     4.60583  4.60583  0.00000 -0.21167
      12     F     4.61152  4.61152  0.00000 -0.22304

   Total alpha = 41.00000, Total beta = 41.00000, Total charge =  0.00000

*** Psi4 exiting successfully. Buy a developer a beer!
