  ==> Input File <==

--------------------------------------------------------------------------
set {
	reference rhf
	basis 6-31G*
}

set_num_threads( 1 )
memory 2 gb

molecule MOL {
0 1

H	 3.089270	 -1.380733	 0.000000
O	 2.178328	 -1.639175	 0.000000
C	 1.368216	 -0.558384	 0.000000
C	 1.391108	 0.388798	 1.015691
C	 0.492856	 -0.412920	 -1.062081
H	 2.073098	 0.273711	 1.841330
C	 0.539495	 1.479771	 0.968751
H	 0.474156	 -1.143810	 -1.847272
C	 -0.356390	 0.682201	 -1.101431
H	 0.566325	 2.206191	 1.760567
C	 -0.338571	 1.633111	 -0.088897
C	 -1.299322	 0.844592	 -2.239578
H	 -1.000937	 2.479749	 -0.127376
O	 -1.390917	 0.087911	 -3.152590
H	 -1.931953	 1.735997	 -2.190342

	symmetry c1
}
set optking {
	frozen_dihedral = ("
		11 9 12 14
	")
}

ee = energy('scf')
oeprop('DIPOLE', 'QUADRUPOLE', 'MULLIKEN_CHARGES')
f=open( 'psi4out.xyz', 'w' )
f.write( "15  " )
f.write( str(ee) + "\n" )
f.write( MOL.save_string_xyz() )
f.close()
--------------------------------------------------------------------------

    Molecular point group: c1

    Geometry (in Angstrom), charge = 0, multiplicity = 1:

       Center              X                  Y                   Z               Mass
    ------------   -----------------  -----------------  -----------------  -----------------
           H          2.782323008904    -1.610806564124     0.664418116235     1.007825032070
           O          1.871381008904    -1.869248564124     0.664418116235    15.994914619560
           C          1.061269008904    -0.788457564124     0.664418116235    12.000000000000
           C          1.084161008904     0.158724435876     1.680109116235    12.000000000000
           C          0.185909008904    -0.642993564124    -0.397662883765    12.000000000000
           H          1.766151008904     0.043637435876     2.505748116235     1.007825032070
           C          0.232548008904     1.249697435876     1.633169116235    12.000000000000
           H          0.167209008904    -1.373883564124    -1.182853883765     1.007825032070
           C         -0.663336991096     0.452127435876    -0.437012883765    12.000000000000
           H          0.259378008904     1.976117435876     2.424985116235     1.007825032070
           C         -0.645517991096     1.403037435876     0.575521116235    12.000000000000
           C         -1.606268991096     0.614518435876    -1.575159883765    12.000000000000
           H         -1.307883991096     2.249675435876     0.537042116235     1.007825032070
           O         -1.697863991096    -0.142162564124    -2.488171883765    15.994914619560
           H         -2.238899991096     1.505923435876    -1.525923883765     1.007825032070

  Charge       = 0
  Multiplicity = 1
  Basis Set: 6-31G*
  Basis Set:

    Orbital Energies (a.u.)
    -----------------------

    Doubly Occupied:

       1A    -20.591073     2A    -20.564132     3A    -11.332504
       4A    -11.305394     5A    -11.251732     6A    -11.250814
       7A    -11.249803     8A    -11.249355     9A    -11.241084
      10A     -1.413812    11A     -1.405002    12A     -1.169315
      13A     -1.048144    14A     -1.025714    15A     -0.897203
      16A     -0.846019    17A     -0.806641    18A     -0.739570
      19A     -0.699114    20A     -0.683976    21A     -0.644906
      22A     -0.636155    23A     -0.618387    24A     -0.606899
      25A     -0.555464    26A     -0.546715    27A     -0.535477
      28A     -0.501523    29A     -0.486147    30A     -0.422700
      31A     -0.352124    32A     -0.336041

  @DF-RHF Final Energy:  -418.28290829697403

   => Energetics <=

    Nuclear Repulsion Energy =            403.1622506206894059
    One-Electron Energy =               -1368.8644475723756386
    Two-Electron Energy =                 547.4192886547115222
    DFT Exchange-Correlation Energy =       0.0000000000000000
    Empirical Dispersion Energy =           0.0000000000000000
    PCM Polarization Energy =               0.0000000000000000
    EFP Energy =                            0.0000000000000000
    Total Energy =                       -418.2829082969747105

  Mulliken Charges: (a.u.)
   Center  Symbol    Alpha    Beta     Spin     Total
       1     H     0.26983  0.26983  0.00000  0.46034
       2     O     4.38201  4.38201  0.00000 -0.76403
       3     C     2.81250  2.81250  0.00000  0.37499
       4     C     3.11821  3.11821  0.00000 -0.23643
       5     C     3.10859  3.10859  0.00000 -0.21717
       6     H     0.39265  0.39265  0.00000  0.21470
       7     C     3.09973  3.09973  0.00000 -0.19946
       8     H     0.37099  0.37099  0.00000  0.25801
       9     C     3.05036  3.05036  0.00000 -0.10073
      10     H     0.39321  0.39321  0.00000  0.21358
      11     C     3.10930  3.10930  0.00000 -0.21861
      12     C     2.83220  2.83220  0.00000  0.33559
      13     H     0.39216  0.39216  0.00000  0.21567
      14     O     4.24591  4.24591  0.00000 -0.49182
      15     H     0.42232  0.42232  0.00000  0.15535

   Total alpha = 32.00000, Total beta = 32.00000, Total charge =  0.00000
