                              Psi4 1.0.54 Driver

  ==> Input File <==

--------------------------------------------------------------------------
set {
	reference rhf
	basis cc-pvtz
}

set_num_threads( 4 )
memory 2 gb

molecule MOL {
0 1

H	 -3.162190	 0.493205	 -0.000107
C	 -2.363908	 -0.234727	 0.000005
O	 -1.158738	 0.454634	 -0.000087
H	 -2.464314	 -0.863616	 -0.882153
H	 -2.464327	 -0.863359	 0.882345
C	 -0.650952	 0.728478	 1.267777
C	 0.658185	 1.479147	 1.129765
H	 -0.495315	 -0.200469	 1.816842
H	 -1.366496	 1.322477	 1.836816
C	 1.280553	 1.817476	 2.479781
H	 1.342384	 0.875495	 0.543761
H	 0.478113	 2.386348	 0.563627
H	 1.491621	 0.921220	 3.053595
H	 2.213427	 2.352631	 2.351814
H	 0.621714	 2.442406	 3.073466

	symmetry c1
}
set optking {
	frozen_dihedral = ("
		6 3 2 4
	")
}

ee,wfn = optimize('scf', return_wfn=True)
oeprop( wfn, 'DIPOLE', 'QUADRUPOLE', 'MULLIKEN_CHARGES')
f=open( 'psi4out.xyz', 'w' )
f.write( "15  " )
f.write( str(ee) + "\n" )
f.write( MOL.save_string_xyz() )
f.close()
--------------------------------------------------------------------------

    Molecular point group: c1
  Charge       = 0
  Multiplicity = 1
  Basis Set: CC-PVTZ
  Basis Set:
  @DF-RHF Final Energy:  -232.22548289879052
    Total Energy =                       -232.2254828987903466
    Molecular point group: c1
  Basis Set: CC-PVTZ
  Basis Set:
  Basis Set: CC-PVTZ
  Basis Set:
  @DF-RHF Final Energy:  -232.22626664534104
    Total Energy =                       -232.2262666453410702
  Basis Set: CC-PVTZ
  Basis Set:
  Basis Set: CC-PVTZ
  Basis Set:
  @DF-RHF Final Energy:  -232.22643011193554
    Total Energy =                       -232.2264301119354286
  Basis Set: CC-PVTZ
  Basis Set:
  Charge       = 0
  Multiplicity = 1
  Basis Set: CC-PVTZ
  Basis Set:

    Orbital Energies (a.u.)
    -----------------------

    Doubly Occupied:

       1A    -20.545812     2A    -11.264666     3A    -11.261496
       4A    -11.212492     5A    -11.210599     6A     -1.379410
       7A     -1.058256     8A     -0.956116     9A     -0.877407
      10A     -0.809393    11A     -0.675433    12A     -0.654823
      13A     -0.631513    14A     -0.608970    15A     -0.564058
      16A     -0.543849    17A     -0.503290    18A     -0.489102
      19A     -0.478875    20A     -0.462429    21A     -0.414330

  @DF-RHF Final Energy:  -232.22643050510743

   => Energetics <=

    Nuclear Repulsion Energy =            189.8429001302070560
    One-Electron Energy =                -690.9340243172564442
    Two-Electron Energy =                 268.8646936819420148
    DFT Exchange-Correlation Energy =       0.0000000000000000
    Empirical Dispersion Energy =           0.0000000000000000
    PCM Polarization Energy =               0.0000000000000000
    EFP Energy =                            0.0000000000000000
    Total Energy =                       -232.2264305051073734
    Molecular point group: c1
  Basis Set: CC-PVTZ
  Basis Set:

  -Total Gradient:
     Atom            X                  Y                   Z
    ------   -----------------  -----------------  -----------------
       1       -0.000000374053     0.000008357915    -0.000010058709
       2       -0.001060566463     0.001833445681    -0.001678138561
       3       -0.001410031827     0.002361673326     0.000345154752
       4        0.001277610186    -0.002131535576     0.001372659108
       5        0.000019630547     0.000003653442     0.000000778389
       6        0.001214191097    -0.002099689505     0.000024357851
       7       -0.000015212035     0.000006978993    -0.000030712397
       8       -0.000005304480     0.000000069946     0.000029982545
       9       -0.000006176085    -0.000003527345    -0.000060494426
      10       -0.000015044425     0.000013693062     0.000010236388
      11       -0.000014630446    -0.000005001216     0.000000766765
      12        0.000016786840     0.000014091546    -0.000002615980
      13        0.000000218406    -0.000002527121    -0.000005561881
      14       -0.000003185748     0.000000577919    -0.000003060639
      15        0.000002088483    -0.000000261067     0.000006706792

  **** Optimization is complete! (in 4 steps) ****
    Final optimized geometry and variables:
    Molecular point group: c1

    Geometry (in Angstrom), charge = 0, multiplicity = 1:

    H           -2.746266350150    -0.413938851914    -0.928856465693
    C           -1.894601880776    -1.088114693720    -0.954693220762
    O           -0.692209243563    -0.388442343614    -0.953370015407
    H           -1.937705810907    -1.689952027236    -1.852191138845
    H           -1.965158342227    -1.761150700565    -0.103918068416
    C           -0.167656320571    -0.107164580507     0.306638470726
    C            1.125749056683     0.665635248964     0.144708485521
    H            0.013859824540    -1.034297514589     0.849545627723
    H           -0.879546269080     0.475447124219     0.892114414993
    C            1.772495108896     1.004937554101     1.483100839481
    H            1.805989479696     0.076474150370    -0.460512838507
    H            0.919396968197     1.573634077679    -0.411147563200
    H            2.011070182314     0.108280960729     2.045499798346
    H            2.693431763134     1.556435654370     1.338472998449
    H            1.116849915608     1.614690383416     2.095897347063

  Mulliken Charges: (a.u.)
   Center  Symbol    Alpha    Beta     Spin     Total
       1     H     0.46475  0.46475  0.00000  0.07050
       2     C     3.03102  3.03102  0.00000 -0.06204
       3     O     4.17417  4.17417  0.00000 -0.34833
       4     H     0.45076  0.45076  0.00000  0.09848
       5     H     0.47487  0.47487  0.00000  0.05025
       6     C     2.95583  2.95583  0.00000  0.08833
       7     C     3.08122  3.08122  0.00000 -0.16243
       8     H     0.47453  0.47453  0.00000  0.05094
       9     H     0.47677  0.47677  0.00000  0.04645
      10     C     3.15583  3.15583  0.00000 -0.31166
      11     H     0.45122  0.45122  0.00000  0.09756
      12     H     0.45099  0.45099  0.00000  0.09801
      13     H     0.45593  0.45593  0.00000  0.08814
      14     H     0.44627  0.44627  0.00000  0.10747
      15     H     0.45584  0.45584  0.00000  0.08833

   Total alpha = 21.00000, Total beta = 21.00000, Total charge = -0.00000

*** Psi4 exiting successfully. Buy a developer a beer!
