  ==> Input File <==

--------------------------------------------------------------------------
set {
	reference rhf
	basis cc-pvtz
}

set_num_threads( 4 )
memory 2 gb

molecule MOL {
0 1

H	 -2.090483	 0.067655	 0.368976
C	 -1.189450	 -0.484961	 0.209952
C	 -1.181968	 -1.865061	 0.208601
C	 0.000000	 0.179985	 0.000046
H	 -2.096539	 -2.400808	 0.369999
C	 -0.000001	 -2.552036	 -0.000013
N	 0.000000	 1.644631	 0.000076
C	 1.189451	 -0.484952	 -0.209886
H	 -0.000000	 -3.625035	 -0.000032
C	 1.181968	 -1.865052	 -0.208595
O	 1.050559	 2.194174	 -0.000073
O	 -1.050559	 2.194174	 -0.000074
H	 2.090481	 0.067670	 -0.368896
H	 2.096540	 -2.400793	 -0.370011

	symmetry c1
}
set optking {
	frozen_dihedral = ("
		2 4 7 11
	")
}

ee = optimize('scf')
oeprop('DIPOLE', 'QUADRUPOLE', 'MULLIKEN_CHARGES')
f=open( 'psi4out.xyz', 'w' )
f.write( "14  " )
f.write( str(ee) + "\n" )
f.write( MOL.save_string_xyz() )
f.close()
--------------------------------------------------------------------------

    Molecular point group: c1
  Charge       = 0
  Multiplicity = 1
  Basis Set: CC-PVTZ
  Basis Set:
  @DF-RHF Final Energy:  -434.32992097708825
    Total Energy =                       -434.3299209770884772
    Molecular point group: c1
  Basis Set: CC-PVTZ
  Basis Set:
  Basis Set: CC-PVTZ
  Basis Set:
  @DF-RHF Final Energy:  -434.32818824220118
    Total Energy =                       -434.3281882422010085
  Basis Set: CC-PVTZ
  Basis Set:
  Basis Set: CC-PVTZ
  Basis Set:
  @DF-RHF Final Energy:  -434.32992415602126
    Total Energy =                       -434.3299241560214341
  Basis Set: CC-PVTZ
  Basis Set:
  Charge       = 0
  Multiplicity = 1
  Basis Set: CC-PVTZ
  Basis Set:

    Orbital Energies (a.u.)
    -----------------------

    Doubly Occupied:

       1A    -20.591847     2A    -20.591784     3A    -15.847739
       4A    -11.302495     5A    -11.267246     6A    -11.267204
       7A    -11.264736     8A    -11.258267     9A    -11.258130
      10A     -1.641233    11A     -1.423609    12A     -1.204604
      13A     -1.095748    14A     -1.055094    15A     -0.959471
      16A     -0.867259    17A     -0.829008    18A     -0.789382
      19A     -0.740759    20A     -0.735321    21A     -0.711712
      22A     -0.659647    23A     -0.651968    24A     -0.626429
      25A     -0.555413    26A     -0.541042    27A     -0.531378
      28A     -0.492390    29A     -0.491614    30A     -0.457595
      31A     -0.377585    32A     -0.369335

  @DF-RHF Final Energy:  -434.32993645470970

   => Energetics <=

    Nuclear Repulsion Energy =            418.2278871477705025
    One-Electron Energy =               -1420.2015597009926751
    Two-Electron Energy =                 567.6437360985128180
    DFT Exchange-Correlation Energy =       0.0000000000000000
    Empirical Dispersion Energy =           0.0000000000000000
    PCM Polarization Energy =               0.0000000000000000
    EFP Energy =                            0.0000000000000000
    Total Energy =                       -434.3299364547093546
    Molecular point group: c1
  Basis Set: CC-PVTZ
  Basis Set:

  -Total Gradient:
     Atom            X                  Y                   Z
    ------   -----------------  -----------------  -----------------
       1       -0.000010023073     0.000005021766    -0.000003770794
       2        0.000157639106    -0.000003455743     0.000779901105
       3       -0.000006145425     0.000012178684    -0.000036101964
       4       -0.000198460519    -0.000005676882    -0.000763087191
       5       -0.000000085475     0.000002643173     0.000003806888
       6        0.000018128303    -0.000002732332     0.000052824779
       7        0.000056364019     0.000000531448    -0.000923235861
       8       -0.000006322033     0.000001134470     0.000004813654
       9       -0.000002355692     0.000001837048    -0.000006844858
      10       -0.000015560922    -0.000006280174    -0.000035126339
      11       -0.000005399745     0.000012654215     0.000912014083
      12        0.000010137793    -0.000016255918     0.000011452082
      13        0.000001359168    -0.000003916134     0.000004548818
      14        0.000000724493     0.000002316382    -0.000001194402

  **** Optimization is complete! (in 4 steps) ****
    Final optimized geometry and variables:
    Molecular point group: c1

    Geometry (in Angstrom), charge = 0, multiplicity = 1:

    H           -2.091751885700     0.068798448906     0.359660450606
    C           -1.190174452817    -0.484223640475     0.204521800818
    C           -1.181635853334    -1.864296827919     0.209592950913
    C           -0.000912350837     0.179959646644    -0.006857189633
    H           -2.095303754601    -2.400041933482     0.375939403824
    C            0.000237134192    -2.551259644698     0.000789798705
    N           -0.000003591711     1.644056414777    -0.000712832945
    C            1.189697370387    -0.484403922342    -0.210115284981
    H            0.000560396308    -3.624219653581     0.003110083251
    C            1.181828055602    -1.864470078638    -0.210337104039
    O            1.051229930035     2.192478757647    -0.002298963034
    O           -1.050584197742     2.193583941161     0.012087449323
    H            2.091555370379     0.068481048031    -0.364064253294
    H            2.096173246217    -2.400377474000    -0.372387168714

  Mulliken Charges: (a.u.)
   Center  Symbol    Alpha    Beta     Spin     Total
       1     H     0.39943  0.39943  0.00000  0.20115
       2     C     3.07749  3.07749  0.00000 -0.15498
       3     C     3.07217  3.07217  0.00000 -0.14434
       4     C     2.97887  2.97887  0.00000  0.04227
       5     H     0.41694  0.41694  0.00000  0.16612
       6     C     3.06468  3.06468  0.00000 -0.12937
       7     N     3.25406  3.25406  0.00000  0.49189
       8     C     3.07729  3.07729  0.00000 -0.15457
       9     H     0.41709  0.41709  0.00000  0.16582
      10     C     3.07215  3.07215  0.00000 -0.14429
      11     O     4.17663  4.17663  0.00000 -0.35327
      12     O     4.17674  4.17674  0.00000 -0.35348
      13     H     0.39953  0.39953  0.00000  0.20095
      14     H     0.41695  0.41695  0.00000  0.16611

   Total alpha = 32.00000, Total beta = 32.00000, Total charge = -0.00000
