                              Psi4 1.0.54 Driver

  ==> Input File <==

--------------------------------------------------------------------------
set {
	reference rhf
	basis cc-pvtz
}

set_num_threads( 4 )
memory 2 gb

molecule MOL {
0 1

O	 3.077810	 1.005813	 -0.806005
C	 2.841259	 0.166180	 -0.000295
C	 1.542794	 -0.614730	 -0.000853
C	 3.830476	 -0.181493	 1.089107
C	 0.288398	 0.247429	 0.000314
H	 1.557171	 -1.273139	 -0.866508
H	 1.557484	 -1.274998	 0.863344
C	 -0.993089	 -0.581367	 -0.000217
H	 0.305153	 0.900562	 -0.864701
H	 0.305567	 0.898805	 0.866656
C	 -2.258482	 0.271340	 0.000669
H	 -1.002280	 -1.233920	 -0.870484
H	 -1.002061	 -1.235367	 0.868958
C	 -3.544441	 -0.550271	 -0.000253
H	 -2.250545	 0.925250	 -0.867923
H	 -2.250598	 0.923423	 0.870642
C	 -4.804551	 0.308747	 0.000556
H	 -3.553737	 -1.201524	 -0.870151
H	 -3.553831	 -1.203282	 0.868313
H	 -4.842050	 0.949078	 -0.874436
H	 -5.698404	 -0.304480	 -0.000254
H	 -4.842277	 0.947103	 0.876982
H	 4.104872	 -1.228699	 1.024952
H	 4.712844	 0.431989	 0.991863
H	 3.382780	 -0.025071	 2.064372

	symmetry c1
}
set optking {
	frozen_dihedral = ("
		1 2 3 6
	")
}

ee,wfn = optimize('scf', return_wfn=True)
oeprop( wfn, 'DIPOLE', 'QUADRUPOLE', 'MULLIKEN_CHARGES')
f=open( 'psi4out.xyz', 'w' )
f.write( "25  " )
f.write( str(ee) + "\n" )
f.write( MOL.save_string_xyz() )
f.close()
--------------------------------------------------------------------------

    Molecular point group: c1
  Charge       = 0
  Multiplicity = 1
  Basis Set: CC-PVTZ
  Basis Set:
  @DF-RHF Final Energy:  -387.27230622842154
    Total Energy =                       -387.2723062284219395
    Molecular point group: c1
  Basis Set: CC-PVTZ
  Basis Set:
  Basis Set: CC-PVTZ
  Basis Set:
  @DF-RHF Final Energy:  -387.27288935351788
    Total Energy =                       -387.2728893535175985
  Basis Set: CC-PVTZ
  Basis Set:
  Basis Set: CC-PVTZ
  Basis Set:
  @DF-RHF Final Energy:  -387.27156901693900
    Total Energy =                       -387.2715690169393383
  Basis Set: CC-PVTZ
  Basis Set:
  Basis Set: CC-PVTZ
  Basis Set:
  @DF-RHF Final Energy:  -387.27302664500633
    Total Energy =                       -387.2730266450058707
  Basis Set: CC-PVTZ
  Basis Set:
  Basis Set: CC-PVTZ
  Basis Set:
  @DF-RHF Final Energy:  -387.27303560439981
    Total Energy =                       -387.2730356044004338
  Basis Set: CC-PVTZ
  Basis Set:
  Charge       = 0
  Multiplicity = 1
  Basis Set: CC-PVTZ
  Basis Set:

    Orbital Energies (a.u.)
    -----------------------

    Doubly Occupied:

       1A    -20.537037     2A    -11.320338     3A    -11.228576
       4A    -11.227345     5A    -11.220516     6A    -11.216669
       7A    -11.214652     8A    -11.213182     9A    -11.207380
      10A     -1.397767    11A     -1.096716    12A     -1.057922
      13A     -1.015231    14A     -0.971136    15A     -0.892345
      16A     -0.815636    17A     -0.793055    18A     -0.732316
      19A     -0.666192    20A     -0.650960    21A     -0.637456
      22A     -0.616827    23A     -0.601100    24A     -0.586417
      25A     -0.569484    26A     -0.560719    27A     -0.541434
      28A     -0.534497    29A     -0.512112    30A     -0.494417
      31A     -0.489706    32A     -0.474319    33A     -0.465366
      34A     -0.464764    35A     -0.453003    36A     -0.398762

  @DF-RHF Final Energy:  -387.27303601479969

   => Energetics <=

    Nuclear Repulsion Energy =            439.2589262444557789
    One-Electron Energy =               -1395.3132145698596105
    Two-Electron Energy =                 568.7812523106044864
    DFT Exchange-Correlation Energy =       0.0000000000000000
    Empirical Dispersion Energy =           0.0000000000000000
    PCM Polarization Energy =               0.0000000000000000
    EFP Energy =                            0.0000000000000000
    Total Energy =                       -387.2730360147993451
    Molecular point group: c1
  Basis Set: CC-PVTZ
  Basis Set:

  -Total Gradient:
     Atom            X                  Y                   Z
    ------   -----------------  -----------------  -----------------
       1        0.000376175646    -0.000552848847    -0.000504920666
       2       -0.000557572834     0.000887595236     0.000617312719
       3        0.000571331554    -0.000927449096     0.000309115081
       4       -0.000020339762     0.000040869033     0.000037237015
       5        0.000014587438    -0.000008078447     0.000013913995
       6       -0.000365881059     0.000575879462    -0.000426899091
       7       -0.000020061057    -0.000000499909    -0.000003063986
       8       -0.000010192053    -0.000002336770     0.000005140991
       9       -0.000000550628    -0.000008536783     0.000010401626
      10       -0.000000115374     0.000003871614     0.000004028232
      11        0.000006420716    -0.000000000630    -0.000011507944
      12        0.000001769513    -0.000003953467     0.000001962666
      13        0.000001989120     0.000003525806     0.000001833865
      14       -0.000000073967     0.000000381564    -0.000002171782
      15       -0.000003687356     0.000005725159    -0.000000964558
      16        0.000001034105    -0.000004083413    -0.000001876828
      17       -0.000002707431    -0.000000369685    -0.000000344559
      18       -0.000001169652     0.000001591434     0.000001243214
      19        0.000000267191    -0.000000285766     0.000000393295
      20        0.000000468548    -0.000000016224     0.000000503078
      21       -0.000001256271     0.000000173450     0.000000299902
      22        0.000000487435    -0.000001037396    -0.000000962484
      23       -0.000008664102     0.000000494420    -0.000023473401
      24        0.000009742564     0.000000615438    -0.000010779315
      25        0.000007997718    -0.000011226182    -0.000016421063

  **** Optimization is complete! (in 6 steps) ****
    Final optimized geometry and variables:
    Molecular point group: c1

    Geometry (in Angstrom), charge = 0, multiplicity = 1:

    O            3.013842854049     0.995594417502    -0.763650598886
    C            2.839916411230     0.139642127956     0.041260904538
    C            1.554529291291    -0.669927310576     0.060938765416
    C            3.890475463814    -0.207091010794     1.067237016500
    C            0.304593928100     0.209697103671     0.024529776478
    H            1.577023572319    -1.301549128627    -0.823036491581
    H            1.534987098939    -1.326341174898     0.923387857745
    C           -0.985871651626    -0.601534785140    -0.040708106353
    H            0.371161312167     0.871402363929    -0.829642370171
    H            0.287629789296     0.844980957168     0.906394112469
    C           -2.239526976499     0.267815116449    -0.071854432113
    H           -0.965862635243    -1.234207256044    -0.924842551395
    H           -1.036583886577    -1.273399691851     0.813059801669
    C           -3.533963818083    -0.537097210313    -0.145043930911
    H           -2.187413690930     0.941074597690    -0.923855076281
    H           -2.260706633922     0.899557256581     0.813037735246
    C           -4.782701959120     0.337789596287    -0.175325565341
    H           -3.514804603281    -1.167295084195    -1.030016680719
    H           -3.586861837980    -1.210259505742     0.706432469624
    H           -4.776316695947     0.998943347609    -1.035453233193
    H           -5.682841775246    -0.263845408104    -0.227736440635
    H           -4.849339583417     0.955681425965     0.714012412577
    H            4.151519048376    -1.257305917031     0.988311704136
    H            4.769113592089     0.402645128872     0.923249207761
    H            3.492922568692    -0.051238741564     2.064880155530

  Mulliken Charges: (a.u.)
   Center  Symbol    Alpha    Beta     Spin     Total
       1     O     4.17571  4.17571  0.00000 -0.35141
       2     C     2.85869  2.85869  0.00000  0.28263
       3     C     3.10547  3.10547  0.00000 -0.21093
       4     C     3.15302  3.15302  0.00000 -0.30604
       5     C     3.09280  3.09280  0.00000 -0.18560
       6     H     0.44342  0.44342  0.00000  0.11315
       7     H     0.44679  0.44679  0.00000  0.10643
       8     C     3.09031  3.09031  0.00000 -0.18061
       9     H     0.43794  0.43794  0.00000  0.12412
      10     H     0.45378  0.45378  0.00000  0.09244
      11     C     3.08658  3.08658  0.00000 -0.17316
      12     H     0.45368  0.45368  0.00000  0.09263
      13     H     0.45540  0.45540  0.00000  0.08919
      14     C     3.08441  3.08441  0.00000 -0.16882
      15     H     0.45279  0.45279  0.00000  0.09442
      16     H     0.45488  0.45488  0.00000  0.09024
      17     C     3.15036  3.15036  0.00000 -0.30072
      18     H     0.45445  0.45445  0.00000  0.09110
      19     H     0.45521  0.45521  0.00000  0.08957
      20     H     0.45444  0.45444  0.00000  0.09112
      21     H     0.44843  0.44843  0.00000  0.10313
      22     H     0.45517  0.45517  0.00000  0.08967
      23     H     0.44952  0.44952  0.00000  0.10095
      24     H     0.43640  0.43640  0.00000  0.12720
      25     H     0.45033  0.45033  0.00000  0.09933

   Total alpha = 36.00000, Total beta = 36.00000, Total charge = -0.00000

*** Psi4 exiting successfully. Buy a developer a beer!
