  ==> Input File <==

--------------------------------------------------------------------------
set {
	reference rhf
	basis cc-pvtz
}

set_num_threads( 4 )
memory 2 gb

molecule MOL {
0 1

H	 0.497307	 1.838133	 0.668848
C	 1.218990	 1.070822	 0.412791
N	 0.526300	 -0.128137	 0.000000
H	 1.809789	 0.867628	 1.296934
H	 1.880281	 1.481122	 -0.353316
C	 -0.247113	 0.037112	 -1.209233
H	 1.176723	 -0.875205	 -0.111797
H	 -0.996493	 -0.743733	 -1.271440
H	 0.397975	 -0.057351	 -2.073512
H	 -0.763794	 0.997171	 -1.271673

	symmetry c1
}
set optking {
	frozen_dihedral = ("
		2 3 6 8
	")
}

ee = optimize('scf')
oeprop('DIPOLE', 'QUADRUPOLE', 'MULLIKEN_CHARGES')
f=open( 'psi4out.xyz', 'w' )
f.write( "10  " )
f.write( str(ee) + "\n" )
f.write( MOL.save_string_xyz() )
f.close()
--------------------------------------------------------------------------

    Molecular point group: c1
  Charge       = 0
  Multiplicity = 1
  Basis Set: CC-PVTZ
  Basis Set:
  @DF-RHF Final Energy:  -134.29002103770557
    Total Energy =                       -134.2900210377055714
    Molecular point group: c1
  Basis Set: CC-PVTZ
  Basis Set:
  Basis Set: CC-PVTZ
  Basis Set:
  @DF-RHF Final Energy:  -134.29150719640853
    Total Energy =                       -134.2915071964084746
  Basis Set: CC-PVTZ
  Basis Set:
  Basis Set: CC-PVTZ
  Basis Set:
  @DF-RHF Final Energy:  -134.29166206370238
    Total Energy =                       -134.2916620637023186
  Basis Set: CC-PVTZ
  Basis Set:
  Basis Set: CC-PVTZ
  Basis Set:
  @DF-RHF Final Energy:  -134.29166920849073
    Total Energy =                       -134.2916692084907595
  Basis Set: CC-PVTZ
  Basis Set:
  Charge       = 0
  Multiplicity = 1
  Basis Set: CC-PVTZ
  Basis Set:

    Orbital Energies (a.u.)
    -----------------------

    Doubly Occupied:

       1A    -15.530797     2A    -11.234338     3A    -11.233858
       4A     -1.199003     5A     -0.948037     6A     -0.855391
       7A     -0.662233     8A     -0.611160     9A     -0.591246
      10A     -0.541153    11A     -0.511929    12A     -0.507305
      13A     -0.360816

  @DF-RHF Final Energy:  -134.29167003096904

   => Energetics <=

    Nuclear Repulsion Energy =             84.6727524341372799
    One-Electron Energy =                -348.3543153130303835
    Two-Electron Energy =                 129.3898928479241590
    DFT Exchange-Correlation Energy =       0.0000000000000000
    Empirical Dispersion Energy =           0.0000000000000000
    PCM Polarization Energy =               0.0000000000000000
    EFP Energy =                            0.0000000000000000
    Total Energy =                       -134.2916700309689304
    Molecular point group: c1
  Basis Set: CC-PVTZ
  Basis Set:

  -Total Gradient:
     Atom            X                  Y                   Z
    ------   -----------------  -----------------  -----------------
       1       -0.000002199380    -0.000014353316    -0.000001755469
       2       -0.002094797051     0.000819377954     0.001412001494
       3        0.002418660276    -0.000593377219    -0.001534886199
       4       -0.000004953263    -0.000003014287    -0.000004648751
       5       -0.000008644248    -0.000018702679     0.000002849023
       6        0.001964803984    -0.002304929959    -0.001537271387
       7       -0.000020943340     0.000022208939    -0.000016347505
       8       -0.002219138630     0.002079717830     0.001641947443
       9       -0.000012735109     0.000004201867     0.000036059802
      10       -0.000020053241     0.000008870869     0.000002051548

  **** Optimization is complete! (in 5 steps) ****
    Final optimized geometry and variables:
    Molecular point group: c1

    Geometry (in Angstrom), charge = 0, multiplicity = 1:

    H           -0.010407122123     1.520110489791     0.931023107821
    C            0.707404174973     0.743855881750     0.693820400694
    N            0.008799856163    -0.452921417743     0.286387940996
    H            1.281857181366     0.543158714435     1.589390501099
    H            1.388311421347     1.140909835489    -0.062426622813
    C           -0.748961890970    -0.315207616298    -0.937409427776
    H            0.636229777824    -1.224258782788     0.227082055655
    H           -1.503756881465    -1.089427522777    -1.001391047671
    H           -0.141463081911    -0.331838839114    -1.842638929576
    H           -1.278218974017     0.630553464825    -0.919840614659

  Mulliken Charges: (a.u.)
   Center  Symbol    Alpha    Beta     Spin     Total
       1     H     0.45680  0.45680  0.00000  0.08640
       2     C     3.07987  3.07987  0.00000 -0.15975
       3     N     3.63211  3.63211  0.00000 -0.26423
       4     H     0.45278  0.45278  0.00000  0.09443
       5     H     0.47587  0.47587  0.00000  0.04826
       6     C     3.08186  3.08186  0.00000 -0.16372
       7     H     0.43960  0.43960  0.00000  0.12081
       8     H     0.45227  0.45227  0.00000  0.09546
       9     H     0.46975  0.46975  0.00000  0.06051
      10     H     0.45908  0.45908  0.00000  0.08183

   Total alpha = 13.00000, Total beta = 13.00000, Total charge =  0.00000
