                              Psi4 1.0.54 Driver

  ==> Input File <==

--------------------------------------------------------------------------
set {
	reference rhf
	basis cc-pvtz
}

set_num_threads( 4 )
memory 2 gb

molecule MOL {
0 1

H	 3.083659	 -1.378387	 0.000000
O	 2.179005	 -1.633391	 0.000000
C	 1.366950	 -0.558201	 0.000000
C	 0.204022	 -0.508473	 0.753529
C	 1.726141	 0.518322	 -0.784921
H	 -0.074279	 -1.347985	 1.364427
C	 -0.595915	 0.615792	 0.720597
H	 2.623681	 0.482985	 -1.368029
C	 0.918673	 1.641098	 -0.812058
H	 -1.493318	 0.642937	 1.307755
C	 -0.243701	 1.696953	 -0.061998
C	 1.294330	 2.807442	 -1.653427
H	 -0.863742	 2.572552	 -0.089631
O	 2.262177	 2.866038	 -2.331114
H	 0.594217	 3.647385	 -1.609414

	symmetry c1
}
set optking {
	frozen_dihedral = ("
		4 3 2 1
	")
}

ee,wfn = optimize('scf', return_wfn=True)
oeprop( wfn, 'DIPOLE', 'QUADRUPOLE', 'MULLIKEN_CHARGES')
f=open( 'psi4out.xyz', 'w' )
f.write( "15  " )
f.write( str(ee) + "\n" )
f.write( MOL.save_string_xyz() )
f.close()
--------------------------------------------------------------------------

    Molecular point group: c1
  Charge       = 0
  Multiplicity = 1
  Basis Set: CC-PVTZ
  Basis Set:
  @DF-RHF Final Energy:  -418.43647870995295
    Total Energy =                       -418.4364787099530076
    Molecular point group: c1
  Basis Set: CC-PVTZ
  Basis Set:
  Basis Set: CC-PVTZ
  Basis Set:
  @DF-RHF Final Energy:  -418.43802478168413
    Total Energy =                       -418.4380247816840210
  Basis Set: CC-PVTZ
  Basis Set:
  Basis Set: CC-PVTZ
  Basis Set:
  @DF-RHF Final Energy:  -418.43768467331120
    Total Energy =                       -418.4376846733110824
  Basis Set: CC-PVTZ
  Basis Set:
  Basis Set: CC-PVTZ
  Basis Set:
  @DF-RHF Final Energy:  -418.43811486001198
    Total Energy =                       -418.4381148600122060
  Basis Set: CC-PVTZ
  Basis Set:
  Basis Set: CC-PVTZ
  Basis Set:
  @DF-RHF Final Energy:  -418.43816225470795
    Total Energy =                       -418.4381622547080042
  Basis Set: CC-PVTZ
  Basis Set:
  Charge       = 0
  Multiplicity = 1
  Basis Set: CC-PVTZ
  Basis Set:

    Orbital Energies (a.u.)
    -----------------------

    Doubly Occupied:

       1A    -20.589472     2A    -20.556403     3A    -11.329929
       4A    -11.308145     5A    -11.251793     6A    -11.249153
       7A    -11.246710     8A    -11.244190     9A    -11.242429
      10A     -1.419672    11A     -1.412139    12A     -1.174900
      13A     -1.053107    14A     -1.029816    15A     -0.902680
      16A     -0.855326    17A     -0.800237    18A     -0.756251
      19A     -0.703588    20A     -0.674848    21A     -0.664547
      22A     -0.634828    23A     -0.621156    24A     -0.612271
      25A     -0.566404    26A     -0.555418    27A     -0.537394
      28A     -0.517077    29A     -0.492548    30A     -0.428872
      31A     -0.357729    32A     -0.337617

  @DF-RHF Final Energy:  -418.43816483871183

   => Energetics <=

    Nuclear Repulsion Energy =            403.9641802777572366
    One-Electron Energy =               -1370.5513966742994398
    Two-Electron Energy =                 548.1490515578308305
    DFT Exchange-Correlation Energy =       0.0000000000000000
    Empirical Dispersion Energy =           0.0000000000000000
    PCM Polarization Energy =               0.0000000000000000
    EFP Energy =                            0.0000000000000000
    Total Energy =                       -418.4381648387113728
    Molecular point group: c1
  Basis Set: CC-PVTZ
  Basis Set:

  -Total Gradient:
     Atom            X                  Y                   Z
    ------   -----------------  -----------------  -----------------
       1       -0.000059338533     0.000093164005     0.002955058091
       2        0.000654458694     0.000275563817    -0.002894601579
       3       -0.001980681114    -0.001365580659    -0.001488473381
       4        0.001358503874     0.000656903143     0.001534752256
       5       -0.000008711810     0.000266110591    -0.000095714430
       6        0.000000925783    -0.000012581910     0.000001925324
       7       -0.000009150944     0.000321230667    -0.000065118648
       8       -0.000026088202     0.000006542639     0.000016092399
       9        0.000274381245    -0.000054530052    -0.000077655487
      10        0.000012724710    -0.000034268656    -0.000001484611
      11       -0.000212373731    -0.000183185185     0.000154474873
      12       -0.000119485277     0.000004742740    -0.000004985089
      13        0.000034278894     0.000020136465    -0.000034427634
      14        0.000015575858     0.000023724702     0.000005599201
      15        0.000064980553    -0.000017972300    -0.000005441290

  **** Optimization is complete! (in 6 steps) ****
    Final optimized geometry and variables:
    Molecular point group: c1

    Geometry (in Angstrom), charge = 0, multiplicity = 1:

    H            1.980812762843    -2.275984211216     0.538812881646
    O            1.063749390489    -2.484619546438     0.526811758621
    C            0.310964761149    -1.359103396130     0.474867050482
    C           -0.846833849736    -1.317807346547     1.239357904716
    C            0.659011923769    -0.282547574434    -0.308543052630
    H           -1.093940442060    -2.165193502460     1.848181388950
    C           -1.658446581022    -0.205983980719     1.202633961004
    H            1.548183670852    -0.301335896980    -0.908295994640
    C           -0.155064911752     0.841449582852    -0.330188228319
    H           -2.554136418833    -0.183105759927     1.792483404278
    C           -1.314456998681     0.881976669080     0.418232907317
    C            0.214691738056     2.010296307772    -1.167309274974
    H           -1.942518342084     1.752252838818     0.392813829349
    O            1.190618206338     2.079137321890    -1.833515616321
    H           -0.495204377846     2.842247964078    -1.131808528119

  Mulliken Charges: (a.u.)
   Center  Symbol    Alpha    Beta     Spin     Total
       1     H     0.38311  0.38311  0.00000  0.23378
       2     O     4.18079  4.18079  0.00000 -0.36158
       3     C     2.85350  2.85350  0.00000  0.29300
       4     C     3.10110  3.10110  0.00000 -0.20219
       5     C     3.13438  3.13438  0.00000 -0.26875
       6     H     0.41359  0.41359  0.00000  0.17283
       7     C     3.06001  3.06001  0.00000 -0.12002
       8     H     0.41078  0.41078  0.00000  0.17843
       9     C     2.98058  2.98058  0.00000  0.03884
      10     H     0.41907  0.41907  0.00000  0.16187
      11     C     3.10388  3.10388  0.00000 -0.20775
      12     C     2.90907  2.90907  0.00000  0.18187
      13     H     0.42280  0.42280  0.00000  0.15440
      14     O     4.17189  4.17189  0.00000 -0.34379
      15     H     0.45547  0.45547  0.00000  0.08906

   Total alpha = 32.00000, Total beta = 32.00000, Total charge = -0.00000

*** Psi4 exiting successfully. Buy a developer a beer!
