                              Psi4 1.0.54 Driver

  ==> Input File <==

--------------------------------------------------------------------------
set {
	reference rhf
	basis cc-pvtz
}

set_num_threads( 4 )
memory 2 gb

molecule MOL {
0 1

H	 -3.623442	 0.627623	 -1.963124
O	 -3.150359	 0.034719	 -1.409181
C	 -1.906966	 0.584991	 -1.063359
C	 -1.175688	 -0.398187	 -0.171891
H	 -1.317743	 0.785084	 -1.955857
H	 -2.040925	 1.529903	 -0.540841
C	 0.196029	 0.106276	 0.266738
H	 -1.073584	 -1.337067	 -0.706961
H	 -1.794189	 -0.600441	 0.696709
C	 1.330220	 -0.826136	 -0.155230
H	 0.359542	 1.097229	 -0.145561
H	 0.212134	 0.218135	 1.348778
C	 2.719700	 -0.407669	 0.328325
H	 1.339388	 -0.911200	 -1.239363
H	 1.119001	 -1.821953	 0.224128
C	 3.241564	 0.893452	 -0.276737
H	 3.418299	 -1.204729	 0.093035
H	 2.711776	 -0.323368	 1.411960
H	 3.254204	 0.841071	 -1.360784
H	 2.634460	 1.745075	 0.005842
H	 4.254264	 1.092401	 0.054971

	symmetry c1
}
set optking {
	frozen_dihedral = ("
		8 4 7 10
	")
}

ee,wfn = optimize('scf', return_wfn=True)
oeprop( wfn, 'DIPOLE', 'QUADRUPOLE', 'MULLIKEN_CHARGES')
f=open( 'psi4out.xyz', 'w' )
f.write( "21  " )
f.write( str(ee) + "\n" )
f.write( MOL.save_string_xyz() )
f.close()
--------------------------------------------------------------------------

    Molecular point group: c1
  Charge       = 0
  Multiplicity = 1
  Basis Set: CC-PVTZ
  Basis Set:
  @DF-RHF Final Energy:  -310.32791549789346
    Total Energy =                       -310.3279154978935139
    Molecular point group: c1
  Basis Set: CC-PVTZ
  Basis Set:
  Basis Set: CC-PVTZ
  Basis Set:
  @DF-RHF Final Energy:  -310.32812293661914
    Total Energy =                       -310.3281229366191383
  Basis Set: CC-PVTZ
  Basis Set:
  Basis Set: CC-PVTZ
  Basis Set:
  @DF-RHF Final Energy:  -310.32817231728785
    Total Energy =                       -310.3281723172878515
  Basis Set: CC-PVTZ
  Basis Set:
  Basis Set: CC-PVTZ
  Basis Set:
  @DF-RHF Final Energy:  -310.32816425844999
    Total Energy =                       -310.3281642584499878
  Basis Set: CC-PVTZ
  Basis Set:
  Charge       = 0
  Multiplicity = 1
  Basis Set: CC-PVTZ
  Basis Set:

    Orbital Energies (a.u.)
    -----------------------

    Doubly Occupied:

       1A    -20.545593     2A    -11.265558     3A    -11.213250
       4A    -11.213105     5A    -11.211863     6A    -11.208622
       7A    -11.206629     8A     -1.363744     9A     -1.086202
      10A     -1.033250    11A     -0.955382    12A     -0.877009
      13A     -0.810047    14A     -0.779164    15A     -0.697767
      16A     -0.651624    17A     -0.631980    18A     -0.608957
      19A     -0.585233    20A     -0.572771    21A     -0.535239
      22A     -0.524432    23A     -0.512050    24A     -0.489597
      25A     -0.477345    26A     -0.458884    27A     -0.456028
      28A     -0.445590    29A     -0.434645

  @DF-RHF Final Energy:  -310.32817612190422

   => Energetics <=

    Nuclear Repulsion Energy =            314.3236749760133080
    One-Electron Energy =               -1043.6005782896172605
    Two-Electron Energy =                 418.9487271916997315
    DFT Exchange-Correlation Energy =       0.0000000000000000
    Empirical Dispersion Energy =           0.0000000000000000
    PCM Polarization Energy =               0.0000000000000000
    EFP Energy =                            0.0000000000000000
    Total Energy =                       -310.3281761219042210
    Molecular point group: c1
  Basis Set: CC-PVTZ
  Basis Set:

  -Total Gradient:
     Atom            X                  Y                   Z
    ------   -----------------  -----------------  -----------------
       1       -0.000020672431    -0.000006616799    -0.000012055261
       2       -0.000059061740    -0.000004846394    -0.000023597081
       3        0.000048436689     0.000003453259     0.000026383279
       4        0.000126199184     0.000368208641    -0.000541084545
       5       -0.000005336795     0.000000410085     0.000007999654
       6        0.000004452397     0.000001622437    -0.000004311619
       7       -0.000074075232    -0.000299059505     0.000453014929
       8       -0.000032579730    -0.000215528334     0.000353027515
       9       -0.000001437328     0.000005547118     0.000001731417
      10        0.000016562671     0.000138893691    -0.000261969234
      11       -0.000015500454     0.000003251907    -0.000008556151
      12       -0.000002049407    -0.000003056420     0.000006282087
      13        0.000011067819     0.000010652446    -0.000003696578
      14       -0.000001880791    -0.000002966065     0.000003221947
      15       -0.000005228689     0.000001109949    -0.000001879957
      16       -0.000000788727    -0.000007582825     0.000009900587
      17        0.000007351178     0.000003138254     0.000001698254
      18        0.000001843985     0.000000227777    -0.000005177134
      19        0.000000427078    -0.000000850458     0.000002035532
      20        0.000001486235     0.000000839342    -0.000000189792
      21        0.000000784089     0.000003151896    -0.000002777850

  **** Optimization is complete! (in 5 steps) ****
    Final optimized geometry and variables:
    Molecular point group: c1

    Geometry (in Angstrom), charge = 0, multiplicity = 1:

    H           -3.744807562367     0.622269272398    -1.568340850411
    O           -3.272800758682     0.020605651651    -1.022988633152
    C           -2.033452282595     0.566357386059    -0.659992018956
    C           -1.304051371057    -0.427797196894     0.221640196693
    H           -1.436034700594     0.780636374396    -1.544282897602
    H           -2.170673157978     1.503240446023    -0.123814683017
    C            0.083212619161     0.075762900789     0.664878069360
    H           -1.213399459178    -1.360573005960    -0.323483474602
    H           -1.928960303400    -0.639407473323     1.081187486444
    C            1.224698929265    -0.845795192432     0.235392962150
    H            0.251557386775     1.069434578789     0.262083120177
    H            0.107504086762     0.186413107361     1.744115715560
    C            2.614025488037    -0.412063002208     0.704533501711
    H            1.223063697350    -0.935032367440    -0.848875518023
    H            1.025845429272    -1.842236823299     0.619719255264
    C            3.121396248615     0.888200796731     0.085306871425
    H            3.317446182653    -1.205201779650     0.470344618043
    H            2.613449657828    -0.319126640047     1.787472503928
    H            3.124645995441     0.827832293946    -0.998434961269
    H            2.511645822817     1.738049497719     0.367338064116
    H            4.135761425560     1.096214867738     0.406056693454

  Mulliken Charges: (a.u.)
   Center  Symbol    Alpha    Beta     Spin     Total
       1     H     0.39739  0.39739  0.00000  0.20522
       2     O     4.19472  4.19472  0.00000 -0.38944
       3     C     2.96285  2.96285  0.00000  0.07429
       4     C     3.08727  3.08727  0.00000 -0.17455
       5     H     0.47519  0.47519  0.00000  0.04963
       6     H     0.47392  0.47392  0.00000  0.05216
       7     C     3.11088  3.11088  0.00000 -0.22176
       8     H     0.45129  0.45129  0.00000  0.09742
       9     H     0.44698  0.44698  0.00000  0.10604
      10     C     3.09365  3.09365  0.00000 -0.18730
      11     H     0.45489  0.45489  0.00000  0.09023
      12     H     0.44803  0.44803  0.00000  0.10394
      13     C     3.09031  3.09031  0.00000 -0.18062
      14     H     0.45360  0.45360  0.00000  0.09279
      15     H     0.44750  0.44750  0.00000  0.10499
      16     C     3.15308  3.15308  0.00000 -0.30616
      17     H     0.44847  0.44847  0.00000  0.10307
      18     H     0.45479  0.45479  0.00000  0.09042
      19     H     0.45492  0.45492  0.00000  0.09015
      20     H     0.45417  0.45417  0.00000  0.09166
      21     H     0.44609  0.44609  0.00000  0.10783

   Total alpha = 29.00000, Total beta = 29.00000, Total charge =  0.00000

*** Psi4 exiting successfully. Buy a developer a beer!
