  ==> Input File <==

--------------------------------------------------------------------------
set {
	reference rhf
	basis 6-31G*
}

set_num_threads( 4 )
memory 2 gb

molecule MOL {
0 1

O	 -2.439739	 -0.935931	 -0.423848
C	 -1.921153	 0.064240	 -0.045697
C	 -2.624470	 1.379923	 0.150949
O	 -0.632575	 0.154573	 0.251549
H	 -2.168117	 2.136577	 -0.476876
H	 -3.669540	 1.273223	 -0.098610
H	 -2.519365	 1.700893	 1.180846
C	 0.160891	 -1.019931	 0.106212
C	 1.589627	 -0.672828	 0.480843
H	 0.089836	 -1.367806	 -0.916050
H	 -0.238459	 -1.792301	 0.749618
C	 2.438303	 -0.182875	 -0.693931
H	 2.040805	 -1.565066	 0.910124
H	 1.574089	 0.078663	 1.265877
C	 3.877089	 0.131753	 -0.286618
H	 2.440991	 -0.940792	 -1.474735
H	 1.980090	 0.702031	 -1.123282
H	 4.457559	 0.477754	 -1.135953
H	 4.373207	 -0.746289	 0.117348
H	 3.908548	 0.907538	 0.473150

	symmetry c1
}
set optking {
	frozen_dihedral = ("
		12 9 8 10
	")
}

ee = optimize('scf')
oeprop('DIPOLE', 'QUADRUPOLE', 'MULLIKEN_CHARGES')
f=open( 'psi4out.xyz', 'w' )
f.write( "20  " )
f.write( str(ee) + "\n" )
f.write( MOL.save_string_xyz() )
f.close()
--------------------------------------------------------------------------

    Molecular point group: c1
  Charge       = 0
  Multiplicity = 1
  Basis Set: 6-31G*
  Basis Set:
  @DF-RHF Final Energy:  -383.94298358298727
    Total Energy =                       -383.9429835829871536
    Molecular point group: c1
  Basis Set: 6-31G*
  Basis Set:
  Basis Set: 6-31G*
  Basis Set:
  @DF-RHF Final Energy:  -383.94310616900844
    Total Energy =                       -383.9431061690086153
  Basis Set: 6-31G*
  Basis Set:
  Basis Set: 6-31G*
  Basis Set:
  @DF-RHF Final Energy:  -383.94313233859174
    Total Energy =                       -383.9431323385916812
  Basis Set: 6-31G*
  Basis Set:
  Basis Set: 6-31G*
  Basis Set:
  @DF-RHF Final Energy:  -383.94324897972450
    Total Energy =                       -383.9432489797244443
  Basis Set: 6-31G*
  Basis Set:
  Basis Set: 6-31G*
  Basis Set:
  @DF-RHF Final Energy:  -383.94330210344367
    Total Energy =                       -383.9433021034433295
  Basis Set: 6-31G*
  Basis Set:
  Charge       = 0
  Multiplicity = 1
  Basis Set: 6-31G*
  Basis Set:

    Orbital Energies (a.u.)
    -----------------------

    Doubly Occupied:

       1A    -20.600514     2A    -20.543090     3A    -11.373437
       4A    -11.282469     5A    -11.232774     6A    -11.225064
       7A    -11.222905     8A    -11.214300     9A     -1.466551
      10A     -1.360742    11A     -1.086100    12A     -1.028219
      13A     -0.980583    14A     -0.880850    15A     -0.808316
      16A     -0.778966    17A     -0.688643    18A     -0.681498
      19A     -0.666297    20A     -0.630920    21A     -0.603430
      22A     -0.592328    23A     -0.571358    24A     -0.552034
      25A     -0.543770    26A     -0.527725    27A     -0.512928
      28A     -0.481762    29A     -0.478732    30A     -0.474654
      31A     -0.447849    32A     -0.437224

  @DF-RHF Final Energy:  -383.94330302932690

   => Energetics <=

    Nuclear Repulsion Energy =            383.2100733155390344
    One-Electron Energy =               -1282.3546866320093613
    Two-Electron Energy =                 515.2013102871430874
    DFT Exchange-Correlation Energy =       0.0000000000000000
    Empirical Dispersion Energy =           0.0000000000000000
    PCM Polarization Energy =               0.0000000000000000
    EFP Energy =                            0.0000000000000000
    Total Energy =                       -383.9433030293272395
    Molecular point group: c1
  Basis Set: 6-31G*
  Basis Set:

  -Total Gradient:
     Atom            X                  Y                   Z
    ------   -----------------  -----------------  -----------------
       1        0.000079504514     0.000011299654     0.000007667513
       2        0.000025214584    -0.000000821812    -0.000159309314
       3       -0.000006785671    -0.000015602051     0.000083719280
       4       -0.000015134699     0.000106975323    -0.000087762944
       5        0.000007421413    -0.000030154004    -0.000002102110
       6       -0.000001649227    -0.000002689256     0.000009116588
       7       -0.000010273087     0.000028999658     0.000008402326
       8        0.001239621362    -0.006991506602     0.001861404081
       9       -0.001574171913     0.005607932180     0.000564800421
      10       -0.000741142377     0.004529571033    -0.001410626041
      11        0.000118851928    -0.000085925988    -0.000086883550
      12        0.000955814971    -0.003100533679    -0.000789726266
      13       -0.000064432114    -0.000038457192     0.000024776916
      14       -0.000062950275     0.000033000385    -0.000034162579
      15        0.000010465603     0.000015450630    -0.000016264391
      16       -0.000034945738    -0.000028584211    -0.000017938651
      17        0.000057941866    -0.000037214785     0.000041441301
      18        0.000008122466     0.000002555635     0.000004672202
      19        0.000004627231    -0.000002760292    -0.000007855980
      20        0.000003899165    -0.000001534625     0.000006631197

  **** Optimization is complete! (in 6 steps) ****
    Final optimized geometry and variables:
    Molecular point group: c1

    Geometry (in Angstrom), charge = 0, multiplicity = 1:

    O           -2.481328721852    -0.781306677592    -0.397039530404
    C           -1.950193706673     0.205485252719    -0.000287668329
    C           -2.632817685027     1.532434296079     0.195608124847
    O           -0.668480849093     0.266677361310     0.328189183302
    H           -2.148795561138     2.286494214949    -0.414304509108
    H           -3.674111193136     1.448210656649    -0.077361034073
    H           -2.543868718656     1.840845494810     1.230888163998
    C            0.105302853823    -0.927789939486     0.191461694886
    C            1.543009029485    -0.582154215097     0.554563160973
    H            0.018739886897    -1.252103544003    -0.836482072937
    H           -0.312289969403    -1.687675629355     0.836276684095
    C            2.363856438865    -0.062347401357    -0.627523615478
    H            2.021051389303    -1.478616658719     0.943749194233
    H            1.532599952551     0.140785702017     1.363852519654
    C            3.792803898426     0.310605726759    -0.236844840938
    H            2.387039235576    -0.823183244486    -1.404279619134
    H            1.867472069841     0.803749959061    -1.058121647916
    H            4.353967053405     0.665767845692    -1.095267731328
    H            4.323147927125    -0.543802198402     0.174482411891
    H            3.801475963747     1.096634795602     0.512722376057

  Mulliken Charges: (a.u.)
   Center  Symbol    Alpha    Beta     Spin     Total
       1     O     4.28419  4.28419  0.00000 -0.56838
       2     C     2.61966  2.61966  0.00000  0.76068
       3     C     3.28147  3.28147  0.00000 -0.56293
       4     O     4.31029  4.31029  0.00000 -0.62058
       5     H     0.40097  0.40097  0.00000  0.19806
       6     H     0.39707  0.39707  0.00000  0.20587
       7     H     0.40075  0.40075  0.00000  0.19850
       8     C     3.00326  3.00326  0.00000 -0.00651
       9     C     3.16510  3.16510  0.00000 -0.33019
      10     H     0.40870  0.40870  0.00000  0.18259
      11     H     0.40781  0.40781  0.00000  0.18439
      12     C     3.15638  3.15638  0.00000 -0.31276
      13     H     0.41848  0.41848  0.00000  0.16304
      14     H     0.40937  0.40937  0.00000  0.18126
      15     C     3.24054  3.24054  0.00000 -0.48108
      16     H     0.42127  0.42127  0.00000  0.15746
      17     H     0.41624  0.41624  0.00000  0.16752
      18     H     0.41728  0.41728  0.00000  0.16545
      19     H     0.42124  0.42124  0.00000  0.15753
      20     H     0.41995  0.41995  0.00000  0.16010

   Total alpha = 32.00000, Total beta = 32.00000, Total charge = -0.00000
