  ==> Input File <==

--------------------------------------------------------------------------
set {
	reference rhf
	basis 6-31G*
}

set_num_threads( 4 )
memory 2 gb

molecule MOL {
0 1

H	 -3.650283	 0.221984	 0.000000
C	 -2.577024	 0.154109	 0.000000
C	 -1.960329	 -1.089307	 0.000000
C	 -1.811733	 1.307557	 0.000000
H	 -2.554473	 -1.985285	 0.000000
C	 -0.581547	 -1.175855	 0.000000
H	 -2.287118	 2.271701	 0.000000
C	 -0.428719	 1.219221	 0.000000
H	 -0.090826	 -2.129898	 0.000000
C	 0.198341	 -0.021559	 0.000000
H	 0.149947	 2.124040	 0.000000
C	 1.691355	 -0.173192	 0.000000
C	 2.526497	 0.760914	 0.850604
O	 2.216121	 -1.019321	 -0.661861
H	 2.374020	 1.794122	 0.555625
H	 3.567847	 0.502415	 0.723097
H	 2.260127	 0.672701	 1.898957

	symmetry c1
}
set optking {
	frozen_dihedral = ("
		13 12 10 8
	")
}

ee = optimize('scf')
oeprop('DIPOLE', 'QUADRUPOLE', 'MULLIKEN_CHARGES')
f=open( 'psi4out.xyz', 'w' )
f.write( "17  " )
f.write( str(ee) + "\n" )
f.write( MOL.save_string_xyz() )
f.close()
--------------------------------------------------------------------------

    Molecular point group: c1
  Charge       = 0
  Multiplicity = 1
  Basis Set: 6-31G*
  Basis Set:
  @DF-RHF Final Energy:  -382.47188908891513
    Total Energy =                       -382.4718890889151908
    Molecular point group: c1
  Basis Set: 6-31G*
  Basis Set:
  Basis Set: 6-31G*
  Basis Set:
  @DF-RHF Final Energy:  -382.47090624226985
    Total Energy =                       -382.4709062422698480
  Basis Set: 6-31G*
  Basis Set:
  Basis Set: 6-31G*
  Basis Set:
  @DF-RHF Final Energy:  -382.47252686000570
    Total Energy =                       -382.4725268600062691
  Basis Set: 6-31G*
  Basis Set:
  Basis Set: 6-31G*
  Basis Set:
  @DF-RHF Final Energy:  -382.47261292603037
    Total Energy =                       -382.4726129260302514
  Basis Set: 6-31G*
  Basis Set:
  Basis Set: 6-31G*
  Basis Set:
  @DF-RHF Final Energy:  -382.47261507105952
    Total Energy =                       -382.4726150710591810
  Basis Set: 6-31G*
  Basis Set:
  Charge       = 0
  Multiplicity = 1
  Basis Set: 6-31G*
  Basis Set:

    Orbital Energies (a.u.)
    -----------------------

    Doubly Occupied:

       1A    -20.552305     2A    -11.332174     3A    -11.247843
       4A    -11.244228     5A    -11.244119     6A    -11.241094
       7A    -11.240620     8A    -11.238506     9A    -11.230259
      10A     -1.398231    11A     -1.165581    12A     -1.049648
      13A     -1.026161    14A     -0.997076    15A     -0.860431
      16A     -0.835787    17A     -0.760295    18A     -0.706438
      19A     -0.657778    20A     -0.645848    21A     -0.624067
      22A     -0.614338    23A     -0.599453    24A     -0.590537
      25A     -0.556802    26A     -0.526253    27A     -0.514111
      28A     -0.501363    29A     -0.490712    30A     -0.410735
      31A     -0.344642    32A     -0.341413

  @DF-RHF Final Energy:  -382.47261578936462

   => Energetics <=

    Nuclear Repulsion Energy =            403.2716908758386012
    One-Electron Energy =               -1317.9109194544341790
    Two-Electron Energy =                 532.1666127892308396
    DFT Exchange-Correlation Energy =       0.0000000000000000
    Empirical Dispersion Energy =           0.0000000000000000
    PCM Polarization Energy =               0.0000000000000000
    EFP Energy =                            0.0000000000000000
    Total Energy =                       -382.4726157893646814
    Molecular point group: c1
  Basis Set: 6-31G*
  Basis Set:

  -Total Gradient:
     Atom            X                  Y                   Z
    ------   -----------------  -----------------  -----------------
       1       -0.000002461316    -0.000002932045    -0.000010455258
       2        0.000009874734     0.000009457571     0.000013386657
       3        0.000019685445    -0.000004650940     0.000008212826
       4       -0.000019242565    -0.000000788138     0.000001670126
       5       -0.000000658886     0.000003239750    -0.000004628271
       6       -0.000024874043    -0.000006431840    -0.000007947791
       7        0.000001733896    -0.000004167530     0.000005051554
       8       -0.000085528708    -0.000052481236    -0.003738440946
       9        0.000005515486     0.000006890763     0.000004542146
      10        0.000138437656    -0.000902651816     0.006779795863
      11       -0.000010928205    -0.000005945110    -0.000015234684
      12        0.000141016994     0.003028255347    -0.005583690489
      13       -0.000137562174    -0.002028672562     0.002448199157
      14       -0.000024633188     0.000025435447     0.000017272935
      15       -0.000012647559    -0.000022972851     0.000026757394
      16       -0.000009565935    -0.000014349036     0.000014696507
      17        0.000011838367    -0.000027235771     0.000040812276

  **** Optimization is complete! (in 6 steps) ****
    Final optimized geometry and variables:
    Molecular point group: c1

    Geometry (in Angstrom), charge = 0, multiplicity = 1:

    H           -3.646467667067     0.236831699421    -0.047646346128
    C           -2.573415898350     0.167438230991    -0.035985405438
    C           -1.958311650226    -1.076073171454    -0.048077199455
    C           -1.805719144726     1.319407695129    -0.016001721781
    H           -2.553310580627    -1.971239597530    -0.070166209242
    C           -0.578699742710    -1.164850758346    -0.044991507057
    H           -2.279385496761     2.284502606515    -0.021274312932
    C           -0.423044030265     1.229398006594     0.009642893132
    H           -0.092490413466    -2.121472032123    -0.080815553327
    C            0.199854248013    -0.012577565653     0.005647856507
    H            0.160638628917     2.131794797318     0.026073858620
    C            1.693937661836    -0.158454635292    -0.035672508895
    C            2.532806483145     0.796869657997     0.786204984518
    O            2.197689180638    -1.056413882109    -0.641147519667
    H            2.423725628369     1.820882533189     0.444204627032
    H            3.571504246239     0.507995400397     0.709706431653
    H            2.216598375981     0.765466292967     1.824022927353

  Mulliken Charges: (a.u.)
   Center  Symbol    Alpha    Beta     Spin     Total
       1     H     0.39579  0.39579  0.00000  0.20842
       2     C     3.09419  3.09419  0.00000 -0.18837
       3     C     3.10290  3.10290  0.00000 -0.20580
       4     C     3.10281  3.10281  0.00000 -0.20563
       5     H     0.39539  0.39539  0.00000  0.20922
       6     C     3.09215  3.09215  0.00000 -0.18430
       7     H     0.39641  0.39641  0.00000  0.20718
       8     C     3.10336  3.10336  0.00000 -0.20673
       9     H     0.38153  0.38153  0.00000  0.23695
      10     C     3.04434  3.04434  0.00000 -0.08867
      11     H     0.39520  0.39520  0.00000  0.20961
      12     C     2.73841  2.73841  0.00000  0.52318
      13     C     3.28914  3.28914  0.00000 -0.57828
      14     O     4.26099  4.26099  0.00000 -0.52199
      15     H     0.40860  0.40860  0.00000  0.18279
      16     H     0.39537  0.39537  0.00000  0.20925
      17     H     0.40342  0.40342  0.00000  0.19316

   Total alpha = 32.00000, Total beta = 32.00000, Total charge = -0.00000
