  ==> Input File <==

--------------------------------------------------------------------------
set {
	reference rhf
	basis 6-31G*
}

set_num_threads( 4 )
memory 2 gb

molecule MOL {
0 1

H	 -3.135461	 -1.215070	 0.001379
O	 -2.310168	 -0.871793	 -0.309793
C	 -2.026376	 0.340750	 0.341611
C	 -0.673256	 0.843270	 -0.132153
H	 -2.792215	 1.080697	 0.115987
H	 -2.013526	 0.200402	 1.421792
C	 0.486613	 -0.083066	 0.235839
H	 -0.715586	 0.970948	 -1.210718
H	 -0.508072	 1.829858	 0.297090
C	 1.084097	 0.226881	 1.609433
H	 1.258070	 -0.005809	 -0.523371
H	 0.139336	 -1.115545	 0.220783
C	 2.239372	 -0.702591	 1.979693
H	 1.432099	 1.257585	 1.625593
H	 0.307082	 0.155694	 2.368132
H	 3.047719	 -0.628219	 1.257936
H	 2.644524	 -0.458118	 2.956949
H	 1.915540	 -1.739393	 2.005902

	symmetry c1
}
set optking {
	frozen_dihedral = ("
		10 7 4 8
	")
}

ee = optimize('scf')
oeprop('DIPOLE', 'QUADRUPOLE', 'MULLIKEN_CHARGES')
f=open( 'psi4out.xyz', 'w' )
f.write( "18  " )
f.write( str(ee) + "\n" )
f.write( MOL.save_string_xyz() )
f.close()
--------------------------------------------------------------------------

    Molecular point group: c1
  Charge       = 0
  Multiplicity = 1
  Basis Set: 6-31G*
  Basis Set:
  @DF-RHF Final Energy:  -271.17698245347060
    Total Energy =                       -271.1769824534706004
    Molecular point group: c1
  Basis Set: 6-31G*
  Basis Set:
  Basis Set: 6-31G*
  Basis Set:
  @DF-RHF Final Energy:  -271.17720414425253
    Total Energy =                       -271.1772041442521868
  Basis Set: 6-31G*
  Basis Set:
  Basis Set: 6-31G*
  Basis Set:
  @DF-RHF Final Energy:  -271.17726595518610
    Total Energy =                       -271.1772659551857600
  Basis Set: 6-31G*
  Basis Set:
  Basis Set: 6-31G*
  Basis Set:
  @DF-RHF Final Energy:  -271.17726714593311
    Total Energy =                       -271.1772671459328876
  Basis Set: 6-31G*
  Basis Set:
  Basis Set: 6-31G*
  Basis Set:
  @DF-RHF Final Energy:  -271.17726859685831
    Total Energy =                       -271.1772685968583119
  Basis Set: 6-31G*
  Basis Set:
  Charge       = 0
  Multiplicity = 1
  Basis Set: 6-31G*
  Basis Set:

    Orbital Energies (a.u.)
    -----------------------

    Doubly Occupied:

       1A    -20.553143     2A    -11.268108     3A    -11.212232
       4A    -11.211922     5A    -11.206445     6A    -11.205549
       7A     -1.359852     8A     -1.074528     9A     -1.007581
      10A     -0.913229    11A     -0.826610    12A     -0.777129
      13A     -0.702660    14A     -0.650127    15A     -0.618805
      16A     -0.582304    17A     -0.566421    18A     -0.557238
      19A     -0.529181    20A     -0.504386    21A     -0.485432
      22A     -0.468487    23A     -0.454513    24A     -0.449323
      25A     -0.428197

  @DF-RHF Final Energy:  -271.17726872279684

   => Energetics <=

    Nuclear Repulsion Energy =            251.3356654818986442
    One-Electron Energy =                -865.7990653079287995
    Two-Electron Energy =                 343.2861311032333447
    DFT Exchange-Correlation Energy =       0.0000000000000000
    Empirical Dispersion Energy =           0.0000000000000000
    PCM Polarization Energy =               0.0000000000000000
    EFP Energy =                            0.0000000000000000
    Total Energy =                       -271.1772687227967822
    Molecular point group: c1
  Basis Set: 6-31G*
  Basis Set:

  -Total Gradient:
     Atom            X                  Y                   Z
    ------   -----------------  -----------------  -----------------
       1        0.000001142151     0.000000870446     0.000000104229
       2        0.000008919563    -0.000003358239     0.000007564031
       3       -0.000003931644     0.000014949593    -0.000021665205
       4       -0.001563801791    -0.002278948703    -0.000570899429
       5       -0.000008003615     0.000001672421     0.000004394354
       6        0.000006474005    -0.000000670159    -0.000004321815
       7       -0.001406747603    -0.001276016143     0.001247811580
       8        0.001673836149     0.002249673710     0.000189609546
       9       -0.000004917789    -0.000002455207     0.000006279445
      10        0.001300153907     0.001315919701    -0.000876721935
      11       -0.000003476365    -0.000002102347     0.000005275818
      12       -0.000003054231    -0.000016626819     0.000007971469
      13        0.000002277740     0.000002315344     0.000004971451
      14        0.000003101996     0.000000593901     0.000002378210
      15       -0.000000652259    -0.000003038990    -0.000007150870
      16       -0.000003810746    -0.000000837990    -0.000000127068
      17        0.000004039528    -0.000002471025     0.000001924649
      18       -0.000001548993     0.000000530507     0.000002601540

  **** Optimization is complete! (in 6 steps) ****
    Final optimized geometry and variables:
    Molecular point group: c1

    Geometry (in Angstrom), charge = 0, multiplicity = 1:

    H           -2.896846907471    -1.145757265245    -0.611384027676
    O           -2.077541913695    -0.797952304192    -0.933225922603
    C           -1.781835516184     0.405800158016    -0.270540857733
    C           -0.429604049870     0.904467441443    -0.752266835321
    H           -2.543928355158     1.153074164266    -0.483916110230
    H           -1.766907041985     0.253410156109     0.807557975700
    C            0.747977506589    -0.007007396313    -0.373647137937
    H           -0.473437785320     1.031126867162    -1.829525765127
    H           -0.269030374776     1.899239174886    -0.340137819577
    C            1.348534836151     0.301772853757     1.000572783317
    H            1.532511395814     0.102422936954    -1.118828523753
    H            0.429240442324    -1.043386294657    -0.420009413377
    C            2.492986803114    -0.640077397115     1.372811426666
    H            1.708424102842     1.328476041985     1.009489139661
    H            0.576352281471     0.243770441950     1.765378410145
    H            3.297372980178    -0.585001531541     0.644569838792
    H            2.909011702909    -0.391431597128     2.344445221034
    H            2.154187348234    -1.671422695962     1.411202939772

  Mulliken Charges: (a.u.)
   Center  Symbol    Alpha    Beta     Spin     Total
       1     H     0.28074  0.28074  0.00000  0.43852
       2     O     4.36940  4.36940  0.00000 -0.73880
       3     C     2.99820  2.99820  0.00000  0.00361
       4     C     3.16242  3.16242  0.00000 -0.32484
       5     H     0.42916  0.42916  0.00000  0.14169
       6     H     0.43207  0.43207  0.00000  0.13585
       7     C     3.15766  3.15766  0.00000 -0.31532
       8     H     0.41215  0.41215  0.00000  0.17570
       9     H     0.42367  0.42367  0.00000  0.15266
      10     C     3.15312  3.15312  0.00000 -0.30624
      11     H     0.42212  0.42212  0.00000  0.15577
      12     H     0.40733  0.40733  0.00000  0.18533
      13     C     3.23897  3.23897  0.00000 -0.47795
      14     H     0.42429  0.42429  0.00000  0.15142
      15     H     0.42536  0.42536  0.00000  0.14929
      16     H     0.42176  0.42176  0.00000  0.15648
      17     H     0.42055  0.42055  0.00000  0.15890
      18     H     0.42103  0.42103  0.00000  0.15794

   Total alpha = 25.00000, Total beta = 25.00000, Total charge = -0.00000
