  ==> Input File <==

--------------------------------------------------------------------------
set {
	reference rhf
	basis 6-31G*
}

set_num_threads( 4 )
memory 2 gb

molecule MOL {
0 1

H	 -3.420663	 1.227371	 -1.044276
O	 -3.452007	 0.283848	 -0.965577
C	 -3.181085	 -0.079926	 0.364119
C	 -1.765924	 0.277073	 0.805136
H	 -3.327791	 -1.152017	 0.410903
H	 -3.905698	 0.375695	 1.036898
C	 -0.677594	 -0.417312	 -0.014550
H	 -1.637766	 1.358238	 0.744969
H	 -1.659588	 0.017670	 1.857098
C	 0.738335	 -0.034840	 0.421385
H	 -0.814977	 -0.178223	 -1.064632
H	 -0.802730	 -1.495410	 0.071702
C	 1.822265	 -0.738362	 -0.399735
H	 0.853533	 1.043532	 0.342250
H	 0.871597	 -0.279636	 1.474438
C	 1.402267	 -2.087387	 -0.994621
H	 2.707220	 -0.879431	 0.218852
H	 2.123547	 -0.081628	 -1.213213
C	 1.123816	 -3.179510	 0.039854
H	 2.191051	 -2.430867	 -1.659551
H	 0.521134	 -1.946989	 -1.617595
H	 1.984121	 -3.333156	 0.685924
H	 0.904607	 -4.124850	 -0.447093
H	 0.275683	 -2.935088	 0.670799

	symmetry c1
}
set optking {
	frozen_dihedral = ("
		17 13 10 7
	")
}

ee = optimize('scf')
oeprop('DIPOLE', 'QUADRUPOLE', 'MULLIKEN_CHARGES')
f=open( 'psi4out.xyz', 'w' )
f.write( "24  " )
f.write( str(ee) + "\n" )
f.write( MOL.save_string_xyz() )
f.close()
--------------------------------------------------------------------------

    Molecular point group: c1
  Charge       = 0
  Multiplicity = 1
  Basis Set: 6-31G*
  Basis Set:
  @DF-RHF Final Energy:  -349.23668704576204
    Total Energy =                       -349.2366870457625510
    Molecular point group: c1
  Basis Set: 6-31G*
  Basis Set:
  Basis Set: 6-31G*
  Basis Set:
  @DF-RHF Final Energy:  -349.24024150643032
    Total Energy =                       -349.2402415064302090
  Basis Set: 6-31G*
  Basis Set:
  Basis Set: 6-31G*
  Basis Set:
  @DF-RHF Final Energy:  -349.24097858482844
    Total Energy =                       -349.2409785848285537
  Basis Set: 6-31G*
  Basis Set:
  Basis Set: 6-31G*
  Basis Set:
  @DF-RHF Final Energy:  -349.24105193910765
    Total Energy =                       -349.2410519391078765
  Basis Set: 6-31G*
  Basis Set:
  Basis Set: 6-31G*
  Basis Set:
  @DF-RHF Final Energy:  -349.24107443645045
    Total Energy =                       -349.2410744364503898
  Basis Set: 6-31G*
  Basis Set:
  Basis Set: 6-31G*
  Basis Set:
  @DF-RHF Final Energy:  -349.24108969559899
    Total Energy =                       -349.2410896955991007
  Basis Set: 6-31G*
  Basis Set:
  Basis Set: 6-31G*
  Basis Set:
  @DF-RHF Final Energy:  -349.24109083012576
    Total Energy =                       -349.2410908301256995
  Basis Set: 6-31G*
  Basis Set:
  Charge       = 0
  Multiplicity = 1
  Basis Set: 6-31G*
  Basis Set:

    Orbital Energies (a.u.)
    -----------------------

    Doubly Occupied:

       1A    -20.553706     2A    -11.267852     3A    -11.217617
       4A    -11.213358     5A    -11.212437     6A    -11.211736
       7A    -11.210991     8A    -11.206604     9A     -1.360308
      10A     -1.087341    11A     -1.045597    12A     -0.982766
      13A     -0.917617    14A     -0.851953    15A     -0.810941
      16A     -0.759899    17A     -0.680199    18A     -0.653435
      19A     -0.620696    20A     -0.619362    21A     -0.610607
      22A     -0.576227    23A     -0.552551    24A     -0.543405
      25A     -0.519802    26A     -0.511180    27A     -0.493270
      28A     -0.479527    29A     -0.468678    30A     -0.459484
      31A     -0.447576    32A     -0.442647    33A     -0.420805

  @DF-RHF Final Energy:  -349.24109084498895

   => Energetics <=

    Nuclear Repulsion Energy =            393.6566122942368224
    One-Electron Energy =               -1253.7750615202269273
    Two-Electron Energy =                 510.8773583810010450
    DFT Exchange-Correlation Energy =       0.0000000000000000
    Empirical Dispersion Energy =           0.0000000000000000
    PCM Polarization Energy =               0.0000000000000000
    EFP Energy =                            0.0000000000000000
    Total Energy =                       -349.2410908449891167
    Molecular point group: c1
  Basis Set: 6-31G*
  Basis Set:

  -Total Gradient:
     Atom            X                  Y                   Z
    ------   -----------------  -----------------  -----------------
       1        0.000001114182    -0.000004278557     0.000003000779
       2        0.000012629939    -0.000013555823    -0.000009694646
       3       -0.000006870228     0.000032616127     0.000005433249
       4       -0.000005819993    -0.000014071092     0.000006346765
       5        0.000000431585     0.000001661876     0.000000561850
       6       -0.000002778521    -0.000000165670     0.000001801388
       7       -0.000084899383    -0.004428549815     0.003512673733
       8       -0.000007881795    -0.000004123823     0.000001347185
       9        0.000004589956    -0.000004778084     0.000001287529
      10       -0.000451439447     0.004956769428    -0.004686115829
      11       -0.000004344273     0.000002552573    -0.000012416559
      12        0.000008431355    -0.000016756098     0.000010014554
      13        0.003192040264     0.006314205180    -0.000670705705
      14       -0.000013459928    -0.000000147269     0.000001312873
      15        0.000004550241    -0.000001481791    -0.000000825653
      16        0.000004731603     0.000001017506     0.000006753387
      17       -0.002649468637    -0.006806717461     0.001834997409
      18        0.000000603690    -0.000005539195     0.000001858565
      19        0.000008539588    -0.000010081633    -0.000007655486
      20       -0.000000148410    -0.000003480766    -0.000001594394
      21       -0.000004361052    -0.000000697972    -0.000001499627
      22        0.000003187344    -0.000000567150     0.000000125797
      23       -0.000000184302     0.000000414113    -0.000000769443
      24       -0.000009193778     0.000005755397     0.000003762276

  **** Optimization is complete! (in 8 steps) ****
    Final optimized geometry and variables:
    Molecular point group: c1

    Geometry (in Angstrom), charge = 0, multiplicity = 1:

    H           -2.874687454368     2.069671894430    -0.942752983073
    O           -2.958463077456     1.131486986189    -0.842023374709
    C           -2.688622883024     0.782366974042     0.491821949871
    C           -1.249806373127     1.070076873243     0.906117207595
    H           -2.893569493718    -0.278620332812     0.564487260019
    H           -3.377263707770     1.291672010154     1.163845359562
    C           -0.212910759385     0.302808861517     0.083353698344
    H           -1.064807755405     2.141454305681     0.825193189299
    H           -1.141939266613     0.823284132306     1.961114864010
    C            1.220700571376     0.619246511397     0.521298339076
    H           -0.349761593900     0.542884383399    -0.966910029284
    H           -0.409134245515    -0.760151578796     0.181444460317
    C            2.358218606411    -0.043348041106    -0.290426555089
    H            1.369949416500     1.696068910689     0.504817011381
    H            1.318096415602     0.328000708352     1.565508634856
    C            2.059833070363    -1.420815468842    -0.904287461693
    H            3.205265457705    -0.194104498108     0.374703841871
    H            2.675504816746     0.627050969544    -1.083641279022
    C            1.933700756418    -2.543915000946     0.127522444658
    H            2.875322204885    -1.668184907178    -1.579788620369
    H            1.166017026350    -1.381111746063    -1.519011680327
    H            2.852850632366    -2.648608491959     0.697785673837
    H            1.735967283746    -3.496080101209    -0.355406399478
    H            1.130539938405    -2.362727947067     0.834489635312

  Mulliken Charges: (a.u.)
   Center  Symbol    Alpha    Beta     Spin     Total
       1     H     0.28337  0.28337  0.00000  0.43327
       2     O     4.36831  4.36831  0.00000 -0.73661
       3     C     2.99603  2.99603  0.00000  0.00795
       4     C     3.16901  3.16901  0.00000 -0.33802
       5     H     0.41647  0.41647  0.00000  0.16706
       6     H     0.42809  0.42809  0.00000  0.14381
       7     C     3.15623  3.15623  0.00000 -0.31246
       8     H     0.42815  0.42815  0.00000  0.14370
       9     H     0.42250  0.42250  0.00000  0.15500
      10     C     3.15521  3.15521  0.00000 -0.31043
      11     H     0.41242  0.41242  0.00000  0.17516
      12     H     0.42000  0.42000  0.00000  0.16001
      13     C     3.15362  3.15362  0.00000 -0.30725
      14     H     0.42204  0.42204  0.00000  0.15593
      15     H     0.42429  0.42429  0.00000  0.15142
      16     C     3.15727  3.15727  0.00000 -0.31454
      17     H     0.42282  0.42282  0.00000  0.15436
      18     H     0.42086  0.42086  0.00000  0.15828
      19     C     3.24082  3.24082  0.00000 -0.48164
      20     H     0.42119  0.42119  0.00000  0.15763
      21     H     0.41815  0.41815  0.00000  0.16370
      22     H     0.42263  0.42263  0.00000  0.15473
      23     H     0.41920  0.41920  0.00000  0.16160
      24     H     0.42132  0.42132  0.00000  0.15736

   Total alpha = 33.00000, Total beta = 33.00000, Total charge =  0.00000
