                              Psi4 1.0.54 Driver

  ==> Input File <==

--------------------------------------------------------------------------
set {
	reference rhf
	basis cc-pvtz
}

set_num_threads( 4 )
memory 2 gb

molecule MOL {
0 1

O	 -1.278239	 1.034789	 -0.784693
C	 -1.204115	 0.062668	 -0.112312
C	 -2.386398	 -0.667698	 0.460323
O	 -0.068058	 -0.518372	 0.226882
H	 -2.382952	 -1.693172	 0.114333
H	 -3.296656	 -0.175702	 0.158400
H	 -2.312537	 -0.685191	 1.540100
C	 1.169086	 0.037484	 -0.230612
C	 1.696248	 -0.913090	 -1.286842
C	 2.120284	 0.211345	 0.939688
H	 0.957326	 1.000105	 -0.670620
H	 0.987789	 -1.013455	 -2.099099
H	 2.629304	 -0.538673	 -1.690489
H	 1.874605	 -1.895102	 -0.865207
H	 3.061987	 0.620768	 0.593178
H	 1.706804	 0.889357	 1.673161
H	 2.316962	 -0.743239	 1.414420

	symmetry c1
}
set optking {
	frozen_dihedral = ("
		11 8 4 2
	")
}

ee,wfn = optimize('scf', return_wfn=True)
oeprop( wfn, 'DIPOLE', 'QUADRUPOLE', 'MULLIKEN_CHARGES')
f=open( 'psi4out.xyz', 'w' )
f.write( "17  " )
f.write( str(ee) + "\n" )
f.write( MOL.save_string_xyz() )
f.close()
--------------------------------------------------------------------------

    Molecular point group: c1
  Charge       = 0
  Multiplicity = 1
  Basis Set: CC-PVTZ
  Basis Set:
  @DF-RHF Final Energy:  -345.04196313149185
    Total Energy =                       -345.0419631314914000
    Molecular point group: c1
  Basis Set: CC-PVTZ
  Basis Set:
  Basis Set: CC-PVTZ
  Basis Set:
  @DF-RHF Final Energy:  -345.04243272671926
    Total Energy =                       -345.0424327267194258
  Basis Set: CC-PVTZ
  Basis Set:
  Basis Set: CC-PVTZ
  Basis Set:
  @DF-RHF Final Energy:  -345.04244220495883
    Total Energy =                       -345.0424422049586610
  Basis Set: CC-PVTZ
  Basis Set:
  Basis Set: CC-PVTZ
  Basis Set:
  @DF-RHF Final Energy:  -345.04252764286406
    Total Energy =                       -345.0425276428643429
  Basis Set: CC-PVTZ
  Basis Set:
  Basis Set: CC-PVTZ
  Basis Set:
  @DF-RHF Final Energy:  -345.04257567036200
    Total Energy =                       -345.0425756703618276
  Basis Set: CC-PVTZ
  Basis Set:
  Charge       = 0
  Multiplicity = 1
  Basis Set: CC-PVTZ
  Basis Set:

    Orbital Energies (a.u.)
    -----------------------

    Doubly Occupied:

       1A    -20.590541     2A    -20.531023     3A    -11.367217
       4A    -11.286803     5A    -11.230279     6A    -11.217825
       7A    -11.216873     8A     -1.467307     9A     -1.364598
      10A     -1.080042    11A     -1.005532    12A     -0.949543
      13A     -0.849695    14A     -0.770099    15A     -0.694979
      16A     -0.667426    17A     -0.664050    18A     -0.614084
      19A     -0.587327    20A     -0.579238    21A     -0.567995
      22A     -0.551887    23A     -0.535441    24A     -0.524534
      25A     -0.504543    26A     -0.482972    27A     -0.447252
      28A     -0.440278

  @DF-RHF Final Energy:  -345.04257730028746

   => Energetics <=

    Nuclear Repulsion Energy =            322.3934681581962423
    One-Electron Energy =               -1109.2933261860757739
    Two-Electron Energy =                 441.8572807275920695
    DFT Exchange-Correlation Energy =       0.0000000000000000
    Empirical Dispersion Energy =           0.0000000000000000
    PCM Polarization Energy =               0.0000000000000000
    EFP Energy =                            0.0000000000000000
    Total Energy =                       -345.0425773002874621
    Molecular point group: c1
  Basis Set: CC-PVTZ
  Basis Set:

  -Total Gradient:
     Atom            X                  Y                   Z
    ------   -----------------  -----------------  -----------------
       1        0.000032397744     0.000045261070    -0.000041837986
       2        0.000106688611     0.000367255117     0.000729401142
       3       -0.000013274895    -0.000004836938    -0.000023707172
       4       -0.000109611082    -0.000671908493    -0.001077641009
       5       -0.000004114901     0.000004979188     0.000005559742
       6        0.000005332909    -0.000005517687    -0.000001755579
       7        0.000003610508     0.000001494686    -0.000001476166
       8        0.000167299720     0.000638650683     0.001171090311
       9        0.000022560023    -0.000026067495    -0.000024306052
      10       -0.000063624348     0.000011186623     0.000033194684
      11       -0.000154809827    -0.000332091297    -0.000740646310
      12       -0.000008758807    -0.000008188444    -0.000003841202
      13        0.000039718327    -0.000003738562    -0.000025384138
      14        0.000000524558    -0.000001560553     0.000000534520
      15       -0.000044432608    -0.000007810400    -0.000030117654
      16        0.000009917944     0.000016651389     0.000025545512
      17        0.000010576121    -0.000023758886     0.000005387356

  **** Optimization is complete! (in 6 steps) ****
    Final optimized geometry and variables:
    Molecular point group: c1

    Geometry (in Angstrom), charge = 0, multiplicity = 1:

    O           -1.321807437873     1.126642721291    -0.678779324895
    C           -1.215914273977     0.169985227897     0.010844236496
    C           -2.373481293986    -0.556262057499     0.637122505906
    O           -0.066947676022    -0.399375390467     0.328231130890
    H           -2.374013820796    -1.588023867267     0.310241418431
    H           -3.296731393031    -0.076325055277     0.356111873094
    H           -2.263575571680    -0.553215196335     1.713888651919
    C            1.166629068831     0.149664087443    -0.147392750763
    C            1.726248541838    -0.784198287214    -1.204867324464
    C            2.080554620630     0.311220030247     1.051547959482
    H            0.956660808889     1.109353925708    -0.589561380836
    H            1.039058651758    -0.872364883455    -2.036896527021
    H            2.667218045777    -0.401157888800    -1.582103430379
    H            1.897810236435    -1.771706945521    -0.792714528105
    H            3.033407016124     0.722533802473     0.740263735448
    H            1.642014430153     0.982106595271     1.779491553304
    H            2.259215606334    -0.644482329777     1.530031510330

  Mulliken Charges: (a.u.)
   Center  Symbol    Alpha    Beta     Spin     Total
       1     O     4.19951  4.19951  0.00000 -0.39902
       2     C     2.80274  2.80274  0.00000  0.39453
       3     C     3.14077  3.14077  0.00000 -0.28154
       4     O     4.16696  4.16696  0.00000 -0.33392
       5     H     0.44605  0.44605  0.00000  0.10790
       6     H     0.43847  0.43847  0.00000  0.12306
       7     H     0.44623  0.44623  0.00000  0.10754
       8     C     2.93670  2.93670  0.00000  0.12659
       9     C     3.14470  3.14470  0.00000 -0.28941
      10     C     3.13926  3.13926  0.00000 -0.27851
      11     H     0.43487  0.43487  0.00000  0.13025
      12     H     0.44518  0.44518  0.00000  0.10965
      13     H     0.45207  0.45207  0.00000  0.09586
      14     H     0.45311  0.45311  0.00000  0.09377
      15     H     0.45346  0.45346  0.00000  0.09307
      16     H     0.44715  0.44715  0.00000  0.10570
      17     H     0.45276  0.45276  0.00000  0.09447

   Total alpha = 28.00000, Total beta = 28.00000, Total charge = -0.00000

*** Psi4 exiting successfully. Buy a developer a beer!
