  ==> Input File <==

--------------------------------------------------------------------------
set {
	reference rhf
	basis cc-pvtz
}

set_num_threads( 4 )
memory 2 gb

molecule MOL {
0 1

H	 -2.498963	 -0.741158	 -0.729149
O	 -2.346257	 -0.289210	 0.080372
C	 -1.183935	 0.486039	 -0.009831
C	 0.062853	 -0.375310	 0.027457
H	 -1.178881	 1.094526	 -0.908634
H	 -1.184406	 1.155156	 0.838676
O	 1.055776	 0.322453	 0.704717
H	 0.384579	 -0.608566	 -0.988900
H	 -0.160984	 -1.317528	 0.523134
C	 2.255631	 -0.364958	 0.842690
H	 2.688169	 -0.607731	 -0.125425
H	 2.942244	 0.272159	 1.380585
H	 2.122509	 -1.288298	 1.401475

	symmetry c1
}
set optking {
	frozen_dihedral = ("
		8 4 3 5
	")
}

ee = optimize('scf')
oeprop('DIPOLE', 'QUADRUPOLE', 'MULLIKEN_CHARGES')
f=open( 'psi4out.xyz', 'w' )
f.write( "13  " )
f.write( str(ee) + "\n" )
f.write( MOL.save_string_xyz() )
f.close()
--------------------------------------------------------------------------

    Molecular point group: c1
  Charge       = 0
  Multiplicity = 1
  Basis Set: CC-PVTZ
  Basis Set:
  @DF-RHF Final Energy:  -268.05810146561294
    Total Energy =                       -268.0581014656130492
    Molecular point group: c1
  Basis Set: CC-PVTZ
  Basis Set:
  Basis Set: CC-PVTZ
  Basis Set:
  @DF-RHF Final Energy:  -268.05860961904057
    Total Energy =                       -268.0586096190406806
  Basis Set: CC-PVTZ
  Basis Set:
  Basis Set: CC-PVTZ
  Basis Set:
  @DF-RHF Final Energy:  -268.05873411584980
    Total Energy =                       -268.0587341158498589
  Basis Set: CC-PVTZ
  Basis Set:
  Basis Set: CC-PVTZ
  Basis Set:
  @DF-RHF Final Energy:  -268.05873798653380
    Total Energy =                       -268.0587379865337425
  Basis Set: CC-PVTZ
  Basis Set:
  Charge       = 0
  Multiplicity = 1
  Basis Set: CC-PVTZ
  Basis Set:

    Orbital Energies (a.u.)
    -----------------------

    Doubly Occupied:

       1A    -20.554025     2A    -20.551110     3A    -11.268679
       4A    -11.267845     5A    -11.266248     6A     -1.389334
       7A     -1.366743     8A     -1.017617     9A     -0.912541
      10A     -0.842522    11A     -0.710585    12A     -0.670649
      13A     -0.664674    14A     -0.643645    15A     -0.584489
      16A     -0.573515    17A     -0.548696    18A     -0.490568
      19A     -0.482855    20A     -0.440895    21A     -0.423002

  @DF-RHF Final Energy:  -268.05873867454125

   => Energetics <=

    Nuclear Repulsion Energy =            190.2764796002934702
    One-Electron Energy =                -743.3299601856526806
    Two-Electron Energy =                 284.9947419108179929
    DFT Exchange-Correlation Energy =       0.0000000000000000
    Empirical Dispersion Energy =           0.0000000000000000
    PCM Polarization Energy =               0.0000000000000000
    EFP Energy =                            0.0000000000000000
    Total Energy =                       -268.0587386745412459
    Molecular point group: c1
  Basis Set: CC-PVTZ
  Basis Set:

  -Total Gradient:
     Atom            X                  Y                   Z
    ------   -----------------  -----------------  -----------------
       1        0.000010216764    -0.000021504922    -0.000012516946
       2       -0.000030278730     0.000022764758     0.000020437957
       3        0.003691614355     0.005522716729     0.003013276376
       4       -0.004170963698    -0.005960126995    -0.000667148303
       5       -0.002368743042    -0.003578297399    -0.002398808104
       6       -0.000014737162    -0.000014803030    -0.000003142644
       7        0.000026590948     0.000035352534     0.000034380039
       8        0.002837054907     0.003997688971     0.000031570138
       9        0.000016149163     0.000013863352    -0.000007363644
      10        0.000006308031    -0.000023284849    -0.000023695544
      11        0.000006174702     0.000000185176     0.000001367423
      12       -0.000020015559     0.000006230661     0.000003661345
      13        0.000010629324    -0.000000784983     0.000007981906

  **** Optimization is complete! (in 5 steps) ****
    Final optimized geometry and variables:
    Molecular point group: c1

    Geometry (in Angstrom), charge = 0, multiplicity = 1:

    H           -2.465370488052    -0.616161532731    -1.128021751893
    O           -2.315092950076    -0.211119392176    -0.293870927530
    C           -1.130683296144     0.542885048530    -0.322683183221
    C            0.108829022482    -0.340676764677    -0.243833081809
    H           -1.109624226531     1.146821487667    -1.223641974588
    H           -1.147739210578     1.193294872496     0.537776772406
    O            1.110247545415     0.373428715759     0.413596752684
    H            0.464634558769    -0.600176306239    -1.240580475867
    H           -0.135567015400    -1.251657322381     0.295120402855
    C            2.326524769858    -0.291397578746     0.504005835784
    H            2.738404283901    -0.505138762373    -0.480039600956
    H            3.014554946648     0.348168935270     1.037305927207
    H            2.227989971103    -1.229156467239     1.046245944734

  Mulliken Charges: (a.u.)
   Center  Symbol    Alpha    Beta     Spin     Total
       1     H     0.39490  0.39490  0.00000  0.21021
       2     O     4.20114  4.20114  0.00000 -0.40228
       3     C     2.97292  2.97292  0.00000  0.05416
       4     C     2.97007  2.97007  0.00000  0.05985
       5     H     0.46726  0.46726  0.00000  0.06549
       6     H     0.45059  0.45059  0.00000  0.09882
       7     O     4.17464  4.17464  0.00000 -0.34928
       8     H     0.48071  0.48071  0.00000  0.03858
       9     H     0.46884  0.46884  0.00000  0.06232
      10     C     3.03029  3.03029  0.00000 -0.06059
      11     H     0.47194  0.47194  0.00000  0.05611
      12     H     0.44602  0.44602  0.00000  0.10797
      13     H     0.47068  0.47068  0.00000  0.05864

   Total alpha = 21.00000, Total beta = 21.00000, Total charge = -0.00000
