  ==> Input File <==

--------------------------------------------------------------------------
set {
	reference rhf
	basis cc-pvtz
}

set_num_threads( 4 )
memory 2 gb

molecule MOL {
0 1

H	 -2.787962	 0.514419	 -0.502879
O	 -2.313989	 -0.142475	 -0.025864
C	 -0.943808	 -0.065018	 -0.330000
H	 -0.812293	 -0.225641	 -1.398673
C	 -0.231030	 -1.182113	 0.407592
C	 -0.353797	 1.300461	 0.050970
H	 -0.312800	 -0.992012	 1.473041
H	 -0.738841	 -2.119564	 0.220514
C	 1.246176	 -1.268044	 -0.015480
H	 -0.539537	 2.008579	 -0.751815
H	 -0.889989	 1.662858	 0.920677
C	 1.153605	 1.231851	 0.356834
H	 1.823096	 -1.684665	 0.802361
H	 1.352335	 -1.958223	 -0.845114
C	 1.826409	 0.100723	 -0.416008
H	 1.622968	 2.181508	 0.128734
H	 1.301983	 1.066493	 1.419367
H	 2.897299	 0.112407	 -0.249665
H	 1.683458	 0.265621	 -1.480024

	symmetry c1
}
set optking {
	frozen_dihedral = ("
		1 2 3 4
	")
}

ee = optimize('scf')
oeprop('DIPOLE', 'QUADRUPOLE', 'MULLIKEN_CHARGES')
f=open( 'psi4out.xyz', 'w' )
f.write( "19  " )
f.write( str(ee) + "\n" )
f.write( MOL.save_string_xyz() )
f.close()
--------------------------------------------------------------------------

    Molecular point group: c1
  Charge       = 0
  Multiplicity = 1
  Basis Set: CC-PVTZ
  Basis Set:
  @DF-RHF Final Energy:  -309.16356081442609
    Total Energy =                       -309.1635608144259777
    Molecular point group: c1
  Basis Set: CC-PVTZ
  Basis Set:
  Charge       = 0
  Multiplicity = 1
  Basis Set: CC-PVTZ
  Basis Set:

    Orbital Energies (a.u.)
    -----------------------

    Doubly Occupied:

       1A    -20.543395     2A    -11.267341     3A    -11.214898
       4A    -11.213757     5A    -11.213158     6A    -11.211667
       7A    -11.206743     8A     -1.363377     9A     -1.110000
      10A     -1.003142    11A     -0.989398    12A     -0.844309
      13A     -0.836751    14A     -0.734199    15A     -0.700661
      16A     -0.663360    17A     -0.629454    18A     -0.591271
      19A     -0.578941    20A     -0.547674    21A     -0.531430
      22A     -0.518841    23A     -0.499162    24A     -0.488842
      25A     -0.463721    26A     -0.449571    27A     -0.428827
      28A     -0.414224

  @DF-RHF Final Energy:  -309.16356117501334

   => Energetics <=

    Nuclear Repulsion Energy =            331.9667433020014187
    One-Electron Energy =               -1077.7443781164256507
    Two-Electron Energy =                 436.6140736394107762
    DFT Exchange-Correlation Energy =       0.0000000000000000
    Empirical Dispersion Energy =           0.0000000000000000
    PCM Polarization Energy =               0.0000000000000000
    EFP Energy =                            0.0000000000000000
    Total Energy =                       -309.1635611750134558
    Molecular point group: c1
  Basis Set: CC-PVTZ
  Basis Set:

  -Total Gradient:
     Atom            X                  Y                   Z
    ------   -----------------  -----------------  -----------------
       1       -0.000044114905    -0.000143604212    -0.000167765146
       2        0.000060480591     0.000296379747     0.000212024309
       3        0.000008151500    -0.000253675334    -0.000009142255
       4       -0.000015032276     0.000237184296    -0.000047292793
       5        0.000029365264    -0.000016577945     0.000028497150
       6       -0.000110886319    -0.000066843566    -0.000051602055
       7        0.000017798730    -0.000020607639     0.000016786519
       8       -0.000004667977     0.000014978457    -0.000004384491
       9        0.000015731966     0.000013870834     0.000010987819
      10       -0.000011025341     0.000002154713     0.000010912181
      11       -0.000025652270    -0.000005147280    -0.000009791902
      12        0.000030526400    -0.000045328155     0.000007228681
      13        0.000014136830     0.000007288970    -0.000001127283
      14       -0.000000413135     0.000002378455     0.000000915097
      15        0.000021279673    -0.000010055813     0.000009344714
      16        0.000004236755    -0.000011024804    -0.000009089738
      17        0.000001123996     0.000000852127    -0.000003434609
      18        0.000006406911    -0.000000977730    -0.000001589943
      19        0.000002553604    -0.000001245120     0.000008523744

  **** Optimization is complete! (in 2 steps) ****
    Final optimized geometry and variables:
    Molecular point group: c1

    Geometry (in Angstrom), charge = 0, multiplicity = 1:

    H           -2.788097943385     0.516453315785    -0.498993999486
    O           -2.313987925793    -0.141328554760    -0.023327078563
    C           -0.944227951520    -0.065344304333    -0.329981902442
    H           -0.814435039808    -0.225355185953    -1.398937864849
    C           -0.230608774446    -1.182196338331     0.407343590059
    C           -0.353832821000     1.300463340856     0.049491080539
    H           -0.312172598704    -0.992261016796     1.472847459422
    H           -0.738116070802    -2.119781282848     0.220238202772
    C            1.246570060020    -1.267752886233    -0.015734437381
    H           -0.538153738648     2.007364881466    -0.754684396893
    H           -0.891446079999     1.664424171232     0.917550748812
    C            1.153149842476     1.231827383705     0.357304686775
    H            1.823445781186    -1.685049733376     0.801787317799
    H            1.352542890333    -1.957369389574    -0.845890847019
    C            1.827015406637     0.101213102928    -0.415223085417
    H            1.622728422222     2.181625255246     0.130146287895
    H            1.300265927385     1.066002718815     1.419935346626
    H            2.897767786663     0.112978075485    -0.247917030546
    H            1.684931458095     0.266445140183    -1.479306037587

  Mulliken Charges: (a.u.)
   Center  Symbol    Alpha    Beta     Spin     Total
       1     H     0.39678  0.39678  0.00000  0.20645
       2     O     4.19952  4.19952  0.00000 -0.39904
       3     C     2.92371  2.92371  0.00000  0.15258
       4     H     0.46392  0.46392  0.00000  0.07217
       5     C     3.09830  3.09830  0.00000 -0.19661
       6     C     3.12158  3.12158  0.00000 -0.24315
       7     H     0.45396  0.45396  0.00000  0.09207
       8     H     0.44047  0.44047  0.00000  0.11906
       9     C     3.11351  3.11351  0.00000 -0.22702
      10     H     0.45202  0.45202  0.00000  0.09597
      11     H     0.44557  0.44557  0.00000  0.10886
      12     C     3.10083  3.10083  0.00000 -0.20166
      13     H     0.44713  0.44713  0.00000  0.10573
      14     H     0.44752  0.44752  0.00000  0.10496
      15     C     3.10262  3.10262  0.00000 -0.20525
      16     H     0.44277  0.44277  0.00000  0.11446
      17     H     0.45256  0.45256  0.00000  0.09488
      18     H     0.44286  0.44286  0.00000  0.11429
      19     H     0.45437  0.45437  0.00000  0.09126

   Total alpha = 28.00000, Total beta = 28.00000, Total charge =  0.00000
