  ==> Input File <==

--------------------------------------------------------------------------
set {
	reference rhf
	basis cc-pvtz
}

set_num_threads( 4 )
memory 2 gb

molecule MOL {
0 1

H	 1.128311	 0.207724	 1.465118
C	 1.134565	 0.093781	 0.372499
C	 0.062554	 0.862911	 -0.350953
O	 1.948932	 -0.587720	 -0.146651
C	 -1.168985	 0.006759	 -0.662288
H	 0.489820	 1.286372	 -1.250741
H	 -0.227777	 1.683386	 0.301430
C	 -0.898914	 -1.097750	 -1.680017
H	 -1.952957	 0.656534	 -1.033440
H	 -1.547301	 -0.427965	 0.258765
H	 -0.555941	 -0.682891	 -2.621196
H	 -1.798120	 -1.669523	 -1.875323
H	 -0.138612	 -1.787876	 -1.331157

	symmetry c1
}
set optking {
	frozen_dihedral = ("
		6 3 2 4
	")
}

ee = optimize('scf')
oeprop('DIPOLE', 'QUADRUPOLE', 'MULLIKEN_CHARGES')
f=open( 'psi4out.xyz', 'w' )
f.write( "13  " )
f.write( str(ee) + "\n" )
f.write( MOL.save_string_xyz() )
f.close()
--------------------------------------------------------------------------

    Molecular point group: c1
  Charge       = 0
  Multiplicity = 1
  Basis Set: CC-PVTZ
  Basis Set:
  @DF-RHF Final Energy:  -231.06834808037894
    Total Energy =                       -231.0683480803791099
    Molecular point group: c1
  Basis Set: CC-PVTZ
  Basis Set:
  Basis Set: CC-PVTZ
  Basis Set:
  @DF-RHF Final Energy:  -231.06683231329436
    Total Energy =                       -231.0668323132942987
  Basis Set: CC-PVTZ
  Basis Set:
  Basis Set: CC-PVTZ
  Basis Set:
  @DF-RHF Final Energy:  -231.06866490727401
    Total Energy =                       -231.0686649072739556
  Basis Set: CC-PVTZ
  Basis Set:
  Basis Set: CC-PVTZ
  Basis Set:
  @DF-RHF Final Energy:  -231.06870026015218
    Total Energy =                       -231.0687002601521272
  Basis Set: CC-PVTZ
  Basis Set:
  Charge       = 0
  Multiplicity = 1
  Basis Set: CC-PVTZ
  Basis Set:

    Orbital Energies (a.u.)
    -----------------------

    Doubly Occupied:

       1A    -20.553130     2A    -11.322413     3A    -11.235817
       4A    -11.234539     5A    -11.211122     6A     -1.408186
       7A     -1.082458     8A     -0.972168     9A     -0.845299
      10A     -0.783902    11A     -0.679390    12A     -0.652789
      13A     -0.609438    14A     -0.594314    15A     -0.565788
      16A     -0.529673    17A     -0.503135    18A     -0.491492
      19A     -0.481325    20A     -0.411120

  @DF-RHF Final Energy:  -231.06870104273455

   => Energetics <=

    Nuclear Repulsion Energy =            175.7232166483486537
    One-Electron Energy =                -661.2488380333809346
    Two-Electron Energy =                 254.4569203422976784
    DFT Exchange-Correlation Energy =       0.0000000000000000
    Empirical Dispersion Energy =           0.0000000000000000
    PCM Polarization Energy =               0.0000000000000000
    EFP Energy =                            0.0000000000000000
    Total Energy =                       -231.0687010427346308
    Molecular point group: c1
  Basis Set: CC-PVTZ
  Basis Set:

  -Total Gradient:
     Atom            X                  Y                   Z
    ------   -----------------  -----------------  -----------------
       1       -0.000043953113     0.000042799118    -0.000020132777
       2        0.002277965674     0.003101622347    -0.000097732962
       3       -0.001400993724    -0.003267244832    -0.001312206004
       4       -0.001516835659    -0.001809336040     0.000215134020
       5        0.000018846835     0.000071669876     0.000091564828
       6        0.000629667804     0.001863274320     0.001064344026
       7       -0.000001201528    -0.000019691417     0.000068534462
       8        0.000015046637     0.000055753029    -0.000029401543
       9       -0.000027044046    -0.000019567896     0.000004705874
      10        0.000013022028     0.000002901390     0.000019418133
      11        0.000017585703    -0.000001318327    -0.000019060246
      12        0.000012967068     0.000023272724    -0.000005899239
      13        0.000004926326    -0.000044134293     0.000020731430

  **** Optimization is complete! (in 5 steps) ****
    Final optimized geometry and variables:
    Molecular point group: c1

    Geometry (in Angstrom), charge = 0, multiplicity = 1:

    H            0.885946429392     0.381934937810     1.986328574517
    C            0.912592212341     0.275364703702     0.894589555929
    C           -0.151504413070     1.029844787944     0.138004459687
    O            1.716588984829    -0.432058423870     0.392327171359
    C           -1.378507748900     0.154286339941    -0.163482882169
    H            0.282929762705     1.414975961634    -0.776906070453
    H           -0.460116748350     1.878054061241     0.740071584376
    C           -1.131625643280    -0.931500206252    -1.205719131250
    H           -2.174353801590     0.806696080095    -0.504496032559
    H           -1.732851964022    -0.295833922179     0.760007258880
    H           -0.825784442276    -0.496858735171    -2.150907601441
    H           -2.037674612936    -1.500520426808    -1.378497448950
    H           -0.356021275348    -1.618120689353    -0.894183415256

  Mulliken Charges: (a.u.)
   Center  Symbol    Alpha    Beta     Spin     Total
       1     H     0.45720  0.45720  0.00000  0.08560
       2     C     2.91210  2.91210  0.00000  0.17580
       3     C     3.08936  3.08936  0.00000 -0.17872
       4     O     4.16788  4.16788  0.00000 -0.33576
       5     C     3.09489  3.09489  0.00000 -0.18978
       6     H     0.44383  0.44383  0.00000  0.11233
       7     H     0.44515  0.44515  0.00000  0.10970
       8     C     3.14214  3.14214  0.00000 -0.28428
       9     H     0.44529  0.44529  0.00000  0.10943
      10     H     0.45264  0.45264  0.00000  0.09473
      11     H     0.45513  0.45513  0.00000  0.08975
      12     H     0.44987  0.44987  0.00000  0.10025
      13     H     0.44452  0.44452  0.00000  0.11095

   Total alpha = 20.00000, Total beta = 20.00000, Total charge = -0.00000
