  ==> Input File <==

--------------------------------------------------------------------------
set {
	reference rhf
	basis 6-31G*
}

set_num_threads( 4 )
memory 2 gb

molecule MOL {
0 1

H	 1.148083	 -1.049780	 0.784252
O	 1.319262	 -0.618148	 -0.041729
C	 0.709265	 0.639550	 -0.033818
C	 -0.795902	 0.595680	 -0.067389
H	 1.078023	 1.160001	 -0.910374
H	 1.030425	 1.219994	 0.830454
C	 -1.522220	 -0.487727	 -0.255690
H	 -1.282245	 1.548446	 0.074703
H	 -1.071454	 -1.449856	 -0.418625
H	 -2.596511	 -0.445958	 -0.267127

	symmetry c1
}
set optking {
	frozen_dihedral = ("
		5 3 2 1
	")
}

ee = optimize('scf')
oeprop('DIPOLE', 'QUADRUPOLE', 'MULLIKEN_CHARGES')
f=open( 'psi4out.xyz', 'w' )
f.write( "10  " )
f.write( str(ee) + "\n" )
f.write( MOL.save_string_xyz() )
f.close()
--------------------------------------------------------------------------

    Molecular point group: c1
  Charge       = 0
  Multiplicity = 1
  Basis Set: 6-31G*
  Basis Set:
  @DF-RHF Final Energy:  -191.91718923710064
    Total Energy =                       -191.9171892371007004
    Molecular point group: c1
  Basis Set: 6-31G*
  Basis Set:
  Basis Set: 6-31G*
  Basis Set:
  @DF-RHF Final Energy:  -191.91719700870232
    Total Energy =                       -191.9171970087023169
  Basis Set: 6-31G*
  Basis Set:
  Charge       = 0
  Multiplicity = 1
  Basis Set: 6-31G*
  Basis Set:

    Orbital Energies (a.u.)
    -----------------------

    Doubly Occupied:

       1A    -20.560736     2A    -11.278423     3A    -11.230017
       4A    -11.218234     5A     -1.369241     6A     -1.057203
       7A     -0.927963     8A     -0.767780     9A     -0.689177
      10A     -0.660695    11A     -0.614971    12A     -0.570953
      13A     -0.535155    14A     -0.493859    15A     -0.447149
      16A     -0.363856

  @DF-RHF Final Energy:  -191.91719886917514

   => Energetics <=

    Nuclear Repulsion Energy =            119.3598994725326605
    One-Electron Energy =                -496.9833743172604841
    Two-Electron Energy =                 185.7062759755526713
    DFT Exchange-Correlation Energy =       0.0000000000000000
    Empirical Dispersion Energy =           0.0000000000000000
    PCM Polarization Energy =               0.0000000000000000
    EFP Energy =                            0.0000000000000000
    Total Energy =                       -191.9171988691751380
    Molecular point group: c1
  Basis Set: 6-31G*
  Basis Set:

  -Total Gradient:
     Atom            X                  Y                   Z
    ------   -----------------  -----------------  -----------------
       1        0.000538356109     0.000245701006     0.000231817435
       2       -0.000542254872    -0.000299021314    -0.000203787938
       3       -0.000375875408    -0.000159375565    -0.000318579858
       4       -0.000068093419     0.000001783398    -0.000002278135
       5        0.000422733371     0.000206431937     0.000321335429
       6        0.000025954421    -0.000005793409    -0.000026295655
       7        0.000024597333    -0.000011875701     0.000073727456
       8       -0.000016509492    -0.000003796366    -0.000021164064
       9       -0.000004651347     0.000023407144    -0.000035893827
      10       -0.000004256697     0.000002538870    -0.000018880843

  **** Optimization is complete! (in 3 steps) ****
    Final optimized geometry and variables:
    Molecular point group: c1

    Geometry (in Angstrom), charge = 0, multiplicity = 1:

    H            1.140620863195    -1.059832444335     0.855468750380
    O            1.317081552605    -0.618837066617     0.035791372155
    C            0.707351861896     0.639188845986     0.052419738763
    C           -0.797506267689     0.595134333692     0.013270870606
    H            1.081937378418     1.169348968145    -0.815867286241
    H            1.025938840702     1.211619301513     0.923103044818
    C           -1.522457596959    -0.490707941096    -0.164668879505
    H           -1.284225469384     1.549537508694     0.142868750953
    H           -1.069513510557    -1.453788607211    -0.314132664054
    H           -2.596703274719    -0.449590652976    -0.180958339197

  Mulliken Charges: (a.u.)
   Center  Symbol    Alpha    Beta     Spin     Total
       1     H     0.28055  0.28055  0.00000  0.43890
       2     O     4.36665  4.36665  0.00000 -0.73331
       3     C     3.00159  3.00159  0.00000 -0.00317
       4     C     3.09286  3.09286  0.00000 -0.18573
       5     H     0.40834  0.40834  0.00000  0.18331
       6     H     0.42587  0.42587  0.00000  0.14826
       7     C     3.19648  3.19648  0.00000 -0.39297
       8     H     0.41066  0.41066  0.00000  0.17868
       9     H     0.40556  0.40556  0.00000  0.18888
      10     H     0.41143  0.41143  0.00000  0.17714

   Total alpha = 16.00000, Total beta = 16.00000, Total charge =  0.00000
