                              Psi4 1.0.54 Driver

  ==> Input File <==

--------------------------------------------------------------------------
set {
	reference rhf
	basis cc-pvtz
}

set_num_threads( 4 )
memory 2 gb

molecule MOL {
0 1

H	 -3.439355	 -0.169898	 -0.134149
O	 -2.654803	 -0.697319	 -0.139061
C	 -1.605397	 0.107680	 0.001145
C	 -0.310616	 -0.658853	 0.000791
O	 -1.721292	 1.279612	 0.106571
C	 0.926581	 0.227233	 0.000178
H	 -0.327628	 -1.313681	 -0.864448
H	 -0.327041	 -1.313334	 0.866298
C	 2.220156	 -0.582071	 -0.000088
H	 0.899945	 0.878221	 -0.866390
H	 0.900542	 0.878581	 0.866486
C	 3.466689	 0.296012	 -0.000457
H	 2.239073	 -1.234095	 -0.869382
H	 2.239505	 -1.233985	 0.869270
H	 3.493549	 0.935857	 -0.875887
H	 4.368821	 -0.304526	 -0.001199
H	 3.494559	 0.935166	 0.875458

	symmetry c1
}
set optking {
	frozen_dihedral = ("
		2 3 4 7
	")
}

ee,wfn = optimize('scf', return_wfn=True)
oeprop( wfn, 'DIPOLE', 'QUADRUPOLE', 'MULLIKEN_CHARGES')
f=open( 'psi4out.xyz', 'w' )
f.write( "17  " )
f.write( str(ee) + "\n" )
f.write( MOL.save_string_xyz() )
f.close()
--------------------------------------------------------------------------

    Molecular point group: c1
  Charge       = 0
  Multiplicity = 1
  Basis Set: CC-PVTZ
  Basis Set:
  @DF-RHF Final Energy:  -345.04887287121261
    Total Energy =                       -345.0488728712131206
    Molecular point group: c1
  Basis Set: CC-PVTZ
  Basis Set:
  Basis Set: CC-PVTZ
  Basis Set:
  @DF-RHF Final Energy:  -345.04883188899146
    Total Energy =                       -345.0488318889914581
  Basis Set: CC-PVTZ
  Basis Set:
  Basis Set: CC-PVTZ
  Basis Set:
  @DF-RHF Final Energy:  -345.04888034941274
    Total Energy =                       -345.0488803494126842
  Basis Set: CC-PVTZ
  Basis Set:
  Charge       = 0
  Multiplicity = 1
  Basis Set: CC-PVTZ
  Basis Set:

    Orbital Energies (a.u.)
    -----------------------

    Doubly Occupied:

       1A    -20.604238     2A    -20.540633     3A    -11.373717
       4A    -11.239383     5A    -11.221414     6A    -11.220756
       7A    -11.210737     8A     -1.477768     9A     -1.369199
      10A     -1.092963    11A     -1.019893    12A     -0.914962
      13A     -0.825015    14A     -0.791229    15A     -0.704047
      16A     -0.688139    17A     -0.671935    18A     -0.631515
      19A     -0.593435    20A     -0.585362    21A     -0.574786
      22A     -0.538736    23A     -0.509264    24A     -0.484960
      25A     -0.482836    26A     -0.478465    27A     -0.472779
      28A     -0.446226

  @DF-RHF Final Energy:  -345.04889104409335

   => Energetics <=

    Nuclear Repulsion Energy =            304.7901025835951714
    One-Electron Energy =               -1074.1492025186603314
    Two-Electron Energy =                 424.3102088909713530
    DFT Exchange-Correlation Energy =       0.0000000000000000
    Empirical Dispersion Energy =           0.0000000000000000
    PCM Polarization Energy =               0.0000000000000000
    EFP Energy =                            0.0000000000000000
    Total Energy =                       -345.0488910440938071
    Molecular point group: c1
  Basis Set: CC-PVTZ
  Basis Set:

  -Total Gradient:
     Atom            X                  Y                   Z
    ------   -----------------  -----------------  -----------------
       1        0.000003374091     0.000024506820    -0.000002745399
       2        0.000044964113     0.000027303623    -0.000286743346
       3       -0.000065370946    -0.000199349570     0.000420699950
       4        0.000189115279     0.000329875110    -0.000296448713
       5       -0.000011809717     0.000068978655     0.000014210113
       6        0.000002885906     0.000011731096    -0.000024638410
       7       -0.000148509232    -0.000268078082     0.000192395642
       8       -0.000010660763     0.000009848524    -0.000021976423
       9       -0.000000017274    -0.000001349852     0.000002510046
      10        0.000002087524     0.000007697871    -0.000000433443
      11       -0.000005242220    -0.000009036688    -0.000000623401
      12       -0.000001966510    -0.000000671394     0.000000698581
      13        0.000002276165     0.000000448844    -0.000000200226
      14       -0.000001120325    -0.000001562653     0.000001272720
      15       -0.000000460718    -0.000000780196     0.000000115403
      16       -0.000000018557    -0.000000300555     0.000001352519
      17        0.000000473180     0.000000738446     0.000000554387

  **** Optimization is complete! (in 4 steps) ****
    Final optimized geometry and variables:
    Molecular point group: c1

    Geometry (in Angstrom), charge = 0, multiplicity = 1:

    H           -3.440769535921    -0.170989365233    -0.102990848103
    O           -2.656166959315    -0.697940954695    -0.125703775930
    C           -1.605504826610     0.107049553813     0.004122865995
    C           -0.310593304835    -0.659134891432    -0.003170793893
    O           -1.720790351251     1.278588832817     0.115314871790
    C            0.926498805693     0.227078777700     0.000223881719
    H           -0.327222299143    -1.318850836521    -0.863777818948
    H           -0.328226181127    -1.309720117685     0.866125042887
    C            2.220152852321    -0.582011653338     0.007417411488
    H            0.904416364713     0.875972816505    -0.868519218217
    H            0.895576854586     0.880264435040     0.864499412639
    C            3.466488181651     0.296303856180     0.009806607498
    H            2.243005181734    -1.236749333016    -0.859698261923
    H            2.235704027836    -1.231064431354     0.878992763621
    H            3.497567304077     0.932786387367    -0.867954799817
    H            4.368708297311    -0.304075331291     0.015736068732
    H            3.489857844335     0.938793808995     0.883381782873

  Mulliken Charges: (a.u.)
   Center  Symbol    Alpha    Beta     Spin     Total
       1     H     0.38234  0.38234  0.00000  0.23532
       2     O     4.15970  4.15970  0.00000 -0.31940
       3     C     2.80500  2.80500  0.00000  0.38999
       4     C     3.11040  3.11040  0.00000 -0.22081
       5     O     4.19132  4.19132  0.00000 -0.38265
       6     C     3.08222  3.08222  0.00000 -0.16444
       7     H     0.43738  0.43738  0.00000  0.12524
       8     H     0.43908  0.43908  0.00000  0.12183
       9     C     3.08604  3.08604  0.00000 -0.17209
      10     H     0.44744  0.44744  0.00000  0.10512
      11     H     0.44491  0.44491  0.00000  0.11019
      12     C     3.14923  3.14923  0.00000 -0.29847
      13     H     0.45486  0.45486  0.00000  0.09028
      14     H     0.45475  0.45475  0.00000  0.09050
      15     H     0.45376  0.45376  0.00000  0.09248
      16     H     0.44800  0.44800  0.00000  0.10399
      17     H     0.45355  0.45355  0.00000  0.09290

   Total alpha = 28.00000, Total beta = 28.00000, Total charge =  0.00000

*** Psi4 exiting successfully. Buy a developer a beer!
