  ==> Input File <==

--------------------------------------------------------------------------
set {
	reference rhf
	basis 6-31G*
}

set_num_threads( 1 )
memory 2 gb

molecule MOL {
0 1

H	 -2.798360	 -0.862255	 -0.071053
N	 -1.863561	 -0.715187	 0.256814
C	 -1.344686	 0.554728	 -0.219830
H	 -1.300452	 -1.461917	 -0.101532
C	 0.081427	 0.741154	 0.254071
H	 -1.362155	 0.656231	 -1.305829
H	 -1.952773	 1.354456	 0.191809
O	 0.874168	 -0.245412	 -0.342030
H	 0.444037	 1.730782	 -0.023037
H	 0.121165	 0.653424	 1.337565
C	 1.904290	 0.248537	 -1.137286
H	 2.441983	 -0.598517	 -1.541123
H	 1.519127	 0.845701	 -1.961923
H	 2.593428	 0.861323	 -0.559886

	symmetry c1
}
set optking {
	frozen_dihedral = ("
		8 5 3 6,
		6 3 2 4,
		5 8 11 13
	")
}

ee = energy('scf')
oeprop('DIPOLE', 'QUADRUPOLE', 'MULLIKEN_CHARGES')
f=open( 'psi4out.xyz', 'w' )
f.write( "14  " )
f.write( str(ee) + "\n" )
f.write( MOL.save_string_xyz() )
f.close()
--------------------------------------------------------------------------

    Molecular point group: c1

    Geometry (in Angstrom), charge = 0, multiplicity = 1:

       Center              X                  Y                   Z               Mass
    ------------   -----------------  -----------------  -----------------  -----------------
           H         -2.735520406277    -0.966119897095     0.184416341565     1.007825032070
           N         -1.800721406277    -0.819051897095     0.512283341565    14.003074004780
           C         -1.281846406277     0.450863102905     0.035639341565    12.000000000000
           H         -1.237612406277    -1.565781897095     0.153937341565     1.007825032070
           C          0.144266593723     0.637289102905     0.509540341565    12.000000000000
           H         -1.299315406277     0.552366102905    -1.050359658435     1.007825032070
           H         -1.889933406277     1.250591102905     0.447278341565     1.007825032070
           O          0.937007593723    -0.349276897095    -0.086560658435    15.994914619560
           H          0.506876593723     1.626917102905     0.232432341565     1.007825032070
           H          0.184004593723     0.549559102905     1.593034341565     1.007825032070
           C          1.967129593723     0.144672102905    -0.881816658435    12.000000000000
           H          2.504822593723    -0.702381897095    -1.285653658435     1.007825032070
           H          1.581966593723     0.741836102905    -1.706453658435     1.007825032070
           H          2.656267593723     0.757458102905    -0.304416658435     1.007825032070

  Charge       = 0
  Multiplicity = 1
  Basis Set: 6-31G*
  Basis Set:

    Orbital Energies (a.u.)
    -----------------------

    Doubly Occupied:

       1A    -20.555362     2A    -15.528210     3A    -11.268567
       4A    -11.265179     5A    -11.239367     6A     -1.381579
       7A     -1.173179     8A     -0.997364     9A     -0.912557
      10A     -0.813647    11A     -0.682913    12A     -0.676481
      13A     -0.641545    14A     -0.616614    15A     -0.600941
      16A     -0.540369    17A     -0.532884    18A     -0.500876
      19A     -0.474492    20A     -0.413288    21A     -0.378439

  @DF-RHF Final Energy:  -248.12038962875201

   => Energetics <=

    Nuclear Repulsion Energy =            195.4205294633523806
    One-Electron Energy =                -724.6941011795682925
    Two-Electron Energy =                 281.1531820874640744
    DFT Exchange-Correlation Energy =       0.0000000000000000
    Empirical Dispersion Energy =           0.0000000000000000
    PCM Polarization Energy =               0.0000000000000000
    EFP Energy =                            0.0000000000000000
    Total Energy =                       -248.1203896287518091

  Mulliken Charges: (a.u.)
   Center  Symbol    Alpha    Beta     Spin     Total
       1     H     0.33291  0.33291  0.00000  0.33417
       2     N     3.92465  3.92465  0.00000 -0.84930
       3     C     3.06374  3.06374  0.00000 -0.12748
       4     H     0.32371  0.32371  0.00000  0.35258
       5     C     2.99674  2.99674  0.00000  0.00653
       6     H     0.43265  0.43265  0.00000  0.13471
       7     H     0.42325  0.42325  0.00000  0.15349
       8     O     4.30854  4.30854  0.00000 -0.61709
       9     H     0.42973  0.42973  0.00000  0.14054
      10     H     0.41287  0.41287  0.00000  0.17425
      11     C     3.08068  3.08068  0.00000 -0.16136
      12     H     0.41269  0.41269  0.00000  0.17461
      13     H     0.43032  0.43032  0.00000  0.13935
      14     H     0.42751  0.42751  0.00000  0.14498

   Total alpha = 21.00000, Total beta = 21.00000, Total charge = -0.00000
