                              Psi4 1.0.54 Driver

  ==> Input File <==

--------------------------------------------------------------------------
set {
	reference rhf
	basis cc-pvtz
}

set_num_threads( 4 )
memory 2 gb

molecule MOL {
0 1

H	 1.036454	 -0.539356	 -1.516002
O	 1.233408	 0.350516	 -1.284076
C	 0.706474	 0.636793	 -0.025501
C	 -0.793473	 0.591216	 0.050087
H	 1.046254	 1.633639	 0.229742
H	 1.116820	 -0.032747	 0.728179
C	 -1.534243	 -0.493009	 -0.013340
H	 -1.266611	 1.552628	 0.164437
H	 -1.101195	 -1.466332	 -0.144046
H	 -2.604242	 -0.437780	 0.050785

	symmetry c1
}
set optking {
	frozen_dihedral = ("
		5 3 4 7
	")
}

ee,wfn = optimize('scf', return_wfn=True)
oeprop( wfn, 'DIPOLE', 'QUADRUPOLE', 'MULLIKEN_CHARGES')
f=open( 'psi4out.xyz', 'w' )
f.write( "10  " )
f.write( str(ee) + "\n" )
f.write( MOL.save_string_xyz() )
f.close()
--------------------------------------------------------------------------

    Molecular point group: c1
  Charge       = 0
  Multiplicity = 1
  Basis Set: CC-PVTZ
  Basis Set:
  @DF-RHF Final Energy:  -191.99263351190461
    Total Energy =                       -191.9926335119047280
    Molecular point group: c1
  Basis Set: CC-PVTZ
  Basis Set:
  Basis Set: CC-PVTZ
  Basis Set:
  @DF-RHF Final Energy:  -191.99352287352912
    Total Energy =                       -191.9935228735291730
  Basis Set: CC-PVTZ
  Basis Set:
  Basis Set: CC-PVTZ
  Basis Set:
  @DF-RHF Final Energy:  -191.99375064033870
    Total Energy =                       -191.9937506403385896
  Basis Set: CC-PVTZ
  Basis Set:
  Basis Set: CC-PVTZ
  Basis Set:
  @DF-RHF Final Energy:  -191.99384475785843
    Total Energy =                       -191.9938447578584260
  Basis Set: CC-PVTZ
  Basis Set:
  Basis Set: CC-PVTZ
  Basis Set:
  @DF-RHF Final Energy:  -191.99385584464807
    Total Energy =                       -191.9938558446478964
  Basis Set: CC-PVTZ
  Basis Set:
  Basis Set: CC-PVTZ
  Basis Set:
  @DF-RHF Final Energy:  -191.99385744737248
    Total Energy =                       -191.9938574473724486
  Basis Set: CC-PVTZ
  Basis Set:
  Charge       = 0
  Multiplicity = 1
  Basis Set: CC-PVTZ
  Basis Set:

    Orbital Energies (a.u.)
    -----------------------

    Doubly Occupied:

       1A    -20.548457     2A    -11.275610     3A    -11.234448
       4A    -11.228082     5A     -1.366766     6A     -1.067634
       7A     -0.928153     8A     -0.777194     9A     -0.702788
      10A     -0.637569    11A     -0.628538    12A     -0.586675
      13A     -0.541220    14A     -0.494727    15A     -0.441864
      16A     -0.381252

  @DF-RHF Final Energy:  -191.99385759457451

   => Energetics <=

    Nuclear Repulsion Energy =            118.5886844802942903
    One-Electron Energy =                -495.4831312507937469
    Two-Electron Energy =                 184.9005891759249494
    DFT Exchange-Correlation Energy =       0.0000000000000000
    Empirical Dispersion Energy =           0.0000000000000000
    PCM Polarization Energy =               0.0000000000000000
    EFP Energy =                            0.0000000000000000
    Total Energy =                       -191.9938575945745356
    Molecular point group: c1
  Basis Set: CC-PVTZ
  Basis Set:

  -Total Gradient:
     Atom            X                  Y                   Z
    ------   -----------------  -----------------  -----------------
       1       -0.000000222097     0.000014341884     0.000020690484
       2        0.000027738614     0.000001799948    -0.000041644383
       3       -0.000085777098    -0.001014423368     0.003160593300
       4       -0.000070329531    -0.000044123292     0.004541857887
       5        0.000063870587     0.000865422820    -0.003964292736
       6        0.000002806057     0.000004904885    -0.000007525041
       7        0.000053203915     0.000162687887    -0.003721243949
       8        0.000005210559     0.000005740843     0.000016970881
       9        0.000003110170     0.000003387820     0.000000498461
      10        0.000000388822     0.000000260573    -0.000005904903

  **** Optimization is complete! (in 7 steps) ****
    Final optimized geometry and variables:
    Molecular point group: c1

    Geometry (in Angstrom), charge = 0, multiplicity = 1:

    H            0.888820381771    -0.700188181178    -1.217182364576
    O            1.288409314237     0.074819378691    -0.866927850495
    C            0.722650343578     0.376581115861     0.383263515654
    C           -0.788697729294     0.349076680071     0.356912264991
    H            1.069998020292     1.374104985060     0.608325800760
    H            1.097597514441    -0.301161625809     1.143890344906
    C           -1.496749358349    -0.758191192486     0.297546747738
    H           -1.293943842723     1.297653164746     0.310178825475
    H           -1.035478026310    -1.730319467243     0.340454212145
    H           -2.567031741007    -0.740157131205     0.217122916009

  Mulliken Charges: (a.u.)
   Center  Symbol    Alpha    Beta     Spin     Total
       1     H     0.39299  0.39299  0.00000  0.21402
       2     O     4.20084  4.20084  0.00000 -0.40168
       3     C     2.95319  2.95319  0.00000  0.09361
       4     C     3.07893  3.07893  0.00000 -0.15786
       5     H     0.45512  0.45512  0.00000  0.08976
       6     H     0.46829  0.46829  0.00000  0.06341
       7     C     3.17757  3.17757  0.00000 -0.35513
       8     H     0.41830  0.41830  0.00000  0.16340
       9     H     0.42991  0.42991  0.00000  0.14018
      10     H     0.42486  0.42486  0.00000  0.15028

   Total alpha = 16.00000, Total beta = 16.00000, Total charge = -0.00000

*** Psi4 exiting successfully. Buy a developer a beer!
