  ==> Input File <==

--------------------------------------------------------------------------
set {
	reference rhf
	basis cc-pvtz
}

set_num_threads( 4 )
memory 2 gb

molecule MOL {
0 1

H	 2.614283	 2.028610	 0.296620
O	 3.358864	 1.662087	 -0.142800
C	 3.565468	 0.338079	 0.273842
C	 2.533667	 -0.637565	 -0.272227
H	 4.548038	 0.064914	 -0.086598
H	 3.593945	 0.282242	 1.360360
C	 1.114816	 -0.402372	 0.240993
H	 2.544552	 -0.580764	 -1.356576
H	 2.850574	 -1.642962	 -0.005497
C	 0.113298	 -1.420414	 -0.302504
H	 0.796373	 0.598427	 -0.031033
H	 1.113377	 -0.446476	 1.328807
C	 -1.331666	 -0.924910	 -0.385024
H	 0.436834	 -1.748641	 -1.287297
H	 0.138148	 -2.301667	 0.332512
C	 -1.577488	 0.184406	 -1.406167
H	 -1.968094	 -1.769848	 -0.633149
H	 -1.651107	 -0.586002	 0.597958
C	 -3.048809	 0.574649	 -1.521636
H	 -1.216151	 -0.139122	 -2.379939
H	 -1.000867	 1.066763	 -1.145480
C	 -3.297307	 1.684582	 -2.537604
H	 -3.631643	 -0.300579	 -1.795236
H	 -3.413635	 0.890090	 -0.547746
H	 -2.972313	 1.387405	 -3.529220
H	 -4.350355	 1.935042	 -2.596484
H	 -2.757491	 2.587415	 -2.271440

	symmetry c1
}
set optking {
	frozen_dihedral = ("
		14 10 7 4
	")
}

ee = optimize('scf')
oeprop('DIPOLE', 'QUADRUPOLE', 'MULLIKEN_CHARGES')
f=open( 'psi4out.xyz', 'w' )
f.write( "27  " )
f.write( str(ee) + "\n" )
f.write( MOL.save_string_xyz() )
f.close()
--------------------------------------------------------------------------

    Molecular point group: c1
  Charge       = 0
  Multiplicity = 1
  Basis Set: CC-PVTZ
  Basis Set:
  @DF-RHF Final Energy:  -388.42503555580373
    Total Energy =                       -388.4250355558033334
    Molecular point group: c1
  Basis Set: CC-PVTZ
  Basis Set:
  Basis Set: CC-PVTZ
  Basis Set:
  @DF-RHF Final Energy:  -388.42525823679000
    Total Energy =                       -388.4252582367900004
  Basis Set: CC-PVTZ
  Basis Set:
  Basis Set: CC-PVTZ
  Basis Set:
  @DF-RHF Final Energy:  -388.42548523709314
    Total Energy =                       -388.4254852370938806
  Basis Set: CC-PVTZ
  Basis Set:
  Basis Set: CC-PVTZ
  Basis Set:
  @DF-RHF Final Energy:  -388.42550660674260
    Total Energy =                       -388.4255066067430562
  Basis Set: CC-PVTZ
  Basis Set:
  Basis Set: CC-PVTZ
  Basis Set:
  @DF-RHF Final Energy:  -388.42550847864885
    Total Energy =                       -388.4255084786482257
  Basis Set: CC-PVTZ
  Basis Set:
  Basis Set: CC-PVTZ
  Basis Set:
  @DF-RHF Final Energy:  -388.42550965006984
    Total Energy =                       -388.4255096500696709
  Basis Set: CC-PVTZ
  Basis Set:
  Charge       = 0
  Multiplicity = 1
  Basis Set: CC-PVTZ
  Basis Set:

    Orbital Energies (a.u.)
    -----------------------

    Doubly Occupied:

       1A    -20.545424     2A    -11.264924     3A    -11.216658
       4A    -11.214428     5A    -11.213528     6A    -11.213347
       7A    -11.213238     8A    -11.211166     9A    -11.206503
      10A     -1.363281    11A     -1.095341    12A     -1.061906
      13A     -1.012219    14A     -0.949101    15A     -0.888084
      16A     -0.821124    17A     -0.799167    18A     -0.780965
      19A     -0.697161    20A     -0.646761    21A     -0.639711
      22A     -0.616154    23A     -0.606494    24A     -0.583101
      25A     -0.578319    26A     -0.554536    27A     -0.541460
      28A     -0.528278    29A     -0.506580    30A     -0.497121
      31A     -0.483314    32A     -0.473706    33A     -0.470157
      34A     -0.460542    35A     -0.451557    36A     -0.441572
      37A     -0.425713

  @DF-RHF Final Energy:  -388.42550968740983

   => Energetics <=

    Nuclear Repulsion Energy =            461.7479557684814040
    One-Electron Energy =               -1441.8016498069609952
    Two-Electron Energy =                 591.6281843510698764
    DFT Exchange-Correlation Energy =       0.0000000000000000
    Empirical Dispersion Energy =           0.0000000000000000
    PCM Polarization Energy =               0.0000000000000000
    EFP Energy =                            0.0000000000000000
    Total Energy =                       -388.4255096874096580
    Molecular point group: c1
  Basis Set: CC-PVTZ
  Basis Set:

  -Total Gradient:
     Atom            X                  Y                   Z
    ------   -----------------  -----------------  -----------------
       1       -0.000004962639     0.000003633149     0.000000602618
       2       -0.000010464735     0.000002650588     0.000006026613
       3        0.000009642175    -0.000005868931    -0.000021831751
       4       -0.000487448663     0.001728618251    -0.002097688288
       5        0.000001146844    -0.000004738151    -0.000000322120
       6       -0.000005031623    -0.000001133762    -0.000002731718
       7        0.001155375234    -0.003094751583     0.003295587914
       8        0.000005733103    -0.000000719756     0.000000788037
       9        0.000001020994    -0.000000850393     0.000003448022
      10       -0.002643927009     0.004249001037    -0.002686999877
      11        0.000001125011     0.000007714168     0.000003451570
      12       -0.000003041070     0.000001592335     0.000000796473
      13       -0.000002887495    -0.000012002337    -0.000010514567
      14        0.001978184521    -0.002880302871     0.001502720808
      15        0.000001582653     0.000001084230    -0.000004806800
      16        0.000002109130    -0.000000120627     0.000003271497
      17       -0.000006736861    -0.000002787433     0.000005073570
      18        0.000003036189     0.000004250058    -0.000003870130
      19        0.000000344548     0.000009370043     0.000009541341
      20        0.000007822351    -0.000004535752     0.000001330815
      21       -0.000002012845     0.000004401766    -0.000001748143
      22       -0.000000091000    -0.000005562967    -0.000002857623
      23        0.000001713871     0.000000763019    -0.000000251592
      24       -0.000001954087     0.000000463594     0.000001346849
      25        0.000001132414     0.000001806772    -0.000001207285
      26       -0.000000443139    -0.000001460095    -0.000001057563
      27       -0.000000967875    -0.000000514353     0.000001901329

  **** Optimization is complete! (in 7 steps) ****
    Final optimized geometry and variables:
    Molecular point group: c1

    Geometry (in Angstrom), charge = 0, multiplicity = 1:

    H            2.461595966890     1.827258235892     1.202386799163
    O            3.202897725770     1.500897427006     0.727355825477
    C            3.395576655658     0.138718822167     1.004515707873
    C            2.353605874228    -0.763554307329     0.361166178148
    H            4.375598987035    -0.106068200270     0.617690173599
    H            3.422234189418    -0.029400685144     2.079349866694
    C            0.931606301315    -0.545686505011     0.873445315141
    H            2.375602070273    -0.610215288213    -0.713175339755
    H            2.650484726200    -1.795052590751     0.538891468804
    C           -0.077803979668    -1.543394705660     0.290651432622
    H            0.626360876231     0.464970898770     0.622798929376
    H            0.913544032347    -0.611128476321     1.958667004372
    C           -1.525712837853    -1.052748291061     0.257304977858
    H            0.239087280251    -1.844828609881    -0.704154642022
    H           -0.033575417124    -2.452617732829     0.883870875512
    C           -1.821485669675    -0.019380547637    -0.828225691488
    H           -2.179860897433    -1.906640425293     0.106078140834
    H           -1.786876203129    -0.642509372164     1.230474125936
    C           -3.272999452837     0.452927213817    -0.827607132224
    H           -1.586273387274    -0.449631306942    -1.798915146181
    H           -1.171067413402     0.842770656396    -0.714380568058
    C           -3.573385950023     1.470041692975    -1.923515020183
    H           -3.929690705111    -0.405035093340    -0.943360390307
    H           -3.508547893752     0.886966173323     0.140408141071
    H           -3.381011544994     1.054008169396    -2.906882226323
    H           -4.610529366266     1.783994851555    -1.894880054599
    H           -2.956738628112     2.356161685895    -1.815177451877

  Mulliken Charges: (a.u.)
   Center  Symbol    Alpha    Beta     Spin     Total
       1     H     0.39212  0.39212  0.00000  0.21575
       2     O     4.20574  4.20574  0.00000 -0.41149
       3     C     2.97962  2.97962  0.00000  0.04077
       4     C     3.08924  3.08924  0.00000 -0.17849
       5     H     0.44904  0.44904  0.00000  0.10191
       6     H     0.46940  0.46940  0.00000  0.06120
       7     C     3.10510  3.10510  0.00000 -0.21021
       8     H     0.45066  0.45066  0.00000  0.09868
       9     H     0.45528  0.45528  0.00000  0.08944
      10     C     3.10172  3.10172  0.00000 -0.20343
      11     H     0.45673  0.45673  0.00000  0.08654
      12     H     0.44946  0.44946  0.00000  0.10108
      13     C     3.09781  3.09781  0.00000 -0.19561
      14     H     0.45259  0.45259  0.00000  0.09483
      15     H     0.44730  0.44730  0.00000  0.10539
      16     C     3.08703  3.08703  0.00000 -0.17406
      17     H     0.44735  0.44735  0.00000  0.10531
      18     H     0.45449  0.45449  0.00000  0.09101
      19     C     3.08477  3.08477  0.00000 -0.16954
      20     H     0.45426  0.45426  0.00000  0.09149
      21     H     0.45333  0.45333  0.00000  0.09333
      22     C     3.14957  3.14957  0.00000 -0.29913
      23     H     0.45403  0.45403  0.00000  0.09194
      24     H     0.45476  0.45476  0.00000  0.09049
      25     H     0.45494  0.45494  0.00000  0.09011
      26     H     0.44849  0.44849  0.00000  0.10302
      27     H     0.45516  0.45516  0.00000  0.08967

   Total alpha = 37.00000, Total beta = 37.00000, Total charge =  0.00000
