  ==> Input File <==

--------------------------------------------------------------------------
set {
	reference rhf
	basis 6-31G*
}

set_num_threads( 4 )
memory 2 gb

molecule MOL {
0 1

O	 0.625848	 1.349995	 -0.000749
C	 0.486307	 0.169203	 0.000779
C	 1.608116	 -0.841643	 0.000302
O	 -0.698257	 -0.426125	 0.001050
C	 2.990107	 -0.200498	 -0.000684
H	 1.468623	 -1.481519	 -0.865924
H	 1.469683	 -1.481289	 0.866878
H	 3.129736	 0.423364	 -0.875135
H	 3.757882	 -0.966877	 -0.001197
H	 3.130964	 0.423383	 0.873533
C	 -0.921839	 -1.446660	 -0.966379
C	 -2.329511	 -1.965273	 -0.761899
H	 -0.185016	 -2.226876	 -0.832444
H	 -0.788940	 -1.030086	 -1.955518
H	 -2.447878	 -2.374095	 0.235102
H	 -2.542821	 -2.748669	 -1.481925
H	 -3.055204	 -1.170834	 -0.894157

	symmetry c1
}
set optking {
	frozen_dihedral = ("
		11 4 2 3
	")
}

ee = optimize('scf')
oeprop('DIPOLE', 'QUADRUPOLE', 'MULLIKEN_CHARGES')
f=open( 'psi4out.xyz', 'w' )
f.write( "17  " )
f.write( str(ee) + "\n" )
f.write( MOL.save_string_xyz() )
f.close()
--------------------------------------------------------------------------

    Molecular point group: c1
  Charge       = 0
  Multiplicity = 1
  Basis Set: 6-31G*
  Basis Set:
  @DF-RHF Final Energy:  -344.88640966810686
    Total Energy =                       -344.8864096681068645
    Molecular point group: c1
  Basis Set: 6-31G*
  Basis Set:
  Basis Set: 6-31G*
  Basis Set:
  @DF-RHF Final Energy:  -344.88851338605133
    Total Energy =                       -344.8885133860514429
  Basis Set: 6-31G*
  Basis Set:
  Basis Set: 6-31G*
  Basis Set:
  @DF-RHF Final Energy:  -344.89269928201014
    Total Energy =                       -344.8926992820101987
  Basis Set: 6-31G*
  Basis Set:
  Basis Set: 6-31G*
  Basis Set:
  @DF-RHF Final Energy:  -344.89351754771502
    Total Energy =                       -344.8935175477151347
  Basis Set: 6-31G*
  Basis Set:
  @DF-RHF Final Energy:  -344.89358828525872
    Total Energy =                       -344.8935882852587156
  Basis Set: 6-31G*
  Basis Set:
  @DF-RHF Final Energy:  -344.89368174885351
    Total Energy =                       -344.8936817488537372
  Basis Set: 6-31G*
  Basis Set:
  Basis Set: 6-31G*
  Basis Set:
  @DF-RHF Final Energy:  -344.89369331325992
    Total Energy =                       -344.8936933132599734
  Basis Set: 6-31G*
  Basis Set:
  Basis Set: 6-31G*
  Basis Set:
  @DF-RHF Final Energy:  -344.89369602540489
    Total Energy =                       -344.8936960254044379
  Basis Set: 6-31G*
  Basis Set:
  Charge       = 0
  Multiplicity = 1
  Basis Set: 6-31G*
  Basis Set:

    Orbital Energies (a.u.)
    -----------------------

    Doubly Occupied:

       1A    -20.590721     2A    -20.547835     3A    -11.373109
       4A    -11.299146     5A    -11.245043     6A    -11.226386
       7A    -11.219643     8A     -1.458765     9A     -1.366126
      10A     -1.063573    11A     -1.043175    12A     -0.901186
      13A     -0.875983    14A     -0.770492    15A     -0.703092
      16A     -0.689814    17A     -0.655032    18A     -0.637616
      19A     -0.599193    20A     -0.564527    21A     -0.560067
      22A     -0.537827    23A     -0.526869    24A     -0.517963
      25A     -0.509617    26A     -0.487867    27A     -0.449614
      28A     -0.432601

  @DF-RHF Final Energy:  -344.89369663837249

   => Energetics <=

    Nuclear Repulsion Energy =            314.8280180017434304
    One-Electron Energy =               -1093.7376640922816478
    Two-Electron Energy =                 434.0159494521657280
    DFT Exchange-Correlation Energy =       0.0000000000000000
    Empirical Dispersion Energy =           0.0000000000000000
    PCM Polarization Energy =               0.0000000000000000
    EFP Energy =                            0.0000000000000000
    Total Energy =                       -344.8936966383724894
    Molecular point group: c1
  Basis Set: 6-31G*
  Basis Set:

  -Total Gradient:
     Atom            X                  Y                   Z
    ------   -----------------  -----------------  -----------------
       1       -0.000048174488    -0.000081886566     0.000082179120
       2       -0.000754169763     0.001187695620    -0.005461117159
       3        0.000179343801     0.000064969027     0.002815393517
       4        0.001875297422    -0.003251258298     0.004579642476
       5       -0.000015632774    -0.000022065499     0.000016661178
       6        0.000009215902    -0.000022134393     0.000017533875
       7       -0.000030507507    -0.000003200230     0.000016363673
       8        0.000012625433     0.000009370749    -0.000008094396
       9        0.000001257270    -0.000000571294    -0.000005930123
      10       -0.000008950145    -0.000005876937    -0.000008269137
      11       -0.001232509498     0.002145809238    -0.002043835685
      12       -0.000004571473     0.000018065323    -0.000021458616
      13        0.000037998890    -0.000002525503     0.000029634377
      14       -0.000033178057    -0.000028016426    -0.000007239293
      15        0.000012198874     0.000004708158    -0.000005082174
      16        0.000000066372    -0.000012793414    -0.000000052959
      17       -0.000000310257    -0.000000289553     0.000003671324

  **** Optimization is complete! (in 9 steps) ****
    Final optimized geometry and variables:
    Molecular point group: c1

    Geometry (in Angstrom), charge = 0, multiplicity = 1:

    O            0.341294650351     1.761530073352     0.280487821131
    C            0.281365875791     0.583588597502     0.197088830470
    C            1.499266116315    -0.317363622701     0.148603598460
    O           -0.909988978279    -0.034671571936     0.252833990383
    C            2.807006560098     0.448233829717     0.312603269771
    H            1.499318448718    -0.863709755793    -0.790896229466
    H            1.379584424036    -1.063535187598     0.929261547966
    H            2.928638207865     1.181762674776    -0.474475818296
    H            3.647152362534    -0.237103684038     0.276862083134
    H            2.833288066537     0.974034977019     1.258854578956
    C           -1.233997603759    -1.068799498607    -0.661260341097
    C           -2.712624667453    -1.359006388176    -0.511239681160
    H           -0.647884586062    -1.956072280534    -0.448566760099
    H           -1.008295552924    -0.744666737942    -1.671667820668
    H           -2.934547691391    -1.672509620042     0.502093406803
    H           -3.008415459002    -2.150987392694    -1.191775312042
    H           -3.295717585995    -0.473180376735    -0.731351058120

  Mulliken Charges: (a.u.)
   Center  Symbol    Alpha    Beta     Spin     Total
       1     O     4.25780  4.25780  0.00000 -0.51560
       2     C     2.60759  2.60759  0.00000  0.78481
       3     C     3.22343  3.22343  0.00000 -0.44686
       4     O     4.31315  4.31315  0.00000 -0.62630
       5     C     3.23613  3.23613  0.00000 -0.47226
       6     H     0.40580  0.40580  0.00000  0.18841
       7     H     0.40078  0.40078  0.00000  0.19844
       8     H     0.40813  0.40813  0.00000  0.18375
       9     H     0.41880  0.41880  0.00000  0.16240
      10     H     0.40803  0.40803  0.00000  0.18394
      11     C     3.00461  3.00461  0.00000 -0.00921
      12     C     3.24530  3.24530  0.00000 -0.49060
      13     H     0.42020  0.42020  0.00000  0.15959
      14     H     0.41758  0.41758  0.00000  0.16484
      15     H     0.40886  0.40886  0.00000  0.18228
      16     H     0.41807  0.41807  0.00000  0.16385
      17     H     0.40575  0.40575  0.00000  0.18850

   Total alpha = 28.00000, Total beta = 28.00000, Total charge = -0.00000
