  ==> Input File <==

--------------------------------------------------------------------------
set {
	reference rhf
	basis 6-31G*
}

set_num_threads( 4 )
memory 2 gb

molecule MOL {
0 1

H	 -2.792532	 0.267064	 -0.365439
O	 -2.035884	 -0.060112	 0.102722
C	 -0.955155	 0.788182	 -0.092531
C	 0.353668	 0.040312	 -0.004810
H	 -0.985057	 1.290372	 -1.054184
H	 -0.974469	 1.533190	 0.688632
F	 0.394464	 -0.937475	 -0.903053
F	 1.368604	 0.853376	 -0.249821
F	 0.546173	 -0.502608	 1.179981

	symmetry c1
}
set optking {
	frozen_dihedral = ("
		1 2 3 5
	")
}

ee = optimize('scf')
oeprop('DIPOLE', 'QUADRUPOLE', 'MULLIKEN_CHARGES')
f=open( 'psi4out.xyz', 'w' )
f.write( "9  " )
f.write( str(ee) + "\n" )
f.write( MOL.save_string_xyz() )
f.close()
--------------------------------------------------------------------------

    Molecular point group: c1
  Charge       = 0
  Multiplicity = 1
  Basis Set: 6-31G*
  Basis Set:
  @DF-RHF Final Energy:  -450.65796501109605
    Total Energy =                       -450.6579650110961666
    Molecular point group: c1
  Basis Set: 6-31G*
  Basis Set:
  Basis Set: 6-31G*
  Basis Set:
  @DF-RHF Final Energy:  -450.65913650842964
    Total Energy =                       -450.6591365084295830
  Basis Set: 6-31G*
  Basis Set:
  Basis Set: 6-31G*
  Basis Set:
  @DF-RHF Final Energy:  -450.65943402361154
    Total Energy =                       -450.6594340236116523
  Basis Set: 6-31G*
  Basis Set:
  Basis Set: 6-31G*
  Basis Set:
  @DF-RHF Final Energy:  -450.65944272741933
    Total Energy =                       -450.6594427274192753
  Basis Set: 6-31G*
  Basis Set:
  Charge       = 0
  Multiplicity = 1
  Basis Set: 6-31G*
  Basis Set:

    Orbital Energies (a.u.)
    -----------------------

    Doubly Occupied:

       1A    -26.336535     2A    -26.332841     3A    -26.332539
       4A    -20.588992     5A    -11.495904     6A    -11.309904
       7A     -1.733180     8A     -1.631056     9A     -1.629434
      10A     -1.400975    11A     -1.047752    12A     -0.916701
      13A     -0.824830    14A     -0.822824    15A     -0.783310
      16A     -0.735272    17A     -0.705882    18A     -0.695566
      19A     -0.664747    20A     -0.649317    21A     -0.635765
      22A     -0.634220    23A     -0.594513    24A     -0.529790
      25A     -0.478596

  @DF-RHF Final Energy:  -450.65944450039916

   => Energetics <=

    Nuclear Repulsion Energy =            277.0273568579647758
    One-Electron Energy =               -1176.3527181422909962
    Two-Electron Energy =                 448.6659167839272300
    DFT Exchange-Correlation Energy =       0.0000000000000000
    Empirical Dispersion Energy =           0.0000000000000000
    PCM Polarization Energy =               0.0000000000000000
    EFP Energy =                            0.0000000000000000
    Total Energy =                       -450.6594445003989335
    Molecular point group: c1
  Basis Set: 6-31G*
  Basis Set:

  -Total Gradient:
     Atom            X                  Y                   Z
    ------   -----------------  -----------------  -----------------
       1        0.000047034957    -0.000111249851    -0.000169211770
       2       -0.000036650840     0.000255057430     0.000169012887
       3        0.000120793225    -0.000281101776    -0.000032660738
       4        0.000055208961     0.000181599396     0.000088244864
       5       -0.000138981559     0.000108690884     0.000056286810
       6       -0.000017609226    -0.000001485080    -0.000010089879
       7        0.000026744899    -0.000031162162    -0.000030441225
       8       -0.000041469899    -0.000103482000    -0.000030361599
       9       -0.000015070514    -0.000016866843    -0.000040779355

  **** Optimization is complete! (in 5 steps) ****
    Final optimized geometry and variables:
    Molecular point group: c1

    Geometry (in Angstrom), charge = 0, multiplicity = 1:

    H           -2.760304382172     0.198895941717    -0.352226526043
    O           -1.994544584669    -0.072575069944     0.131560329877
    C           -0.939025392512     0.802969555462    -0.100584953427
    C            0.349894730030     0.023934474604    -0.018937658557
    H           -0.979696863175     1.254753706332    -1.085168109374
    H           -0.898003132412     1.591417795700     0.642834864056
    F            0.419251996229    -0.911087143337    -0.947621587457
    F            1.375153019960     0.846229505849    -0.199327352252
    F            0.502968856899    -0.557874250459     1.153831219531

  Mulliken Charges: (a.u.)
   Center  Symbol    Alpha    Beta     Spin     Total
       1     H     0.27113  0.27113  0.00000  0.45775
       2     O     4.36348  4.36348  0.00000 -0.72695
       3     C     3.05375  3.05375  0.00000 -0.10751
       4     C     2.45343  2.45343  0.00000  1.09314
       5     H     0.41043  0.41043  0.00000  0.17913
       6     H     0.40781  0.40781  0.00000  0.18439
       7     F     4.67808  4.67808  0.00000 -0.35616
       8     F     4.68539  4.68539  0.00000 -0.37079
       9     F     4.67650  4.67650  0.00000 -0.35301

   Total alpha = 25.00000, Total beta = 25.00000, Total charge =  0.00000
