  ==> Input File <==

--------------------------------------------------------------------------
set {
	reference rhf
	basis 6-31G*
}

set_num_threads( 1 )
memory 2 gb

molecule MOL {
0 1

O	 0.441212	 0.830774	 -4.546312
C	 -0.115601	 0.985928	 -3.502128
C	 0.066461	 -0.007175	 -2.367709
C	 -0.998642	 2.186326	 -3.243944
C	 1.400664	 0.228823	 -1.641520
H	 0.059834	 -1.002742	 -2.797948
H	 -0.757260	 0.062314	 -1.662953
C	 1.631333	 -0.777471	 -0.511575
H	 2.198666	 0.170974	 -2.373115
H	 1.421707	 1.237767	 -1.232453
C	 2.915987	 -0.544314	 0.291766
H	 1.644456	 -1.783954	 -0.925757
H	 0.784372	 -0.739318	 0.170371
C	 3.373361	 0.914346	 0.347591
H	 3.708709	 -1.142521	 -0.150311
H	 2.780642	 -0.921148	 1.303579
H	 3.506512	 1.320010	 -0.651625
H	 4.322697	 0.999599	 0.867103
H	 2.660624	 1.545032	 0.868198
H	 -2.028354	 1.862032	 -3.118279
H	 -0.938293	 2.875841	 -4.074433
H	 -0.706772	 2.687921	 -2.325784

	symmetry c1
}
set optking {
	frozen_dihedral = ("
		6 3 2 1,
		6 3 5 8,
		3 5 8 12
	")
}

ee = energy('scf')
oeprop('DIPOLE', 'QUADRUPOLE', 'MULLIKEN_CHARGES')
f=open( 'psi4out.xyz', 'w' )
f.write( "22  " )
f.write( str(ee) + "\n" )
f.write( MOL.save_string_xyz() )
f.close()
--------------------------------------------------------------------------

    Molecular point group: c1

    Geometry (in Angstrom), charge = 0, multiplicity = 1:

       Center              X                  Y                   Z               Mass
    ------------   -----------------  -----------------  -----------------  -----------------
           O         -0.655532461690     0.336896378436    -2.649124919546    15.994914619560
           C         -1.212345461690     0.492050378436    -1.604940919546    12.000000000000
           C         -1.030283461690    -0.501052621564    -0.470521919546    12.000000000000
           C         -2.095386461690     1.692448378436    -1.346756919546    12.000000000000
           C          0.303919538310    -0.265054621564     0.255667080454    12.000000000000
           H         -1.036910461690    -1.496619621564    -0.900760919546     1.007825032070
           H         -1.854004461690    -0.431563621564     0.234234080454     1.007825032070
           C          0.534588538310    -1.271348621564     1.385612080454    12.000000000000
           H          1.101921538310    -0.322903621564    -0.475927919546     1.007825032070
           H          0.324962538310     0.743889378436     0.664734080454     1.007825032070
           C          1.819242538310    -1.038191621564     2.188953080454    12.000000000000
           H          0.547711538310    -2.277831621564     0.971430080454     1.007825032070
           H         -0.312372461690    -1.233195621564     2.067558080454     1.007825032070
           C          2.276616538310     0.420468378436     2.244778080454    12.000000000000
           H          2.611964538310    -1.636398621564     1.746876080454     1.007825032070
           H          1.683897538310    -1.415025621564     3.200766080454     1.007825032070
           H          2.409767538310     0.826132378436     1.245562080454     1.007825032070
           H          3.225952538310     0.505721378436     2.764290080454     1.007825032070
           H          1.563879538310     1.051154378436     2.765385080454     1.007825032070
           H         -3.125098461690     1.368154378436    -1.221091919546     1.007825032070
           H         -2.035037461690     2.381963378436    -2.177245919546     1.007825032070
           H         -1.803516461690     2.194043378436    -0.428596919546     1.007825032070

  Charge       = 0
  Multiplicity = 1
  Basis Set: 6-31G*
  Basis Set:

    Orbital Energies (a.u.)
    -----------------------

    Doubly Occupied:

       1A    -20.547089     2A    -11.324240     3A    -11.229044
       4A    -11.228458     5A    -11.228107     6A    -11.221703
       7A    -11.220022     8A    -11.212370     9A     -1.392872
      10A     -1.096889    11A     -1.043889    12A     -0.998424
      13A     -0.937009    14A     -0.865272    15A     -0.778624
      16A     -0.733224    17A     -0.663529    18A     -0.646562
      19A     -0.630261    20A     -0.617713    21A     -0.596374
      22A     -0.585770    23A     -0.557156    24A     -0.547507
      25A     -0.528179    26A     -0.524283    27A     -0.502874
      28A     -0.484770    29A     -0.467761    30A     -0.463887
      31A     -0.457348    32A     -0.396053

  @DF-RHF Final Energy:  -348.09219853161443

   => Energetics <=

    Nuclear Repulsion Energy =            375.7566254548990514
    One-Electron Energy =               -1216.2429385458794968
    Two-Electron Energy =                 492.3941145593661304
    DFT Exchange-Correlation Energy =       0.0000000000000000
    Empirical Dispersion Energy =           0.0000000000000000
    PCM Polarization Energy =               0.0000000000000000
    EFP Energy =                            0.0000000000000000
    Total Energy =                       -348.0921985316143719

  Mulliken Charges: (a.u.)
   Center  Symbol    Alpha    Beta     Spin     Total
       1     O     4.26265  4.26265  0.00000 -0.52530
       2     C     2.73714  2.73714  0.00000  0.52572
       3     C     3.19866  3.19866  0.00000 -0.39732
       4     C     3.28960  3.28960  0.00000 -0.57919
       5     C     3.16826  3.16826  0.00000 -0.33652
       6     H     0.40160  0.40160  0.00000  0.19679
       7     H     0.41708  0.41708  0.00000  0.16584
       8     C     3.15322  3.15322  0.00000 -0.30644
       9     H     0.40565  0.40565  0.00000  0.18870
      10     H     0.41659  0.41659  0.00000  0.16683
      11     C     3.15306  3.15306  0.00000 -0.30611
      12     H     0.41762  0.41762  0.00000  0.16475
      13     H     0.42322  0.42322  0.00000  0.15356
      14     C     3.24687  3.24687  0.00000 -0.49375
      15     H     0.41992  0.41992  0.00000  0.16017
      16     H     0.41910  0.41910  0.00000  0.16180
      17     H     0.41666  0.41666  0.00000  0.16668
      18     H     0.41699  0.41699  0.00000  0.16602
      19     H     0.42234  0.42234  0.00000  0.15532
      20     H     0.40692  0.40692  0.00000  0.18617
      21     H     0.39712  0.39712  0.00000  0.20576
      22     H     0.40975  0.40975  0.00000  0.18051

   Total alpha = 32.00000, Total beta = 32.00000, Total charge = -0.00000
