                              Psi4 1.0.54 Driver

  ==> Input File <==

--------------------------------------------------------------------------
set {
	reference rhf
	basis cc-pvtz
}

set_num_threads( 4 )
memory 2 gb

molecule MOL {
0 1

H	 1.657262	 -0.487393	 1.820863
C	 1.848746	 -0.115982	 0.805461
C	 0.692262	 0.592428	 0.156232
O	 2.903978	 -0.289652	 0.301519
C	 -0.554654	 -0.292621	 0.086567
H	 0.999304	 0.919107	 -0.828574
H	 0.474980	 1.475698	 0.753309
C	 -1.846385	 0.513195	 -0.016346
H	 -0.473986	 -0.956115	 -0.769708
H	 -0.597929	 -0.929215	 0.966651
C	 -3.089953	 -0.365049	 -0.098564
H	 -1.798267	 1.154820	 -0.891143
H	 -1.925398	 1.173265	 0.842889
H	 -3.055079	 -1.012299	 -0.968245
H	 -3.988403	 0.236438	 -0.170014
H	 -3.183055	 -0.995885	 0.779079

	symmetry c1
}
set optking {
	frozen_dihedral = ("
		6 3 5 9
	")
}

ee,wfn = optimize('scf', return_wfn=True)
oeprop( wfn, 'DIPOLE', 'QUADRUPOLE', 'MULLIKEN_CHARGES')
f=open( 'psi4out.xyz', 'w' )
f.write( "16  " )
f.write( str(ee) + "\n" )
f.write( MOL.save_string_xyz() )
f.close()
--------------------------------------------------------------------------

    Molecular point group: c1
  Charge       = 0
  Multiplicity = 1
  Basis Set: CC-PVTZ
  Basis Set:
  @DF-RHF Final Energy:  -270.11786358836980
    Total Energy =                       -270.1178635883696302
    Molecular point group: c1
  Basis Set: CC-PVTZ
  Basis Set:
  Basis Set: CC-PVTZ
  Basis Set:
  @DF-RHF Final Energy:  -270.11796442072159
    Total Energy =                       -270.1179644207217052
  Basis Set: CC-PVTZ
  Basis Set:
  Basis Set: CC-PVTZ
  Basis Set:
  @DF-RHF Final Energy:  -270.11761400300145
    Total Energy =                       -270.1176140030017336
  Basis Set: CC-PVTZ
  Basis Set:
  Basis Set: CC-PVTZ
  Basis Set:
  @DF-RHF Final Energy:  -270.11800602560459
    Total Energy =                       -270.1180060256045863
  Basis Set: CC-PVTZ
  Basis Set:
  Basis Set: CC-PVTZ
  Basis Set:
  @DF-RHF Final Energy:  -270.11801548553291
    Total Energy =                       -270.1180154855328510
  Basis Set: CC-PVTZ
  Basis Set:
  Charge       = 0
  Multiplicity = 1
  Basis Set: CC-PVTZ
  Basis Set:

    Orbital Energies (a.u.)
    -----------------------

    Doubly Occupied:

       1A    -20.552097     2A    -11.321210     3A    -11.234711
       4A    -11.234042     5A    -11.227550     6A    -11.216726
       7A     -1.407052     8A     -1.097484     9A     -1.019944
      10A     -0.906985    11A     -0.813103    12A     -0.793919
      13A     -0.679453    14A     -0.652101    15A     -0.630435
      16A     -0.605120    17A     -0.581966    18A     -0.554907
      19A     -0.531836    20A     -0.509523    21A     -0.487254
      22A     -0.482539    23A     -0.480820    24A     -0.411329

  @DF-RHF Final Energy:  -270.11801625650276

   => Energetics <=

    Nuclear Repulsion Energy =            229.3204645790311531
    One-Electron Energy =                -820.0127476940060660
    Two-Electron Energy =                 320.5742668584724697
    DFT Exchange-Correlation Energy =       0.0000000000000000
    Empirical Dispersion Energy =           0.0000000000000000
    PCM Polarization Energy =               0.0000000000000000
    EFP Energy =                            0.0000000000000000
    Total Energy =                       -270.1180162565024148
    Molecular point group: c1
  Basis Set: CC-PVTZ
  Basis Set:

  -Total Gradient:
     Atom            X                  Y                   Z
    ------   -----------------  -----------------  -----------------
       1        0.000019601508    -0.000010175639    -0.000028557740
       2        0.000078532418     0.000008472099    -0.000031801495
       3       -0.002798674103     0.003829755163    -0.000064728673
       4       -0.000078810325     0.000035700709     0.000059007079
       5        0.002347670103    -0.003412339977     0.002247631218
       6        0.001907587584    -0.002704784758    -0.000257179080
       7        0.000036940034    -0.000002004618     0.000009314029
       8       -0.000012599539    -0.000017768884    -0.000077163039
       9       -0.001494114494     0.002230524844    -0.001859204670
      10       -0.000005364877     0.000024961040    -0.000026568525
      11       -0.000011696870     0.000006600283     0.000038479746
      12       -0.000002684561     0.000007453433    -0.000007875123
      13        0.000008607160    -0.000001455935    -0.000017399683
      14        0.000006517029     0.000021724156     0.000013484464
      15        0.000001710387    -0.000004312945     0.000012403951
      16       -0.000003221450    -0.000012348970    -0.000009842460

  **** Optimization is complete! (in 6 steps) ****
    Final optimized geometry and variables:
    Molecular point group: c1

    Geometry (in Angstrom), charge = 0, multiplicity = 1:

    H            1.714900744806    -0.479524305296     1.609541763365
    C            1.874561731845    -0.117182306424     0.585266325190
    C            0.702655460924     0.602776343465    -0.026365416849
    O            2.908296750247    -0.307734447096     0.044727025097
    C           -0.547424874594    -0.285111933904    -0.072071844429
    H            0.998553139144     0.918138198093    -1.017664582280
    H            0.510750388802     1.482694381844     0.582655913905
    C           -1.839891655353     0.518433111387    -0.203019331835
    H           -0.469948350051    -0.954773376357    -0.922313641185
    H           -0.600562937033    -0.903258285055     0.819976886295
    C           -3.079463849129    -0.362181541551    -0.312288017062
    H           -1.773960012165     1.160760465701    -1.076612743955
    H           -1.938804724559     1.178193861881     0.654284112532
    H           -3.027584089020    -1.004905019706    -1.184451117679
    H           -3.978253461212     0.237181699210    -0.396374427906
    H           -3.186336794024    -0.998105357304     0.560193551540

  Mulliken Charges: (a.u.)
   Center  Symbol    Alpha    Beta     Spin     Total
       1     H     0.46624  0.46624  0.00000  0.06753
       2     C     2.90638  2.90638  0.00000  0.18723
       3     C     3.07873  3.07873  0.00000 -0.15745
       4     O     4.16418  4.16418  0.00000 -0.32836
       5     C     3.10166  3.10166  0.00000 -0.20333
       6     H     0.44171  0.44171  0.00000  0.11658
       7     H     0.45018  0.45018  0.00000  0.09964
       8     C     3.08544  3.08544  0.00000 -0.17088
       9     H     0.44509  0.44509  0.00000  0.10981
      10     H     0.45200  0.45200  0.00000  0.09599
      11     C     3.14924  3.14924  0.00000 -0.29849
      12     H     0.45096  0.45096  0.00000  0.09808
      13     H     0.45383  0.45383  0.00000  0.09235
      14     H     0.45323  0.45323  0.00000  0.09355
      15     H     0.44670  0.44670  0.00000  0.10660
      16     H     0.45442  0.45442  0.00000  0.09116

   Total alpha = 24.00000, Total beta = 24.00000, Total charge =  0.00000

*** Psi4 exiting successfully. Buy a developer a beer!
