  ==> Input File <==

--------------------------------------------------------------------------
set {
	reference rhf
	basis 6-31G*
}

set_num_threads( 4 )
memory 2 gb

molecule MOL {
0 1

O	 1.772246	 0.382488	 0.960198
C	 1.122059	 0.121804	 -0.000188
C	 -0.170150	 -0.657997	 -0.000612
O	 1.459421	 0.493588	 -1.228577
C	 -1.412532	 0.227344	 -0.000452
H	 -0.153702	 -1.313099	 -0.867402
H	 -0.153924	 -1.313811	 0.865644
C	 -2.706999	 -0.587347	 -0.000541
H	 -1.388000	 0.879466	 -0.868000
H	 -1.387972	 0.879138	 0.867341
C	 -3.956778	 0.291888	 0.000910
H	 -2.726114	 -1.239230	 -0.871609
H	 -2.725217	 -1.240844	 0.869333
H	 -3.985213	 0.933254	 -0.875158
H	 -4.860123	 -0.309979	 0.000519
H	 -3.984618	 0.931166	 0.878514
C	 2.657119	 1.235797	 -1.369247
H	 2.598772	 2.160364	 -0.813136
H	 2.755905	 1.439486	 -2.424093
H	 3.502906	 0.662610	 -1.017671

	symmetry c1
}
set optking {
	frozen_dihedral = ("
		1 2 3 6
	")
}

ee = optimize('scf')
oeprop('DIPOLE', 'QUADRUPOLE', 'MULLIKEN_CHARGES')
f=open( 'psi4out.xyz', 'w' )
f.write( "20  " )
f.write( str(ee) + "\n" )
f.write( MOL.save_string_xyz() )
f.close()
--------------------------------------------------------------------------

    Molecular point group: c1
  Charge       = 0
  Multiplicity = 1
  Basis Set: 6-31G*
  Basis Set:
  @DF-RHF Final Energy:  -383.93965635479378
    Total Energy =                       -383.9396563547935557
    Molecular point group: c1
  Basis Set: 6-31G*
  Basis Set:
  Basis Set: 6-31G*
  Basis Set:
  @DF-RHF Final Energy:  -383.93964486461050
    Total Energy =                       -383.9396448646102726
  Basis Set: 6-31G*
  Basis Set:
  Basis Set: 6-31G*
  Basis Set:
  @DF-RHF Final Energy:  -383.93957714267003
    Total Energy =                       -383.9395771426703732
  Basis Set: 6-31G*
  Basis Set:
  Basis Set: 6-31G*
  Basis Set:
  @DF-RHF Final Energy:  -383.94031237311594
    Total Energy =                       -383.9403123731159440
  Basis Set: 6-31G*
  Basis Set:
  Basis Set: 6-31G*
  Basis Set:
  @DF-RHF Final Energy:  -383.94031427384436
    Total Energy =                       -383.9403142738445922
  Basis Set: 6-31G*
  Basis Set:
  Charge       = 0
  Multiplicity = 1
  Basis Set: 6-31G*
  Basis Set:

    Orbital Energies (a.u.)
    -----------------------

    Doubly Occupied:

       1A    -20.604278     2A    -20.543157     3A    -11.370680
       4A    -11.280612     5A    -11.233801     6A    -11.229951
       7A    -11.224474     8A    -11.214524     9A     -1.468540
      10A     -1.361116    11A     -1.093009    12A     -1.025284
      13A     -0.967326    14A     -0.890221    15A     -0.807323
      16A     -0.773621    17A     -0.693837    18A     -0.679773
      19A     -0.673286    20A     -0.647250    21A     -0.598050
      22A     -0.591913    23A     -0.574947    24A     -0.553252
      25A     -0.533797    26A     -0.519474    27A     -0.512254
      28A     -0.483791    29A     -0.480273    30A     -0.475919
      31A     -0.453649    32A     -0.429422

  @DF-RHF Final Energy:  -383.94031432235624

   => Energetics <=

    Nuclear Repulsion Energy =            383.3261533618903059
    One-Electron Energy =               -1282.5553242253436110
    Two-Electron Energy =                 515.2888565410969477
    DFT Exchange-Correlation Energy =       0.0000000000000000
    Empirical Dispersion Energy =           0.0000000000000000
    PCM Polarization Energy =               0.0000000000000000
    EFP Energy =                            0.0000000000000000
    Total Energy =                       -383.9403143223563575
    Molecular point group: c1
  Basis Set: 6-31G*
  Basis Set:

  -Total Gradient:
     Atom            X                  Y                   Z
    ------   -----------------  -----------------  -----------------
       1       -0.000155467255     0.000245608272     0.000004758500
       2        0.000168353428    -0.000272436210    -0.000060214807
       3        0.000104196083    -0.000137398632     0.000245075156
       4       -0.000007682817    -0.000024420629     0.000024221714
       5       -0.000007821348     0.000030487856    -0.000023478093
       6       -0.000128246919     0.000211069551    -0.000142845691
       7        0.000002310646    -0.000023833308    -0.000033086802
       8        0.000008337680    -0.000013129193    -0.000008931702
       9        0.000008626250    -0.000014288292     0.000004985427
      10        0.000001424223    -0.000001026077    -0.000023751691
      11        0.000002227704     0.000005970741     0.000019890145
      12       -0.000002003486     0.000006285165    -0.000005225107
      13        0.000008703323    -0.000011444779    -0.000006928184
      14        0.000001592035    -0.000004311111     0.000002250867
      15       -0.000002611107     0.000000320889     0.000006096811
      16       -0.000005371654     0.000008984227    -0.000000621751
      17       -0.000004026015    -0.000010693787    -0.000000838344
      18        0.000000536629     0.000000269514     0.000000269504
      19        0.000004150141     0.000003646595    -0.000001155390
      20        0.000002772458     0.000000339209    -0.000000470560

  **** Optimization is complete! (in 6 steps) ****
    Final optimized geometry and variables:
    Molecular point group: c1

    Geometry (in Angstrom), charge = 0, multiplicity = 1:

    O            1.900800380364     0.126704934904     1.172989153276
    C            1.250186281885    -0.127701580372     0.210639254563
    C           -0.032273103692    -0.920171178254     0.220376210668
    O            1.562155586809     0.293490206388    -1.008695244772
    C           -1.258603646704     0.004876796146     0.188571815780
    H           -0.046983965207    -1.578538096201    -0.641030613454
    H           -0.036633804134    -1.520989874203     1.120823872876
    C           -2.574425108885    -0.773427903223     0.228004286747
    H           -1.222770520729     0.616017734537    -0.708747186806
    H           -1.212912525233     0.684281637559     1.036014188849
    C           -3.800192737849     0.138696104035     0.204999375377
    H           -2.614592439195    -1.455340251866    -0.618484861556
    H           -2.600243173224    -1.391850960280     1.122221070801
    H           -3.819765248611     0.746647637737    -0.694899028956
    H           -4.718413361909    -0.439241545404     0.233955196548
    H           -3.804830501596     0.810631877674     1.058311581502
    C            2.726444876837     1.089462796625    -1.134603237544
    H            2.633894473340     1.993211059597    -0.549607489652
    H            2.808469961496     1.329182922052    -2.183317147316
    H            3.597821899409     0.541556197790    -0.806196796475

  Mulliken Charges: (a.u.)
   Center  Symbol    Alpha    Beta     Spin     Total
       1     O     4.28504  4.28504  0.00000 -0.57009
       2     C     2.61730  2.61730  0.00000  0.76540
       3     C     3.19360  3.19360  0.00000 -0.38720
       4     O     4.30294  4.30294  0.00000 -0.60587
       5     C     3.16502  3.16502  0.00000 -0.33005
       6     H     0.40440  0.40440  0.00000  0.19120
       7     H     0.39979  0.39979  0.00000  0.20042
       8     C     3.15284  3.15284  0.00000 -0.30568
       9     H     0.41075  0.41075  0.00000  0.17850
      10     H     0.41127  0.41127  0.00000  0.17746
      11     C     3.24031  3.24031  0.00000 -0.48061
      12     H     0.42075  0.42075  0.00000  0.15850
      13     H     0.41972  0.41972  0.00000  0.16057
      14     H     0.42034  0.42034  0.00000  0.15932
      15     H     0.41733  0.41733  0.00000  0.16534
      16     H     0.41959  0.41959  0.00000  0.16082
      17     C     3.09252  3.09252  0.00000 -0.18504
      18     H     0.40915  0.40915  0.00000  0.18171
      19     H     0.40883  0.40883  0.00000  0.18234
      20     H     0.40852  0.40852  0.00000  0.18296

   Total alpha = 32.00000, Total beta = 32.00000, Total charge = -0.00000
