  ==> Input File <==

--------------------------------------------------------------------------
set {
	reference rhf
	basis 6-31G*
}

set_num_threads( 1 )
memory 2 gb

molecule MOL {
0 1

H	 -2.499100	 -0.730091	 -0.745082
O	 -2.347518	 -0.290803	 0.079804
C	 -1.184022	 0.487508	 -0.006784
C	 0.062599	 -0.378592	 0.031606
H	 -1.176523	 1.099369	 -0.904519
H	 -1.187323	 1.153111	 0.844927
O	 1.171513	 0.459272	 -0.058250
H	 0.050699	 -1.089204	 -0.797170
H	 0.078739	 -0.954914	 0.954740
C	 1.058511	 1.645745	 0.661927
H	 0.931278	 1.454799	 1.725873
H	 1.970963	 2.206317	 0.513289
H	 0.217145	 2.242163	 0.315258

	symmetry c1
}
set optking {
	frozen_dihedral = ("
		8 4 3 5,
		1 2 3 5,
		4 7 10 13
	")
}

ee = energy('scf')
oeprop('DIPOLE', 'QUADRUPOLE', 'MULLIKEN_CHARGES')
f=open( 'psi4out.xyz', 'w' )
f.write( "13  " )
f.write( str(ee) + "\n" )
f.write( MOL.save_string_xyz() )
f.close()
--------------------------------------------------------------------------

    Molecular point group: c1

    Geometry (in Angstrom), charge = 0, multiplicity = 1:

       Center              X                  Y                   Z               Mass
    ------------   -----------------  -----------------  -----------------  -----------------
           H         -2.220452805372    -1.113697944128    -0.883249620262     1.007825032070
           O         -2.068870805372    -0.674409944128    -0.058363620262    15.994914619560
           C         -0.905374805372     0.103901055872    -0.144951620262    12.000000000000
           C          0.341246194628    -0.762198944128    -0.106561620262    12.000000000000
           H         -0.897875805372     0.715762055872    -1.042686620262     1.007825032070
           H         -0.908675805372     0.769504055872     0.706759379738     1.007825032070
           O          1.450160194628     0.075665055872    -0.196417620262    15.994914619560
           H          0.329346194628    -1.472810944128    -0.935337620262     1.007825032070
           H          0.357386194628    -1.338520944128     0.816572379738     1.007825032070
           C          1.337158194628     1.262138055872     0.523759379738    12.000000000000
           H          1.209925194628     1.071192055872     1.587705379738     1.007825032070
           H          2.249610194628     1.822710055872     0.375121379738     1.007825032070
           H          0.495792194628     1.858556055872     0.177090379738     1.007825032070

  Charge       = 0
  Multiplicity = 1
  Basis Set: 6-31G*
  Basis Set:

    Orbital Energies (a.u.)
    -----------------------

    Doubly Occupied:

       1A    -20.562477     2A    -20.560063     3A    -11.272361
       4A    -11.271686     5A    -11.269606     6A     -1.391025
       7A     -1.367266     8A     -1.010561     9A     -0.946551
      10A     -0.825999    11A     -0.718072    12A     -0.685932
      13A     -0.656632    14A     -0.638543    15A     -0.592780
      16A     -0.560641    17A     -0.545437    18A     -0.527533
      19A     -0.479196    20A     -0.442033    21A     -0.406319

  @DF-RHF Final Energy:  -267.93371391306499

   => Energetics <=

    Nuclear Repulsion Energy =            196.0804960959207506
    One-Electron Energy =                -754.5668739481048988
    Two-Electron Energy =                 290.5526639391184744
    DFT Exchange-Correlation Energy =       0.0000000000000000
    Empirical Dispersion Energy =           0.0000000000000000
    PCM Polarization Energy =               0.0000000000000000
    EFP Energy =                            0.0000000000000000
    Total Energy =                       -267.9337139130657306

  Mulliken Charges: (a.u.)
   Center  Symbol    Alpha    Beta     Spin     Total
       1     H     0.28114  0.28114  0.00000  0.43771
       2     O     4.37366  4.37366  0.00000 -0.74731
       3     C     3.02011  3.02011  0.00000 -0.04022
       4     C     2.99413  2.99413  0.00000  0.01173
       5     H     0.42160  0.42160  0.00000  0.15681
       6     H     0.40953  0.40953  0.00000  0.18095
       7     O     4.30543  4.30543  0.00000 -0.61087
       8     H     0.42091  0.42091  0.00000  0.15819
       9     H     0.42136  0.42136  0.00000  0.15728
      10     C     3.09375  3.09375  0.00000 -0.18750
      11     H     0.42621  0.42621  0.00000  0.14759
      12     H     0.40823  0.40823  0.00000  0.18355
      13     H     0.42395  0.42395  0.00000  0.15210

   Total alpha = 21.00000, Total beta = 21.00000, Total charge = -0.00000
