  ==> Input File <==

--------------------------------------------------------------------------
set {
	reference rhf
	basis cc-pvtz
}

set_num_threads( 4 )
memory 2 gb

molecule MOL {
0 1

H	 0.198976	 1.546456	 2.083597
C	 1.006006	 1.011482	 1.565756
C	 0.692262	 0.592428	 0.156232
O	 2.027937	 0.801299	 2.121737
C	 -0.554654	 -0.292621	 0.086567
H	 1.557617	 0.087136	 -0.252029
H	 0.524744	 1.498173	 -0.422941
C	 -1.846385	 0.513195	 -0.016346
H	 -0.473986	 -0.956115	 -0.769708
H	 -0.597929	 -0.929215	 0.966651
C	 -3.089953	 -0.365049	 -0.098564
H	 -1.798267	 1.154820	 -0.891143
H	 -1.925398	 1.173265	 0.842889
H	 -3.055079	 -1.012299	 -0.968245
H	 -3.988403	 0.236438	 -0.170014
H	 -3.183055	 -0.995885	 0.779079

	symmetry c1
}
set optking {
	frozen_dihedral = ("
		6 3 5 9
	")
}

ee = optimize('scf')
oeprop('DIPOLE', 'QUADRUPOLE', 'MULLIKEN_CHARGES')
f=open( 'psi4out.xyz', 'w' )
f.write( "16  " )
f.write( str(ee) + "\n" )
f.write( MOL.save_string_xyz() )
f.close()
--------------------------------------------------------------------------

    Molecular point group: c1
  Charge       = 0
  Multiplicity = 1
  Basis Set: CC-PVTZ
  Basis Set:
  @DF-RHF Final Energy:  -270.11589942895824
    Total Energy =                       -270.1158994289582438
    Molecular point group: c1
  Basis Set: CC-PVTZ
  Basis Set:
  Basis Set: CC-PVTZ
  Basis Set:
  @DF-RHF Final Energy:  -270.11603695825971
    Total Energy =                       -270.1160369582598832
  Basis Set: CC-PVTZ
  Basis Set:
  Basis Set: CC-PVTZ
  Basis Set:
  @DF-RHF Final Energy:  -270.11612234090398
    Total Energy =                       -270.1161223409039849
  Basis Set: CC-PVTZ
  Basis Set:
  Basis Set: CC-PVTZ
  Basis Set:
  @DF-RHF Final Energy:  -270.11623613280881
    Total Energy =                       -270.1162361328084671
  Basis Set: CC-PVTZ
  Basis Set:
  @DF-RHF Final Energy:  -270.11626237812209
    Total Energy =                       -270.1162623781220873
  @DF-RHF Final Energy:  -270.11627433510853
    Total Energy =                       -270.1162743351086988
  Basis Set: CC-PVTZ
  Basis Set:
  @DF-RHF Final Energy:  -270.11628468275910
    Total Energy =                       -270.1162846827592148
  Basis Set: CC-PVTZ
  Basis Set:
  Basis Set: CC-PVTZ
  Basis Set:
  @DF-RHF Final Energy:  -270.11630971065483
    Total Energy =                       -270.1163097106544910
  Basis Set: CC-PVTZ
  Basis Set:
  Basis Set: CC-PVTZ
  Basis Set:
  @DF-RHF Final Energy:  -270.11633842399874
    Total Energy =                       -270.1163384239987408
  Basis Set: CC-PVTZ
  Basis Set:
  Charge       = 0
  Multiplicity = 1
  Basis Set: CC-PVTZ
  Basis Set:

    Orbital Energies (a.u.)
    -----------------------

    Doubly Occupied:

       1A    -20.551235     2A    -11.321278     3A    -11.234414
       4A    -11.233815     5A    -11.229399     6A    -11.218020
       7A     -1.406285     8A     -1.097805     9A     -1.019199
      10A     -0.906427    11A     -0.824593    12A     -0.789007
      13A     -0.673016    14A     -0.659110    15A     -0.617740
      16A     -0.610134    17A     -0.583458    18A     -0.559343
      19A     -0.537214    20A     -0.511174    21A     -0.487347
      22A     -0.482988    23A     -0.475497    24A     -0.411508

  @DF-RHF Final Energy:  -270.11633920371560

   => Energetics <=

    Nuclear Repulsion Energy =            231.1943201091721676
    One-Electron Energy =                -823.7413050773836858
    Two-Electron Energy =                 322.4306457644958073
    DFT Exchange-Correlation Energy =       0.0000000000000000
    Empirical Dispersion Energy =           0.0000000000000000
    PCM Polarization Energy =               0.0000000000000000
    EFP Energy =                            0.0000000000000000
    Total Energy =                       -270.1163392037157109
    Molecular point group: c1
  Basis Set: CC-PVTZ
  Basis Set:

  -Total Gradient:
     Atom            X                  Y                   Z
    ------   -----------------  -----------------  -----------------
       1       -0.000006551937     0.000017830578     0.000009450405
       2       -0.000015930282    -0.000030318594     0.000011611373
       3        0.000664624787    -0.001176812775     0.002323689388
       4       -0.000015243438     0.000005138097    -0.000022035196
       5       -0.001049801199     0.001690488943    -0.001689369180
       6       -0.000361011511     0.000698291963    -0.001681666352
       7       -0.000009485546     0.000005265841    -0.000012627736
       8       -0.000018738678     0.000047709263     0.000052118328
       9        0.000782994808    -0.001240343086     0.001054854024
      10        0.000009122354     0.000003722081    -0.000014063150
      11        0.000015741980    -0.000023568551    -0.000028604328
      12        0.000008766612     0.000001268809     0.000009112436
      13       -0.000004056432     0.000005262048    -0.000004558517
      14       -0.000009122694    -0.000014431848    -0.000000329294
      15        0.000006803301     0.000003338392    -0.000007506197
      16        0.000001887875     0.000007158840    -0.000000076004

  **** Optimization is complete! (in 10 steps) ****
    Final optimized geometry and variables:
    Molecular point group: c1

    Geometry (in Angstrom), charge = 0, multiplicity = 1:

    H            0.458526571443     0.972307268259     1.529937626196
    C            1.309966331325     0.604226126925     0.944061411131
    C            0.995728568631     0.169661499733    -0.461731651374
    O            2.387741621997     0.571563851019     1.429373590338
    C           -0.275999673392    -0.686621099490    -0.561092642059
    H            1.859314741004    -0.347830741836    -0.856156626993
    H            0.871957066233     1.073464211133    -1.055256999370
    C           -1.569534850044     0.117967978727    -0.665860484289
    H           -0.185138690582    -1.339834701874    -1.421694750176
    H           -0.331632972958    -1.350075100577     0.298871179719
    C           -2.811769225840    -0.763546077623    -0.730692812366
    H           -1.523907103757     0.745098530982    -1.551670784773
    H           -1.654517481267     0.794324908826     0.179921572530
    H           -2.772279176196    -1.431376161096    -1.584604188680
    H           -3.711148167193    -0.165817224909    -0.819333872752
    H           -2.906163369308    -1.373673841549     0.161127691906

  Mulliken Charges: (a.u.)
   Center  Symbol    Alpha    Beta     Spin     Total
       1     H     0.46445  0.46445  0.00000  0.07111
       2     C     2.90355  2.90355  0.00000  0.19289
       3     C     3.08769  3.08769  0.00000 -0.17538
       4     O     4.16541  4.16541  0.00000 -0.33082
       5     C     3.10919  3.10919  0.00000 -0.21838
       6     H     0.43548  0.43548  0.00000  0.12904
       7     H     0.45025  0.45025  0.00000  0.09949
       8     C     3.08529  3.08529  0.00000 -0.17057
       9     H     0.44238  0.44238  0.00000  0.11523
      10     H     0.44851  0.44851  0.00000  0.10299
      11     C     3.14908  3.14908  0.00000 -0.29815
      12     H     0.45194  0.45194  0.00000  0.09612
      13     H     0.45367  0.45367  0.00000  0.09266
      14     H     0.45333  0.45333  0.00000  0.09333
      15     H     0.44647  0.44647  0.00000  0.10705
      16     H     0.45331  0.45331  0.00000  0.09339

   Total alpha = 24.00000, Total beta = 24.00000, Total charge = -0.00000
