                              Psi4 1.0.54 Driver

  ==> Input File <==

--------------------------------------------------------------------------
set {
	reference rhf
	basis cc-pvtz
}

set_num_threads( 4 )
memory 2 gb

molecule MOL {
0 1

H	 -2.644180	 -0.653737	 1.272255
C	 -2.092774	 -0.380414	 0.391915
O	 -0.808934	 -0.154049	 0.752536
F	 -2.163230	 -1.351640	 -0.507133
F	 -2.627232	 0.691260	 -0.169301
C	 0.085006	 0.250800	 -0.215074
C	 1.370439	 -0.548013	 -0.012993
Cl	 0.421658	 1.987697	 -0.091007
H	 -0.272219	 0.063284	 -1.212508
F	 2.246777	 0.156030	 0.657364
F	 1.888326	 -0.827480	 -1.185599
F	 1.161768	 -1.669612	 0.620035

	symmetry c1
}
set optking {
	frozen_dihedral = ("
		10 7 6 9
	")
}

ee,wfn = optimize('scf', return_wfn=True)
oeprop( wfn, 'DIPOLE', 'QUADRUPOLE', 'MULLIKEN_CHARGES')
f=open( 'psi4out.xyz', 'w' )
f.write( "12  " )
f.write( str(ee) + "\n" )
f.write( MOL.save_string_xyz() )
f.close()
--------------------------------------------------------------------------

    Molecular point group: c1
  Charge       = 0
  Multiplicity = 1
  Basis Set: CC-PVTZ
  Basis Set:
  @DF-RHF Final Energy: -1146.61205669363426
    Total Energy =                      -1146.6120566936338037
    Molecular point group: c1
  Basis Set: CC-PVTZ
  Basis Set:
  Basis Set: CC-PVTZ
  Basis Set:
  @DF-RHF Final Energy: -1146.61272724001560
    Total Energy =                      -1146.6127272400160564
  Basis Set: CC-PVTZ
  Basis Set:
  Basis Set: CC-PVTZ
  Basis Set:
  @DF-RHF Final Energy: -1146.61399942962544
    Total Energy =                      -1146.6139994296258919
  Basis Set: CC-PVTZ
  Basis Set:
  Basis Set: CC-PVTZ
  Basis Set:
  @DF-RHF Final Energy: -1146.61407316893656
    Total Energy =                      -1146.6140731689365566
  Basis Set: CC-PVTZ
  Basis Set:
  @DF-RHF Final Energy: -1146.61408836433270
    Total Energy =                      -1146.6140883643333837
  Basis Set: CC-PVTZ
  Basis Set:
  @DF-RHF Final Energy: -1146.61409679703979
    Total Energy =                      -1146.6140967970404745
  Basis Set: CC-PVTZ
  Basis Set:
  Basis Set: CC-PVTZ
  Basis Set:
  @DF-RHF Final Energy: -1146.61410416779222
    Total Energy =                      -1146.6141041677924477
  Basis Set: CC-PVTZ
  Basis Set:
  Basis Set: CC-PVTZ
  Basis Set:
  @DF-RHF Final Energy: -1146.61410737194137
    Total Energy =                      -1146.6141073719420547
  Basis Set: CC-PVTZ
  Basis Set:
  Charge       = 0
  Multiplicity = 1
  Basis Set: CC-PVTZ
  Basis Set:

    Orbital Energies (a.u.)
    -----------------------

    Doubly Occupied:

       1A   -104.854856     2A    -26.355734     3A    -26.353201
       4A    -26.351829     5A    -26.344097     6A    -26.343907
       7A    -20.641041     8A    -11.521993     9A    -11.484789
      10A    -11.402128    11A    -10.580429    12A     -8.047202
      13A     -8.045242    14A     -8.045144    15A     -1.768325
      16A     -1.725508    17A     -1.664036    18A     -1.659258
      19A     -1.645557    20A     -1.488243    21A     -1.175493
      22A     -1.049033    23A     -0.992232    24A     -0.924801
      25A     -0.862692    26A     -0.859458    27A     -0.852468
      28A     -0.831467    29A     -0.820368    30A     -0.795408
      31A     -0.734880    32A     -0.733233    33A     -0.711003
      34A     -0.708697    35A     -0.685957    36A     -0.679533
      37A     -0.665640    38A     -0.663277    39A     -0.650727
      40A     -0.636317    41A     -0.599072    42A     -0.579827
      43A     -0.523491    44A     -0.477352    45A     -0.468043

  @DF-RHF Final Energy: -1146.61410728718101

   => Energetics <=

    Nuclear Repulsion Energy =            736.2422648136848693
    One-Electron Energy =               -3055.7067720989930422
    Two-Electron Energy =                1172.8503999981271591
    DFT Exchange-Correlation Energy =       0.0000000000000000
    Empirical Dispersion Energy =           0.0000000000000000
    PCM Polarization Energy =               0.0000000000000000
    EFP Energy =                            0.0000000000000000
    Total Energy =                      -1146.6141072871810138
    Molecular point group: c1
  Basis Set: CC-PVTZ
  Basis Set:

  -Total Gradient:
     Atom            X                  Y                   Z
    ------   -----------------  -----------------  -----------------
       1        0.000001409103    -0.000010956005     0.000004277342
       2       -0.000123207447    -0.000057253685    -0.000077705190
       3        0.000123324765     0.000089211163    -0.000083313473
       4       -0.000010598183     0.000010794732     0.000002356120
       5       -0.000051481882    -0.000002607556    -0.000015276799
       6       -0.003814563726    -0.005579765108     0.000477864486
       7       -0.002429906333    -0.002179522467     0.005965884229
       8        0.000019866895     0.000184053771     0.000029708941
       9        0.003732993005     0.005202544049    -0.001612329384
      10        0.002637146101     0.002531636235    -0.004714423984
      11        0.000014934487    -0.000019291178     0.000088159837
      12       -0.000099916780    -0.000168843838    -0.000065202124

  **** Optimization is complete! (in 9 steps) ****
    Final optimized geometry and variables:
    Molecular point group: c1

    Geometry (in Angstrom), charge = 0, multiplicity = 1:

    H           -2.757850964756    -0.599370692202     1.099345286474
    C           -2.125999359729    -0.358231218532     0.264911431451
    O           -0.891684411684    -0.073472762361     0.738477266873
    F           -2.079817566839    -1.378477234031    -0.580066588991
    F           -2.626135608888     0.665144927050    -0.407917890634
    C            0.082179373198     0.291219244041    -0.160555226369
    C            1.349267941125    -0.569672431861     0.055062129057
    CL           0.466899486247     2.019205055171     0.008048406372
    H           -0.209266036595     0.179029396653    -1.188452128387
    F            2.248473203905    -0.008667949180     0.813966656747
    F            1.906486737935    -0.776194440286    -1.120229269143
    F            1.038425567192    -1.732089947411     0.561736043138

  Mulliken Charges: (a.u.)
   Center  Symbol    Alpha    Beta     Spin     Total
       1     H     0.45153  0.45153  0.00000  0.09693
       2     C     2.73798  2.73798  0.00000  0.52403
       3     O     4.15215  4.15215  0.00000 -0.30429
       4     F     4.61804  4.61804  0.00000 -0.23608
       5     F     4.61550  4.61550  0.00000 -0.23099
       6     C     2.95318  2.95318  0.00000  0.09365
       7     C     2.66412  2.66412  0.00000  0.67175
       8    CL     8.57242  8.57242  0.00000 -0.14485
       9     H     0.43192  0.43192  0.00000  0.13616
      10     F     4.59605  4.59605  0.00000 -0.19211
      11     F     4.60841  4.60841  0.00000 -0.21681
      12     F     4.59870  4.59870  0.00000 -0.19740

   Total alpha = 45.00000, Total beta = 45.00000, Total charge =  0.00000

*** Psi4 exiting successfully. Buy a developer a beer!
