                              Psi4 1.0.54 Driver

  ==> Input File <==

--------------------------------------------------------------------------
set {
	reference rhf
	basis cc-pvtz
}

set_num_threads( 4 )
memory 2 gb

molecule MOL {
0 1

H	 2.614283	 2.028610	 0.296620
O	 3.358864	 1.662087	 -0.142800
C	 3.565468	 0.338079	 0.273842
C	 2.533667	 -0.637565	 -0.272227
H	 4.548038	 0.064914	 -0.086598
H	 3.593945	 0.282242	 1.360360
C	 1.114816	 -0.402372	 0.240993
H	 2.544552	 -0.580764	 -1.356576
H	 2.850574	 -1.642962	 -0.005497
C	 1.014414	 0.808837	 1.167130
H	 0.771900	 -1.287845	 0.765731
H	 0.444601	 -0.260763	 -0.605201
C	 -0.398949	 1.135724	 1.652727
H	 1.662611	 0.655675	 2.026554
H	 1.406823	 1.676530	 0.644071
C	 -1.017353	 0.098275	 2.588152
H	 -0.369617	 2.091633	 2.168388
H	 -1.049629	 1.277588	 0.792701
C	 -2.384625	 0.516191	 3.123243
H	 -0.344115	 -0.075556	 3.424813
H	 -1.118160	 -0.853788	 2.075885
C	 -3.006576	 -0.519042	 4.054565
H	 -2.290157	 1.462371	 3.648978
H	 -3.056032	 0.698457	 2.288345
H	 -2.373568	 -0.700006	 4.916998
H	 -3.973572	 -0.190347	 4.417861
H	 -3.149442	 -1.467237	 3.546758

	symmetry c1
}
set optking {
	frozen_dihedral = ("
		10 7 4 8
	")
}

ee,wfn = optimize('scf', return_wfn=True)
oeprop( wfn, 'DIPOLE', 'QUADRUPOLE', 'MULLIKEN_CHARGES')
f=open( 'psi4out.xyz', 'w' )
f.write( "27  " )
f.write( str(ee) + "\n" )
f.write( MOL.save_string_xyz() )
f.close()
--------------------------------------------------------------------------

    Molecular point group: c1
  Charge       = 0
  Multiplicity = 1
  Basis Set: CC-PVTZ
  Basis Set:
  @DF-RHF Final Energy:  -388.39860604969135
    Total Energy =                       -388.3986060496910113
    Molecular point group: c1
  Basis Set: CC-PVTZ
  Basis Set:
  Basis Set: CC-PVTZ
  Basis Set:
  @DF-RHF Final Energy:  -388.36154587336517
    Total Energy =                       -388.3615458733651167
  Basis Set: CC-PVTZ
  Basis Set:
  Basis Set: CC-PVTZ
  Basis Set:
  @DF-RHF Final Energy:  -388.41262964910686
    Total Energy =                       -388.4126296491072026
  Basis Set: CC-PVTZ
  Basis Set:
  Basis Set: CC-PVTZ
  Basis Set:
  @DF-RHF Final Energy:  -388.41603790147758
    Total Energy =                       -388.4160379014781483
  Basis Set: CC-PVTZ
  Basis Set:
  @DF-RHF Final Energy:  -388.41619879506504
    Total Energy =                       -388.4161987950650428
  @DF-RHF Final Energy:  -388.41630452325364
    Total Energy =                       -388.4163045232542117
  Basis Set: CC-PVTZ
  Basis Set:
  @DF-RHF Final Energy:  -388.41631218487680
    Total Energy =                       -388.4163121848769151
  Basis Set: CC-PVTZ
  Basis Set:
  Basis Set: CC-PVTZ
  Basis Set:
  @DF-RHF Final Energy:  -388.41631134081996
    Total Energy =                       -388.4163113408195613
  Basis Set: CC-PVTZ
  Basis Set:
  Basis Set: CC-PVTZ
  Basis Set:
  @DF-RHF Final Energy:  -388.41632026802318
    Total Energy =                       -388.4163202680225595
  Basis Set: CC-PVTZ
  Basis Set:
  Charge       = 0
  Multiplicity = 1
  Basis Set: CC-PVTZ
  Basis Set:

    Orbital Energies (a.u.)
    -----------------------

    Doubly Occupied:

       1A    -20.542572     2A    -11.264312     3A    -11.220425
       4A    -11.216373     5A    -11.216244     6A    -11.215204
       7A    -11.213636     8A    -11.213165     9A    -11.208308
      10A     -1.361218    11A     -1.096334    12A     -1.059365
      13A     -1.012859    14A     -0.950061    15A     -0.892980
      16A     -0.828571    17A     -0.799555    18A     -0.775075
      19A     -0.695493    20A     -0.649855    21A     -0.641043
      22A     -0.619747    23A     -0.598399    24A     -0.582554
      25A     -0.570724    26A     -0.563819    27A     -0.547590
      28A     -0.526113    29A     -0.520588    30A     -0.498195
      31A     -0.479878    32A     -0.476089    33A     -0.466213
      34A     -0.464570    35A     -0.450270    36A     -0.438649
      37A     -0.423623

  @DF-RHF Final Energy:  -388.41632076437668

   => Energetics <=

    Nuclear Repulsion Energy =            465.2511422769616729
    One-Electron Energy =               -1448.7355973896849264
    Two-Electron Energy =                 595.0681343483464616
    DFT Exchange-Correlation Energy =       0.0000000000000000
    Empirical Dispersion Energy =           0.0000000000000000
    PCM Polarization Energy =               0.0000000000000000
    EFP Energy =                            0.0000000000000000
    Total Energy =                       -388.4163207643767919
    Molecular point group: c1
  Basis Set: CC-PVTZ
  Basis Set:

  -Total Gradient:
     Atom            X                  Y                   Z
    ------   -----------------  -----------------  -----------------
       1       -0.000006116064    -0.000008553674    -0.000001063577
       2       -0.000024211958    -0.000012374600     0.000026093836
       3       -0.000005594420    -0.000035358249    -0.000002403236
       4        0.000086504237     0.001115212140     0.000247271360
       5        0.000002663133     0.000009321697    -0.000006381842
       6       -0.000000917393     0.000010149866     0.000004926672
       7       -0.000357478446     0.000275970203    -0.000972248789
       8        0.000021002813    -0.001042566513     0.000040007504
       9       -0.000004720080     0.000020394412     0.000007802631
      10        0.000304919375    -0.000342479543     0.000640974253
      11        0.000002524601     0.000011621563    -0.000007352313
      12       -0.000002059298    -0.000002722929    -0.000001603156
      13       -0.000005859265     0.000003957922    -0.000025562517
      14       -0.000011399811     0.000003692988     0.000010855721
      15        0.000001395619    -0.000010726023     0.000007415603
      16       -0.000006089969     0.000002140027     0.000034671523
      17       -0.000007690199    -0.000008066371     0.000005093927
      18        0.000006314808     0.000007006286    -0.000005109540
      19        0.000009411169    -0.000012063215    -0.000009876336
      20        0.000005248669     0.000005029542    -0.000000904199
      21       -0.000012228875     0.000008461648     0.000011659362
      22        0.000001544863     0.000004140584     0.000007124966
      23        0.000005325400     0.000000488104     0.000002413826
      24       -0.000004615153     0.000003752050    -0.000002205538
      25        0.000000748001    -0.000001417813    -0.000004498136
      26        0.000000316137    -0.000001232889    -0.000006136784
      27        0.000001062103    -0.000003777209    -0.000000965216

  **** Optimization is complete! (in 10 steps) ****
    Final optimized geometry and variables:
    Molecular point group: c1

    Geometry (in Angstrom), charge = 0, multiplicity = 1:

    H            1.930569947714     2.255810358625    -1.534716485676
    O            2.634305135461     1.827097260448    -1.982285524842
    C            2.936804768281     0.605884035821    -1.360475552546
    C            1.998845600027    -0.534860322849    -1.735630293837
    H            3.931067994612     0.345121441490    -1.698513599864
    H            2.994257951594     0.729324980675    -0.283002873084
    C            0.548224398482    -0.543380604034    -1.179065130439
    H            1.969052104845    -0.581480905022    -2.818061990291
    H            2.489729227689    -1.449074929388    -1.415142288773
    C            0.089592478468     0.653143286554    -0.340120252350
    H            0.427050753283    -1.439992090655    -0.584128202170
    H           -0.142229649756    -0.648603976992    -2.008935098595
    C           -1.315169543685     0.491785439482     0.249725871531
    H            0.787787421792     0.841191524985     0.470153180847
    H            0.079941669310     1.543209173391    -0.961469259317
    C           -1.430102906227    -0.527462761336     1.382080391130
    H           -1.639857930294     1.457984775532     0.625642236992
    H           -2.009083116315     0.229326045940    -0.545145606321
    C           -2.830874152698    -0.591413107660     1.985622653482
    H           -0.716520380124    -0.274483502128     2.163281692305
    H           -1.156731832472    -1.516308049157     1.028206816561
    C           -2.950172944909    -1.606467593925     3.117479178247
    H           -3.108617658133     0.392374724417     2.353859683178
    H           -3.546286090580    -0.836900386428     1.205460238552
    H           -2.270111749954    -1.369575600853     3.929033166812
    H           -3.954938855582    -1.625650578863     3.523681832023
    H           -2.714307484258    -2.607632319990     2.772191456017

  Mulliken Charges: (a.u.)
   Center  Symbol    Alpha    Beta     Spin     Total
       1     H     0.38995  0.38995  0.00000  0.22011
       2     O     4.20929  4.20929  0.00000 -0.41857
       3     C     2.98551  2.98551  0.00000  0.02898
       4     C     3.09502  3.09502  0.00000 -0.19004
       5     H     0.44424  0.44424  0.00000  0.11151
       6     H     0.46704  0.46704  0.00000  0.06591
       7     C     3.09765  3.09765  0.00000 -0.19529
       8     H     0.44962  0.44962  0.00000  0.10077
       9     H     0.45357  0.45357  0.00000  0.09287
      10     C     3.11612  3.11612  0.00000 -0.23224
      11     H     0.44964  0.44964  0.00000  0.10072
      12     H     0.44836  0.44836  0.00000  0.10328
      13     C     3.09982  3.09982  0.00000 -0.19964
      14     H     0.44744  0.44744  0.00000  0.10511
      15     H     0.45004  0.45004  0.00000  0.09993
      16     C     3.08693  3.08693  0.00000 -0.17386
      17     H     0.44761  0.44761  0.00000  0.10478
      18     H     0.45220  0.45220  0.00000  0.09560
      19     C     3.08493  3.08493  0.00000 -0.16986
      20     H     0.45565  0.45565  0.00000  0.08870
      21     H     0.45329  0.45329  0.00000  0.09341
      22     C     3.14969  3.14969  0.00000 -0.29939
      23     H     0.45388  0.45388  0.00000  0.09225
      24     H     0.45397  0.45397  0.00000  0.09205
      25     H     0.45520  0.45520  0.00000  0.08960
      26     H     0.44804  0.44804  0.00000  0.10393
      27     H     0.45532  0.45532  0.00000  0.08937

   Total alpha = 37.00000, Total beta = 37.00000, Total charge =  0.00000

*** Psi4 exiting successfully. Buy a developer a beer!
