  ==> Input File <==

--------------------------------------------------------------------------
set {
	reference rhf
	basis cc-pvtz
}

set_num_threads( 4 )
memory 2 gb

molecule MOL {
0 1

O	 -2.817697	 1.304178	 0.001046
C	 -2.664672	 0.129869	 0.003507
C	 -3.797908	 -0.860100	 -0.001145
O	 -1.481217	 -0.452708	 0.001092
H	 -4.408836	 -0.679689	 -0.875387
H	 -3.443486	 -1.878443	 -0.002770
H	 -4.412123	 -0.683688	 0.871605
C	 -0.332055	 0.384012	 -0.000250
C	 0.892252	 -0.506059	 -0.000295
H	 -0.360822	 1.020205	 -0.874146
H	 -0.359817	 1.021310	 0.872861
C	 2.179280	 0.287216	 -0.206776
H	 0.786054	 -1.250436	 -0.782788
H	 0.935749	 -1.044732	 0.940771
C	 3.428116	 -0.590009	 -0.209990
H	 2.122929	 0.831552	 -1.146191
H	 2.272017	 1.037469	 0.574565
C	 4.714555	 0.202459	 -0.415114
H	 3.337410	 -1.339034	 -0.991521
H	 3.485587	 -1.134347	 0.728349
H	 4.701764	 0.731235	 -1.362256
H	 5.580828	 -0.448746	 -0.412070
H	 4.850918	 0.937738	 0.370776

	symmetry c1
}
set optking {
	frozen_dihedral = ("
		13 9 8 10
	")
}

ee = optimize('scf')
oeprop('DIPOLE', 'QUADRUPOLE', 'MULLIKEN_CHARGES')
f=open( 'psi4out.xyz', 'w' )
f.write( "23  " )
f.write( str(ee) + "\n" )
f.write( MOL.save_string_xyz() )
f.close()
--------------------------------------------------------------------------

    Molecular point group: c1
  Charge       = 0
  Multiplicity = 1
  Basis Set: CC-PVTZ
  Basis Set:
  @DF-RHF Final Energy:  -423.13452814146319
    Total Energy =                       -423.1345281414636474
    Molecular point group: c1
  Basis Set: CC-PVTZ
  Basis Set:
  Basis Set: CC-PVTZ
  Basis Set:
  @DF-RHF Final Energy:  -423.13437118813295
    Total Energy =                       -423.1343711881329455
  Basis Set: CC-PVTZ
  Basis Set:
  Basis Set: CC-PVTZ
  Basis Set:
  @DF-RHF Final Energy:  -423.13448175044363
    Total Energy =                       -423.1344817504439106
  Basis Set: CC-PVTZ
  Basis Set:
  Basis Set: CC-PVTZ
  Basis Set:
  @DF-RHF Final Energy:  -423.13457828859356
    Total Energy =                       -423.1345782885935023
  Basis Set: CC-PVTZ
  Basis Set:
  Charge       = 0
  Multiplicity = 1
  Basis Set: CC-PVTZ
  Basis Set:

    Orbital Energies (a.u.)
    -----------------------

    Doubly Occupied:

       1A    -20.596263     2A    -20.529699     3A    -11.366571
       4A    -11.279322     5A    -11.230787     6A    -11.222226
       7A    -11.221371     8A    -11.219457     9A    -11.210892
      10A     -1.471441    11A     -1.364266    12A     -1.095233
      13A     -1.043289    14A     -1.004313    15A     -0.931764
      16A     -0.842445    17A     -0.803245    18A     -0.776619
      19A     -0.694365    20A     -0.688402    21A     -0.671453
      22A     -0.648065    23A     -0.606895    24A     -0.589212
      25A     -0.584228    26A     -0.567143    27A     -0.559768
      28A     -0.538897    29A     -0.524036    30A     -0.505833
      31A     -0.491468    32A     -0.478396    33A     -0.471210
      34A     -0.466816    35A     -0.454897    36A     -0.439107

  @DF-RHF Final Energy:  -423.13457908598656

   => Energetics <=

    Nuclear Repulsion Energy =            450.4473795335157433
    One-Electron Energy =               -1468.7851255466159728
    Two-Electron Energy =                 595.2031669271136707
    DFT Exchange-Correlation Energy =       0.0000000000000000
    Empirical Dispersion Energy =           0.0000000000000000
    PCM Polarization Energy =               0.0000000000000000
    EFP Energy =                            0.0000000000000000
    Total Energy =                       -423.1345790859866156
    Molecular point group: c1
  Basis Set: CC-PVTZ
  Basis Set:

  -Total Gradient:
     Atom            X                  Y                   Z
    ------   -----------------  -----------------  -----------------
       1       -0.000005059056     0.000019243908     0.000008260428
       2        0.000056861459    -0.000032242209     0.000049745088
       3       -0.000005699119     0.000003588201    -0.000037270621
       4       -0.000085912230    -0.000039342485     0.000066199758
       5       -0.000009627910    -0.000005671069    -0.000001278203
       6        0.000000125264    -0.000000929557    -0.000000860987
       7        0.000011112395     0.000006656408    -0.000001655811
       8       -0.001168790106    -0.001653080091    -0.001076546504
       9        0.001104915888     0.001554725646    -0.001004171884
      10        0.000882416597     0.001190603626     0.000887773975
      11       -0.000041640692    -0.000033665656     0.000040643033
      12        0.000004318715     0.000024039363    -0.000016749118
      13       -0.000745430282    -0.001014319909     0.001081550209
      14        0.000014054043    -0.000008673130     0.000010724807
      15       -0.000004153137    -0.000006870299    -0.000013703348
      16       -0.000010647550     0.000002470941     0.000009133708
      17       -0.000001406177    -0.000005527797     0.000004055593
      18        0.000003718255    -0.000001942630    -0.000002160634
      19        0.000002399244    -0.000005763146    -0.000002619891
      20       -0.000003287815     0.000006193839    -0.000005406690
      21        0.000000510038    -0.000003211027     0.000001762005
      22        0.000002357867     0.000001497651     0.000002737680
      23       -0.000001135684     0.000002219424    -0.000000162593

  **** Optimization is complete! (in 5 steps) ****
    Final optimized geometry and variables:
    Molecular point group: c1

    Geometry (in Angstrom), charge = 0, multiplicity = 1:

    O           -2.812253759859     1.310441466968     0.123342690977
    C           -2.661914784461     0.135942966197     0.105753243691
    C           -3.797113499896    -0.851916817128     0.115728591087
    O           -1.479812685257    -0.448718537797     0.074624966203
    H           -4.427043398514    -0.660730239390    -0.742655273451
    H           -3.444944976411    -1.870869512776     0.095084704837
    H           -4.391228992525    -0.683892710227     1.003982722372
    C           -0.330213301258     0.385238670162     0.062365257876
    C            0.895712675741    -0.503561626027     0.052451781930
    H           -0.361766356009     1.030071281030    -0.805407629018
    H           -0.347939576299     1.021783308814     0.936568035948
    C            2.184389488968     0.291614398120    -0.130612131101
    H            0.788753020760    -1.240361836038    -0.736952825349
    H            0.933710301683    -1.059308863221     0.984387637161
    C            3.434947053469    -0.582678901487    -0.107502630760
    H            2.144097316664     0.833500341622    -1.072125723696
    H            2.260555646873     1.044184462747     0.650647489781
    C            4.722721380997     0.211492552539    -0.297053493675
    H            3.358503226517    -1.337138335587    -0.885463397194
    H            3.478507298006    -1.120634222526     0.835262721620
    H            4.724601130716     0.733257644269    -1.248208716715
    H            5.590287172572    -0.437672528549    -0.274677003343
    H            4.844244486945     0.952921723359     0.485570525446

  Mulliken Charges: (a.u.)
   Center  Symbol    Alpha    Beta     Spin     Total
       1     O     4.20228  4.20228  0.00000 -0.40455
       2     C     2.81485  2.81485  0.00000  0.37031
       3     C     3.13997  3.13997  0.00000 -0.27994
       4     O     4.14451  4.14451  0.00000 -0.28902
       5     H     0.44209  0.44209  0.00000  0.11581
       6     H     0.44185  0.44185  0.00000  0.11629
       7     H     0.44211  0.44211  0.00000  0.11578
       8     C     2.97883  2.97883  0.00000  0.04235
       9     C     3.08160  3.08160  0.00000 -0.16321
      10     H     0.45519  0.45519  0.00000  0.08962
      11     H     0.45351  0.45351  0.00000  0.09299
      12     C     3.09738  3.09738  0.00000 -0.19476
      13     H     0.45037  0.45037  0.00000  0.09927
      14     H     0.45146  0.45146  0.00000  0.09708
      15     C     3.08507  3.08507  0.00000 -0.17013
      16     H     0.45263  0.45263  0.00000  0.09473
      17     H     0.45305  0.45305  0.00000  0.09389
      18     C     3.14955  3.14955  0.00000 -0.29911
      19     H     0.45346  0.45346  0.00000  0.09307
      20     H     0.45342  0.45342  0.00000  0.09315
      21     H     0.45455  0.45455  0.00000  0.09090
      22     H     0.44769  0.44769  0.00000  0.10461
      23     H     0.45457  0.45457  0.00000  0.09086

   Total alpha = 36.00000, Total beta = 36.00000, Total charge = -0.00000
