  ==> Input File <==

--------------------------------------------------------------------------
set {
	reference rhf
	basis cc-pvtz
}

set_num_threads( 4 )
memory 2 gb

molecule MOL {
0 1

H	 -0.000342	 -0.223902	 -3.352295
C	 -0.027146	 0.371068	 -2.446756
C	 0.024493	 -0.518541	 -1.216015
H	 -0.932586	 0.964979	 -2.449855
H	 0.819708	 1.049865	 -2.473332
N	 -0.042516	 0.263377	 -0.000000
H	 -0.822211	 -1.197105	 -1.225584
H	 0.921114	 -1.142847	 -1.255206
C	 0.024493	 -0.518541	 1.216015
H	 0.682568	 0.950412	 -0.000000
C	 0.148945	 -2.001910	 0.911187
H	 0.893439	 -0.191517	 1.777652
H	 -0.841664	 -0.350780	 1.861656
H	 1.028650	 -2.194829	 0.309970
H	 0.222310	 -2.577450	 1.826654
H	 -0.717046	 -2.361828	 0.364239

	symmetry c1
}
set optking {
	frozen_dihedral = ("
		12 9 6 3
	")
}

ee = optimize('scf')
oeprop('DIPOLE', 'QUADRUPOLE', 'MULLIKEN_CHARGES')
f=open( 'psi4out.xyz', 'w' )
f.write( "16  " )
f.write( str(ee) + "\n" )
f.write( MOL.save_string_xyz() )
f.close()
--------------------------------------------------------------------------

    Molecular point group: c1
  Charge       = 0
  Multiplicity = 1
  Basis Set: CC-PVTZ
  Basis Set:
  @DF-RHF Final Energy:  -212.37390670247834
    Total Energy =                       -212.3739067024784504
    Molecular point group: c1
  Basis Set: CC-PVTZ
  Basis Set:
  Basis Set: CC-PVTZ
  Basis Set:
  @DF-RHF Final Energy:  -212.37304238899677
    Total Energy =                       -212.3730423889967938
  Basis Set: CC-PVTZ
  Basis Set:
  Basis Set: CC-PVTZ
  Basis Set:
  @DF-RHF Final Energy:  -212.38123762569018
    Total Energy =                       -212.3812376256902326
  Basis Set: CC-PVTZ
  Basis Set:
  Basis Set: CC-PVTZ
  Basis Set:
  @DF-RHF Final Energy:  -212.38297241013342
    Total Energy =                       -212.3829724101335614
  Basis Set: CC-PVTZ
  Basis Set:
  Basis Set: CC-PVTZ
  Basis Set:
  @DF-RHF Final Energy:  -212.38328098457308
    Total Energy =                       -212.3832809845733323
  Basis Set: CC-PVTZ
  Basis Set:
  Basis Set: CC-PVTZ
  Basis Set:
  @DF-RHF Final Energy:  -212.38341154711543
    Total Energy =                       -212.3834115471153154
  Basis Set: CC-PVTZ
  Basis Set:
  Basis Set: CC-PVTZ
  Basis Set:
  @DF-RHF Final Energy:  -212.38342249672320
    Total Energy =                       -212.3834224967230284
  Basis Set: CC-PVTZ
  Basis Set:
  Charge       = 0
  Multiplicity = 1
  Basis Set: CC-PVTZ
  Basis Set:

    Orbital Energies (a.u.)
    -----------------------

    Doubly Occupied:

       1A    -15.523013     2A    -11.239927     3A    -11.237803
       4A    -11.208439     5A    -11.204976     6A     -1.197065
       7A     -1.024853     8A     -0.969511     9A     -0.854138
      10A     -0.792732    11A     -0.662371    12A     -0.628877
      13A     -0.600563    14A     -0.597205    15A     -0.537958
      16A     -0.523941    17A     -0.509948    18A     -0.494638
      19A     -0.482419    20A     -0.476176    21A     -0.348150

  @DF-RHF Final Energy:  -212.38342335572042

   => Energetics <=

    Nuclear Repulsion Energy =            191.6451552195169370
    One-Electron Energy =                -665.8277439319857649
    Two-Electron Energy =                 261.7991653567486878
    DFT Exchange-Correlation Energy =       0.0000000000000000
    Empirical Dispersion Energy =           0.0000000000000000
    PCM Polarization Energy =               0.0000000000000000
    EFP Energy =                            0.0000000000000000
    Total Energy =                       -212.3834233557201401
    Molecular point group: c1
  Basis Set: CC-PVTZ
  Basis Set:

  -Total Gradient:
     Atom            X                  Y                   Z
    ------   -----------------  -----------------  -----------------
       1        0.000001277962     0.000002792781    -0.000005465495
       2        0.000012512343    -0.000003829199    -0.000013794864
       3       -0.000012803963     0.000039897163     0.000030879612
       4        0.000000705357    -0.000004090004     0.000002213599
       5       -0.000001024780     0.000002338226    -0.000000918029
       6        0.000015143314    -0.000079623900    -0.000004150360
       7        0.000006918373     0.000007476531    -0.000018636241
       8        0.000011953529    -0.000016870752     0.000008633263
       9       -0.000052208447     0.000059145340     0.000003163534
      10       -0.000012468649     0.000017773990    -0.000003725902
      11       -0.000025603706    -0.000005257807     0.000013611323
      12        0.000021244272    -0.000024033388    -0.000014580037
      13        0.000006920205    -0.000006078445     0.000019250424
      14        0.000011590332     0.000005493607    -0.000032368400
      15        0.000006733723     0.000004388425    -0.000008660007
      16        0.000009110135     0.000000477432     0.000024547577

  **** Optimization is complete! (in 8 steps) ****
    Final optimized geometry and variables:
    Molecular point group: c1

    Geometry (in Angstrom), charge = 0, multiplicity = 1:

    H           -0.074991452534     0.475208119798    -3.109923241742
    C           -0.102849375620     0.984986487740    -2.153677945468
    C            0.010269645538    -0.010947145350    -1.010289780422
    H           -1.028565471224     1.542354832734    -2.083946040931
    H            0.718476677777     1.694999693496    -2.135279192526
    N           -0.053050261855     0.682855162191     0.258972408062
    H           -0.814545532779    -0.709711093306    -1.073400816254
    H            0.923842501443    -0.593136916855    -1.140223636453
    C            0.011711660748    -0.058792138763     1.519092347217
    H            0.608049380258     1.425955337356     0.267848860754
    C            0.087348561232    -1.578204695945     1.414426926924
    H            0.873177410352     0.279607139282     2.087936769050
    H           -0.860352039247     0.191868360502     2.115923790733
    H            0.972717231544    -1.909682948097     0.886327012006
    H            0.121868614370    -1.997455313015     2.413395209016
    H           -0.779740506724    -1.994114732310     0.916998174291

  Mulliken Charges: (a.u.)
   Center  Symbol    Alpha    Beta     Spin     Total
       1     H     0.45424  0.45424  0.00000  0.09152
       2     C     3.14415  3.14415  0.00000 -0.28831
       3     C     3.02021  3.02021  0.00000 -0.04042
       4     H     0.44984  0.44984  0.00000  0.10031
       5     H     0.46026  0.46026  0.00000  0.07948
       6     N     3.64508  3.64508  0.00000 -0.29017
       7     H     0.45798  0.45798  0.00000  0.08404
       8     H     0.47150  0.47150  0.00000  0.05700
       9     C     3.01899  3.01899  0.00000 -0.03798
      10     H     0.44238  0.44238  0.00000  0.11524
      11     C     3.16184  3.16184  0.00000 -0.32368
      12     H     0.46512  0.46512  0.00000  0.06976
      13     H     0.46020  0.46020  0.00000  0.07959
      14     H     0.45226  0.45226  0.00000  0.09549
      15     H     0.44530  0.44530  0.00000  0.10939
      16     H     0.45063  0.45063  0.00000  0.09873

   Total alpha = 21.00000, Total beta = 21.00000, Total charge = -0.00000
