  ==> Input File <==

--------------------------------------------------------------------------
set {
	reference rhf
	basis 6-31G*
}

set_num_threads( 4 )
memory 2 gb

molecule MOL {
0 1

O	 0.391030	 1.298905	 0.000133
C	 0.503002	 0.111612	 0.000005
C	 -0.702327	 -0.811998	 -0.000075
C	 1.863306	 -0.554493	 0.000030
C	 -0.428517	 -2.173226	 0.627808
H	 -1.513066	 -0.302993	 0.517987
H	 -1.039126	 -0.921376	 -1.029331
H	 -0.117007	 -2.068913	 1.659942
H	 -1.321722	 -2.788592	 0.600153
H	 0.361133	 -2.692779	 0.098906
H	 1.974395	 -1.189404	 -0.874166
H	 2.638695	 0.198920	 -0.000196
H	 1.974487	 -1.188655	 0.874727

	symmetry c1
}
set optking {
	frozen_dihedral = ("
		6 3 2 1
	")
}

ee = optimize('scf')
oeprop('DIPOLE', 'QUADRUPOLE', 'MULLIKEN_CHARGES')
f=open( 'psi4out.xyz', 'w' )
f.write( "13  " )
f.write( str(ee) + "\n" )
f.write( MOL.save_string_xyz() )
f.close()
--------------------------------------------------------------------------

    Molecular point group: c1
  Charge       = 0
  Multiplicity = 1
  Basis Set: 6-31G*
  Basis Set:
  @DF-RHF Final Energy:  -230.99230842689758
    Total Energy =                       -230.9923084268973525
    Molecular point group: c1
  Basis Set: 6-31G*
  Basis Set:
  Basis Set: 6-31G*
  Basis Set:
  @DF-RHF Final Energy:  -230.99254481315214
    Total Energy =                       -230.9925448131521364
  Basis Set: 6-31G*
  Basis Set:
  Basis Set: 6-31G*
  Basis Set:
  @DF-RHF Final Energy:  -230.99369151297523
    Total Energy =                       -230.9936915129750901
  Basis Set: 6-31G*
  Basis Set:
  Basis Set: 6-31G*
  Basis Set:
  @DF-RHF Final Energy:  -230.99403078531813
    Total Energy =                       -230.9940307853182446
  Basis Set: 6-31G*
  Basis Set:
  Basis Set: 6-31G*
  Basis Set:
  @DF-RHF Final Energy:  -230.99406439378828
    Total Energy =                       -230.9940643937882214
  Basis Set: 6-31G*
  Basis Set:
  Basis Set: 6-31G*
  Basis Set:
  @DF-RHF Final Energy:  -230.99410288065778
    Total Energy =                       -230.9941028806579482
  Basis Set: 6-31G*
  Basis Set:
  Basis Set: 6-31G*
  Basis Set:
  @DF-RHF Final Energy:  -230.99410578083862
    Total Energy =                       -230.9941057808385949
  Basis Set: 6-31G*
  Basis Set:
  Charge       = 0
  Multiplicity = 1
  Basis Set: 6-31G*
  Basis Set:

    Orbital Energies (a.u.)
    -----------------------

    Doubly Occupied:

       1A    -20.547618     2A    -11.326467     3A    -11.234310
       4A    -11.229089     5A    -11.228661     6A     -1.394022
       7A     -1.067492     8A     -0.993643     9A     -0.890410
      10A     -0.731936    11A     -0.652786    12A     -0.644912
      13A     -0.622859    14A     -0.586132    15A     -0.557128
      16A     -0.544321    17A     -0.529353    18A     -0.511057
      19A     -0.476706    20A     -0.399708

  @DF-RHF Final Energy:  -230.99410607793220

   => Energetics <=

    Nuclear Repulsion Energy =            176.7388968959026556
    One-Electron Energy =                -663.1287858895243517
    Two-Electron Energy =                 255.3957829156893808
    DFT Exchange-Correlation Energy =       0.0000000000000000
    Empirical Dispersion Energy =           0.0000000000000000
    PCM Polarization Energy =               0.0000000000000000
    EFP Energy =                            0.0000000000000000
    Total Energy =                       -230.9941060779323152
    Molecular point group: c1
  Basis Set: 6-31G*
  Basis Set:

  -Total Gradient:
     Atom            X                  Y                   Z
    ------   -----------------  -----------------  -----------------
       1        0.000014274380     0.000003716765    -0.001508427417
       2        0.000066112030    -0.000117045780     0.002336678946
       3       -0.000485655993     0.000665801613    -0.002132383475
       4       -0.000003497532     0.000005403958     0.000057264329
       5       -0.000003531371     0.000016032990    -0.000004762200
       6        0.000429315292    -0.000581759950     0.001305263257
       7       -0.000011038514     0.000005356983    -0.000009374383
       8        0.000006977687     0.000002316453    -0.000004820905
       9       -0.000001799130     0.000001809144     0.000000472427
      10       -0.000003444444     0.000008175095    -0.000005318585
      11       -0.000000760225    -0.000004102360    -0.000015441334
      12       -0.000002467355    -0.000001554881    -0.000007109344
      13       -0.000004484823    -0.000004150038    -0.000012041316

  **** Optimization is complete! (in 8 steps) ****
    Final optimized geometry and variables:
    Molecular point group: c1

    Geometry (in Angstrom), charge = 0, multiplicity = 1:

    O            0.037233687253     1.724359520339    -0.118491229734
    C            0.191642667628     0.541126644179    -0.111127245684
    C           -1.017161961062    -0.384513579516    -0.125317067235
    C            1.578773997032    -0.063720038757    -0.152578152810
    C           -0.825278290206    -1.771774789058     0.490363763346
    H           -1.816768693739     0.144099288685     0.379768377081
    H           -1.315148023876    -0.482718479726    -1.167608434555
    H           -0.525871180798    -1.707337184525     1.531921497762
    H           -1.757138630811    -2.325071443322     0.452769266131
    H           -0.078496661844    -2.355015056721    -0.037200721720
    H            1.673218507240    -0.750205030353    -0.989020410919
    H            2.307724889840     0.728486749947    -0.248962442102
    H            1.779126664392    -0.628918234594     0.752221201857

  Mulliken Charges: (a.u.)
   Center  Symbol    Alpha    Beta     Spin     Total
       1     O     4.26205  4.26205  0.00000 -0.52411
       2     C     2.73545  2.73545  0.00000  0.52910
       3     C     3.20384  3.20384  0.00000 -0.40768
       4     C     3.29223  3.29223  0.00000 -0.58447
       5     C     3.25053  3.25053  0.00000 -0.50107
       6     H     0.39797  0.39797  0.00000  0.20407
       7     H     0.40361  0.40361  0.00000  0.19278
       8     H     0.41565  0.41565  0.00000  0.16870
       9     H     0.41091  0.41091  0.00000  0.17817
      10     H     0.41701  0.41701  0.00000  0.16598
      11     H     0.40930  0.40930  0.00000  0.18140
      12     H     0.39542  0.39542  0.00000  0.20915
      13     H     0.40602  0.40602  0.00000  0.18796

   Total alpha = 20.00000, Total beta = 20.00000, Total charge = -0.00000
