                              Psi4 1.0.54 Driver

  ==> Input File <==

--------------------------------------------------------------------------
set {
	reference rhf
	basis cc-pvtz
}

set_num_threads( 4 )
memory 2 gb

molecule MOL {
0 1

O	 0.749630	 1.305591	 -0.000460
C	 0.576499	 0.134701	 -0.003900
C	 -0.765656	 -0.550508	 -0.002152
O	 1.564816	 -0.744612	 -0.000631
C	 -1.945526	 0.411052	 0.000603
H	 -0.794329	 -1.203792	 -0.868145
H	 -0.791555	 -1.205429	 0.862701
C	 -3.282915	 -0.321280	 0.002596
H	 -1.880300	 1.059126	 -0.864925
H	 -1.877207	 1.057892	 0.866807
H	 -3.388495	 -0.952755	 -0.873419
H	 -4.107811	 0.380864	 0.004116
H	 -3.385717	 -0.953283	 0.878571
C	 1.267560	 -2.056629	 -0.434520
H	 0.510714	 -2.503183	 0.193036
H	 2.188986	 -2.610565	 -0.358238
H	 0.919529	 -2.050365	 -1.456712

	symmetry c1
}
set optking {
	frozen_dihedral = ("
		14 4 2 1
	")
}

ee,wfn = optimize('scf', return_wfn=True)
oeprop( wfn, 'DIPOLE', 'QUADRUPOLE', 'MULLIKEN_CHARGES')
f=open( 'psi4out.xyz', 'w' )
f.write( "17  " )
f.write( str(ee) + "\n" )
f.write( MOL.save_string_xyz() )
f.close()
--------------------------------------------------------------------------

    Molecular point group: c1
  Charge       = 0
  Multiplicity = 1
  Basis Set: CC-PVTZ
  Basis Set:
  @DF-RHF Final Energy:  -345.01082561439341
    Total Energy =                       -345.0108256143932977
    Molecular point group: c1
  Basis Set: CC-PVTZ
  Basis Set:
  Basis Set: CC-PVTZ
  Basis Set:
  @DF-RHF Final Energy:  -344.77539688885554
    Total Energy =                       -344.7753968888554255
  Basis Set: CC-PVTZ
  Basis Set:
  Basis Set: CC-PVTZ
  Basis Set:
  @DF-RHF Final Energy:  -344.91482920479376
    Total Energy =                       -344.9148292047939321
  Basis Set: CC-PVTZ
  Basis Set:
  Basis Set: CC-PVTZ
  Basis Set:
  @DF-RHF Final Energy:  -345.00612457459152
    Total Energy =                       -345.0061245745919223
  Basis Set: CC-PVTZ
  Basis Set:
  @DF-RHF Final Energy:  -345.01978913021418
    Total Energy =                       -345.0197891302140079
  @DF-RHF Final Energy:  -345.02041320068565
    Total Energy =                       -345.0204132006855389
  Basis Set: CC-PVTZ
  Basis Set:
  @DF-RHF Final Energy:  -345.02043981019602
    Total Energy =                       -345.0204398101957963
  Basis Set: CC-PVTZ
  Basis Set:
  Basis Set: CC-PVTZ
  Basis Set:
  @DF-RHF Final Energy:  -345.02043624179754
    Total Energy =                       -345.0204362417979382
  Basis Set: CC-PVTZ
  Basis Set:
  Basis Set: CC-PVTZ
  Basis Set:
  @DF-RHF Final Energy:  -345.02049637112378
    Total Energy =                       -345.0204963711237269
  Basis Set: CC-PVTZ
  Basis Set:
  Charge       = 0
  Multiplicity = 1
  Basis Set: CC-PVTZ
  Basis Set:

    Orbital Energies (a.u.)
    -----------------------

    Doubly Occupied:

       1A    -20.593555     2A    -20.529887     3A    -11.366623
       4A    -11.293389     5A    -11.243787     6A    -11.224258
       7A    -11.216895     8A     -1.465691     9A     -1.368259
      10A     -1.083876    11A     -0.990258    12A     -0.969369
      13A     -0.839693    14A     -0.767553    15A     -0.705822
      16A     -0.690772    17A     -0.676204    18A     -0.641904
      19A     -0.605524    20A     -0.580053    21A     -0.572743
      22A     -0.545153    23A     -0.532064    24A     -0.497925
      25A     -0.491826    26A     -0.484626    27A     -0.452283
      28A     -0.435042

  @DF-RHF Final Energy:  -345.02049657788621

   => Energetics <=

    Nuclear Repulsion Energy =            314.5823530000818664
    One-Electron Energy =               -1093.4756331987452995
    Two-Electron Energy =                 433.8727836207773407
    DFT Exchange-Correlation Energy =       0.0000000000000000
    Empirical Dispersion Energy =           0.0000000000000000
    PCM Polarization Energy =               0.0000000000000000
    EFP Energy =                            0.0000000000000000
    Total Energy =                       -345.0204965778860924
    Molecular point group: c1
  Basis Set: CC-PVTZ
  Basis Set:

  -Total Gradient:
     Atom            X                  Y                   Z
    ------   -----------------  -----------------  -----------------
       1       -0.000801037263    -0.000645665335    -0.001990549286
       2        0.000914742998     0.000933238225     0.001769647072
       3        0.000023252289    -0.000020281214    -0.000017872884
       4        0.000308124243    -0.000276395389     0.002145366086
       5       -0.000025808613     0.000014150123    -0.000004338102
       6       -0.000007482098    -0.000000359554     0.000004019762
       7        0.000007151380    -0.000004068437     0.000006328232
       8        0.000010380052    -0.000001234708    -0.000001405592
       9        0.000002333954     0.000003380374    -0.000006845301
      10        0.000004156267    -0.000000036238    -0.000000260512
      11       -0.000004373026    -0.000000928607    -0.000001798226
      12        0.000000250775    -0.000001505297     0.000001574126
      13       -0.000001977645    -0.000004206831     0.000009466909
      14       -0.000435437748    -0.000010654024    -0.001929446027
      15       -0.000012695119     0.000010685608     0.000018558468
      16        0.000014619195     0.000010620579    -0.000004408844
      17        0.000003800358    -0.000006739270     0.000001964123

  **** Optimization is complete! (in 10 steps) ****
    Final optimized geometry and variables:
    Molecular point group: c1

    Geometry (in Angstrom), charge = 0, multiplicity = 1:

    O            0.547562140989     1.550851189742    -0.712441141595
    C            0.636078030785     0.425276254375    -0.374642412457
    C           -0.465243451753    -0.316208183864     0.351361770069
    O            1.768347826294    -0.236162538374    -0.616468947753
    C           -1.677480172764     0.556693625185     0.648360441318
    H           -0.758127383769    -1.174665940087    -0.244700928307
    H           -0.049954450856    -0.717468313134     1.270938952073
    C           -2.770268311107    -0.211311139873     1.383837932733
    H           -2.064422374822     0.955309956132    -0.280797298877
    H           -1.365048306122     1.411140473638     1.235284357181
    H           -3.123628879065    -1.054890334098     0.799593606636
    H           -3.620993838767     0.428160295062     1.585309658335
    H           -2.414011611923    -0.594576130836     2.334568090277
    C            1.840408855588    -1.639358367730    -0.636259481881
    H            1.620201833398    -2.072422058137     0.330285950672
    H            2.856673178163    -1.879852169766    -0.902790720507
    H            1.175188246934    -2.057304399676    -1.380930804656

  Mulliken Charges: (a.u.)
   Center  Symbol    Alpha    Beta     Spin     Total
       1     O     4.17899  4.17899  0.00000 -0.35797
       2     C     2.80468  2.80468  0.00000  0.39065
       3     C     3.12892  3.12892  0.00000 -0.25783
       4     O     4.13099  4.13099  0.00000 -0.26198
       5     C     3.08056  3.08056  0.00000 -0.16112
       6     H     0.44266  0.44266  0.00000  0.11468
       7     H     0.43953  0.43953  0.00000  0.12093
       8     C     3.15023  3.15023  0.00000 -0.30046
       9     H     0.44376  0.44376  0.00000  0.11248
      10     H     0.44360  0.44360  0.00000  0.11280
      11     H     0.45671  0.45671  0.00000  0.08658
      12     H     0.44411  0.44411  0.00000  0.11178
      13     H     0.45630  0.45630  0.00000  0.08739
      14     C     3.04603  3.04603  0.00000 -0.09207
      15     H     0.46085  0.46085  0.00000  0.07831
      16     H     0.43318  0.43318  0.00000  0.13364
      17     H     0.45890  0.45890  0.00000  0.08220

   Total alpha = 28.00000, Total beta = 28.00000, Total charge =  0.00000

*** Psi4 exiting successfully. Buy a developer a beer!
