  ==> Input File <==

--------------------------------------------------------------------------
set {
	reference rhf
	basis cc-pvtz
}

set_num_threads( 4 )
memory 2 gb

molecule MOL {
0 1

H	 2.960595	 -0.581483	 1.729224
O	 2.049729	 -0.796260	 1.816514
C	 1.302360	 -0.139947	 0.907580
C	 1.857325	 0.731201	 -0.017512
C	 -0.060027	 -0.358641	 0.917360
H	 2.918817	 0.900394	 -0.023719
C	 1.050079	 1.380723	 -0.929340
H	 -0.491665	 -1.030847	 1.630572
C	 -0.861704	 0.296439	 0.000000
H	 1.490581	 2.052448	 -1.640372
C	 -0.313712	 1.167455	 -0.926206
C	 -2.330689	 0.069587	 0.000000
H	 -0.943963	 1.671101	 -1.634028
O	 -2.848621	 -0.993976	 0.000000
H	 -2.934306	 0.982410	 0.000000

	symmetry c1
}
set optking {
	frozen_dihedral = ("
		11 9 12 14
	")
}

ee = optimize('scf')
oeprop('DIPOLE', 'QUADRUPOLE', 'MULLIKEN_CHARGES')
f=open( 'psi4out.xyz', 'w' )
f.write( "15  " )
f.write( str(ee) + "\n" )
f.write( MOL.save_string_xyz() )
f.close()
--------------------------------------------------------------------------

    Molecular point group: c1
  Charge       = 0
  Multiplicity = 1
  Basis Set: CC-PVTZ
  Basis Set:
  @DF-RHF Final Energy:  -418.43206142191207
    Total Energy =                       -418.4320614219119534
    Molecular point group: c1
  Basis Set: CC-PVTZ
  Basis Set:
  Basis Set: CC-PVTZ
  Basis Set:
  @DF-RHF Final Energy:  -418.43031102067528
    Total Energy =                       -418.4303110206750489
  Basis Set: CC-PVTZ
  Basis Set:
  Basis Set: CC-PVTZ
  Basis Set:
  @DF-RHF Final Energy:  -418.43256841570417
    Total Energy =                       -418.4325684157041678
  Basis Set: CC-PVTZ
  Basis Set:
  Basis Set: CC-PVTZ
  Basis Set:
  @DF-RHF Final Energy:  -418.43267236315660
    Total Energy =                       -418.4326723631568257
  Basis Set: CC-PVTZ
  Basis Set:
  Basis Set: CC-PVTZ
  Basis Set:
  @DF-RHF Final Energy:  -418.43267388403103
    Total Energy =                       -418.4326738840308053
  Basis Set: CC-PVTZ
  Basis Set:
  Charge       = 0
  Multiplicity = 1
  Basis Set: CC-PVTZ
  Basis Set:

    Orbital Energies (a.u.)
    -----------------------

    Doubly Occupied:

       1A    -20.595733     2A    -20.559536     3A    -11.330420
       4A    -11.311551     5A    -11.253437     6A    -11.250192
       7A    -11.242810     8A    -11.239960     9A    -11.237179
      10A     -1.427576    11A     -1.414555    12A     -1.173034
      13A     -1.051084    14A     -1.029123    15A     -0.901968
      16A     -0.848050    17A     -0.818817    18A     -0.741277
      19A     -0.704928    20A     -0.687075    21A     -0.652974
      22A     -0.643481    23A     -0.616235    24A     -0.607436
      25A     -0.583962    26A     -0.549359    27A     -0.540331
      28A     -0.516770    29A     -0.494925    30A     -0.427306
      31A     -0.357580    32A     -0.329246

  @DF-RHF Final Energy:  -418.43267433299235

   => Energetics <=

    Nuclear Repulsion Energy =            403.8111060396599328
    One-Electron Energy =               -1370.2117425334854488
    Two-Electron Energy =                 547.9679621608333946
    DFT Exchange-Correlation Energy =       0.0000000000000000
    Empirical Dispersion Energy =           0.0000000000000000
    PCM Polarization Energy =               0.0000000000000000
    EFP Energy =                            0.0000000000000000
    Total Energy =                       -418.4326743329920646
    Molecular point group: c1
  Basis Set: CC-PVTZ
  Basis Set:

  -Total Gradient:
     Atom            X                  Y                   Z
    ------   -----------------  -----------------  -----------------
       1       -0.000008611890     0.000020715900     0.000009071228
       2        0.000006924075    -0.000005349060    -0.000025349663
       3       -0.000058821244    -0.000053349790     0.000013890962
       4       -0.000014626279     0.000073107408    -0.000023189913
       5        0.000076374025     0.000001662340     0.000052113189
       6        0.000004357791    -0.000009401838    -0.000001574080
       7        0.000090838064    -0.000038784544     0.000011649265
       8       -0.000006669206     0.000010322273    -0.000002838876
       9       -0.001124797658     0.005807221075     0.001669606659
      10       -0.000001180609    -0.000001058546     0.000003640064
      11        0.000758818685    -0.004083894557    -0.003160954385
      12        0.000077927336    -0.001500279278     0.007974451579
      13       -0.000000134013    -0.000001865088    -0.000002869816
      14        0.000200686478    -0.000200540988    -0.006516404012
      15       -0.000001085560    -0.000018505306    -0.000001242204

  **** Optimization is complete! (in 6 steps) ****
    Final optimized geometry and variables:
    Molecular point group: c1

    Geometry (in Angstrom), charge = 0, multiplicity = 1:

    H            2.976371911885    -0.717416682164     1.467284103560
    O            2.062142661908    -0.909707645391     1.572290985779
    C            1.317579041233    -0.245959938462     0.667692714157
    C            1.873655133124     0.611005223346    -0.266364167459
    C           -0.049309474143    -0.453956049476     0.687864474912
    H            2.937222352066     0.764457656672    -0.288284653254
    C            1.060565984018     1.265189224247    -1.171505838151
    H           -0.470243854026    -1.143449573728     1.391868832308
    C           -0.854532768175     0.226256318658    -0.203623511238
    H            1.501157795281     1.918605723147    -1.899590321904
    C           -0.306678571457     1.085298343177    -1.142376338674
    C           -2.321945892032    -0.045232586367    -0.241779101436
    H           -0.937532483122     1.602293600245    -1.840280520544
    O           -2.793851156317    -1.128360910545    -0.223179251362
    H           -2.959211114210     0.837510134029    -0.356883125312

  Mulliken Charges: (a.u.)
   Center  Symbol    Alpha    Beta     Spin     Total
       1     H     0.38684  0.38684  0.00000  0.22632
       2     O     4.17055  4.17055  0.00000 -0.34110
       3     C     2.83811  2.83811  0.00000  0.32378
       4     C     3.13376  3.13376  0.00000 -0.26752
       5     C     3.12547  3.12547  0.00000 -0.25095
       6     H     0.43210  0.43210  0.00000  0.13579
       7     C     3.05903  3.05903  0.00000 -0.11807
       8     H     0.41131  0.41131  0.00000  0.17738
       9     C     2.94315  2.94315  0.00000  0.11371
      10     H     0.41958  0.41958  0.00000  0.16084
      11     C     3.11401  3.11401  0.00000 -0.22801
      12     C     2.92564  2.92564  0.00000  0.14872
      13     H     0.42442  0.42442  0.00000  0.15116
      14     O     4.16019  4.16019  0.00000 -0.32039
      15     H     0.45583  0.45583  0.00000  0.08834

   Total alpha = 32.00000, Total beta = 32.00000, Total charge =  0.00000
