  ==> Input File <==

--------------------------------------------------------------------------
set {
	reference rhf
	basis cc-pvtz
}

set_num_threads( 4 )
memory 2 gb

molecule MOL {
0 1

O	 0.749630	 1.305591	 -0.000460
C	 0.576499	 0.134701	 -0.003900
C	 -0.765656	 -0.550508	 -0.002152
O	 1.564816	 -0.744612	 -0.000631
C	 -1.945526	 0.411052	 0.000603
H	 -0.794329	 -1.203792	 -0.868145
H	 -0.791555	 -1.205429	 0.862701
C	 -2.788706	 0.281518	 1.264404
H	 -2.558605	 0.226845	 -0.873237
H	 -1.579542	 1.425900	 -0.096957
H	 -3.193458	 -0.719859	 1.367991
H	 -3.621944	 0.973484	 1.245469
H	 -2.203411	 0.493799	 2.153052
C	 2.884339	 -0.237801	 0.002883
H	 3.064150	 0.362814	 -0.876312
H	 3.533055	 -1.098529	 0.004958
H	 3.059365	 0.363432	 0.882614

	symmetry c1
}
set optking {
	frozen_dihedral = ("
		9 5 3 6
	")
}

ee = optimize('scf')
oeprop('DIPOLE', 'QUADRUPOLE', 'MULLIKEN_CHARGES')
f=open( 'psi4out.xyz', 'w' )
f.write( "17  " )
f.write( str(ee) + "\n" )
f.write( MOL.save_string_xyz() )
f.close()
--------------------------------------------------------------------------

    Molecular point group: c1
  Charge       = 0
  Multiplicity = 1
  Basis Set: CC-PVTZ
  Basis Set:
  @DF-RHF Final Energy:  -345.03032244376880
    Total Energy =                       -345.0303224437689096
    Molecular point group: c1
  Basis Set: CC-PVTZ
  Basis Set:
  Basis Set: CC-PVTZ
  Basis Set:
  @DF-RHF Final Energy:  -345.03052309239621
    Total Energy =                       -345.0305230923960380
  Basis Set: CC-PVTZ
  Basis Set:
  Basis Set: CC-PVTZ
  Basis Set:
  @DF-RHF Final Energy:  -345.03054707668417
    Total Energy =                       -345.0305470766843996
  Basis Set: CC-PVTZ
  Basis Set:
  Basis Set: CC-PVTZ
  Basis Set:
  @DF-RHF Final Energy:  -345.03068718744498
    Total Energy =                       -345.0306871874445278
  Basis Set: CC-PVTZ
  Basis Set:
  @DF-RHF Final Energy:  -345.03073039075741
    Total Energy =                       -345.0307303907573555
  Basis Set: CC-PVTZ
  Basis Set:
  @DF-RHF Final Energy:  -345.03073429975137
    Total Energy =                       -345.0307342997509750
  Basis Set: CC-PVTZ
  Basis Set:
  Basis Set: CC-PVTZ
  Basis Set:
  @DF-RHF Final Energy:  -345.03073667715279
    Total Energy =                       -345.0307366771532429
  Basis Set: CC-PVTZ
  Basis Set:
  Basis Set: CC-PVTZ
  Basis Set:
  @DF-RHF Final Energy:  -345.03073814851513
    Total Energy =                       -345.0307381485157521
  Basis Set: CC-PVTZ
  Basis Set:
  Charge       = 0
  Multiplicity = 1
  Basis Set: CC-PVTZ
  Basis Set:

    Orbital Energies (a.u.)
    -----------------------

    Doubly Occupied:

       1A    -20.597003     2A    -20.535401     3A    -11.365994
       4A    -11.279030     5A    -11.234199     6A    -11.218322
       7A    -11.211003     8A     -1.473328     9A     -1.366852
      10A     -1.078402    11A     -1.002386    12A     -0.939534
      13A     -0.829340    14A     -0.768927    15A     -0.704828
      16A     -0.685100    17A     -0.676721    18A     -0.626692
      19A     -0.605026    20A     -0.571757    21A     -0.571201
      22A     -0.533683    23A     -0.526122    24A     -0.489375
      25A     -0.485401    26A     -0.475609    27A     -0.461930
      28A     -0.443773

  @DF-RHF Final Energy:  -345.03073825746611

   => Energetics <=

    Nuclear Repulsion Energy =            314.2921481134614510
    One-Electron Energy =               -1093.1318908116995772
    Two-Electron Energy =                 433.8090044407720711
    DFT Exchange-Correlation Energy =       0.0000000000000000
    Empirical Dispersion Energy =           0.0000000000000000
    PCM Polarization Energy =               0.0000000000000000
    EFP Energy =                            0.0000000000000000
    Total Energy =                       -345.0307382574659982
    Molecular point group: c1
  Basis Set: CC-PVTZ
  Basis Set:

  -Total Gradient:
     Atom            X                  Y                   Z
    ------   -----------------  -----------------  -----------------
       1        0.000007111055    -0.000009852326    -0.000000629592
       2       -0.000040128566     0.000014999565    -0.000003124854
       3        0.000822372404     0.001019413737    -0.000809440400
       4        0.000022051019    -0.000009414738    -0.000006299890
       5       -0.000811396200    -0.001018468555     0.000802922274
       6       -0.000544263571    -0.000690714718     0.000549730174
       7        0.000004111345     0.000010147123    -0.000001760296
       8        0.000004327278    -0.000000010506    -0.000002982818
       9        0.000535675855     0.000683957669    -0.000536788251
      10       -0.000000875719    -0.000000551381     0.000003175502
      11       -0.000001303614     0.000000291030    -0.000002734092
      12       -0.000000656797     0.000001607771     0.000001784390
      13        0.000000365234    -0.000001962054    -0.000000084777
      14       -0.000004516433    -0.000002058506     0.000008969155
      15       -0.000000057733    -0.000001454055     0.000002818687
      16        0.000000979982     0.000004300766    -0.000000464682
      17        0.000006204462    -0.000000230824    -0.000005090530

  **** Optimization is complete! (in 9 steps) ****
    Final optimized geometry and variables:
    Molecular point group: c1

    Geometry (in Angstrom), charge = 0, multiplicity = 1:

    O            0.698375649110     1.220065002257    -0.121855825471
    C            0.513621155052     0.052263092692    -0.175525780804
    C           -0.830330379976    -0.635272445475    -0.187493706849
    O            1.495887730542    -0.832491879992    -0.224282500975
    C           -2.040033488703     0.309635150848    -0.192256189411
    H           -0.835809883464    -1.304620312419    -1.039032117726
    H           -0.841631500562    -1.285339724188     0.681127232203
    C           -2.892619495074     0.202313910895     1.068161298967
    H           -2.651805441385     0.101216102898    -1.062199433785
    H           -1.689652786969     1.325924498231    -0.302136977602
    H           -3.286579183882    -0.800690602488     1.195894499252
    H           -3.732872501653     0.885288984082     1.026911464669
    H           -2.311546475230     0.445995687439     1.951231422007
    C            2.818948332278    -0.335854000416    -0.206388373912
    H            2.996512610778     0.306816368326    -1.055841395768
    H            3.461636861285    -1.199946432182    -0.252745610748
    H            3.005717785360     0.219347482367     0.700847120755

  Mulliken Charges: (a.u.)
   Center  Symbol    Alpha    Beta     Spin     Total
       1     O     4.19649  4.19649  0.00000 -0.39297
       2     C     2.80190  2.80190  0.00000  0.39620
       3     C     3.10675  3.10675  0.00000 -0.21350
       4     O     4.14735  4.14735  0.00000 -0.29471
       5     C     3.08970  3.08970  0.00000 -0.17939
       6     H     0.43332  0.43332  0.00000  0.13335
       7     H     0.43998  0.43998  0.00000  0.12004
       8     C     3.14860  3.14860  0.00000 -0.29720
       9     H     0.45101  0.45101  0.00000  0.09798
      10     H     0.43693  0.43693  0.00000  0.12614
      11     H     0.45646  0.45646  0.00000  0.08708
      12     H     0.44826  0.44826  0.00000  0.10348
      13     H     0.45300  0.45300  0.00000  0.09401
      14     C     3.03617  3.03617  0.00000 -0.07235
      15     H     0.45421  0.45421  0.00000  0.09159
      16     H     0.44544  0.44544  0.00000  0.10912
      17     H     0.45444  0.45444  0.00000  0.09112

   Total alpha = 28.00000, Total beta = 28.00000, Total charge = -0.00000
