  ==> Input File <==

--------------------------------------------------------------------------
set {
	reference rhf
	basis 6-31G*
}

set_num_threads( 4 )
memory 2 gb

molecule MOL {
0 1

O	 -2.033709	 1.814671	 -0.150723
C	 -1.984349	 0.629850	 -0.285618
C	 -0.770717	 -0.032179	 -0.914205
C	 -3.103714	 -0.270385	 0.187639
C	 0.379448	 -0.143569	 0.099626
H	 -0.457238	 0.582571	 -1.750936
H	 -1.026724	 -1.016805	 -1.294992
C	 1.631333	 -0.777471	 -0.511575
H	 0.598329	 0.850373	 0.473195
H	 0.058319	 -0.736999	 0.954298
C	 2.915987	 -0.544314	 0.291766
H	 1.766672	 -0.399098	 -1.523130
H	 1.471257	 -1.849544	 -0.605828
C	 3.373361	 0.914346	 0.347591
H	 3.708709	 -1.142521	 -0.150311
H	 2.780642	 -0.921148	 1.303579
H	 3.506512	 1.320010	 -0.651625
H	 4.322697	 0.999599	 0.867103
H	 2.660624	 1.545032	 0.868198
H	 -3.577287	 -0.744919	 -0.667821
H	 -3.839025	 0.307172	 0.730345
H	 -2.717270	 -1.064040	 0.820552

	symmetry c1
}
set optking {
	frozen_dihedral = ("
		3 5 8 12
	")
}

ee = optimize('scf')
oeprop('DIPOLE', 'QUADRUPOLE', 'MULLIKEN_CHARGES')
f=open( 'psi4out.xyz', 'w' )
f.write( "22  " )
f.write( str(ee) + "\n" )
f.write( MOL.save_string_xyz() )
f.close()
--------------------------------------------------------------------------

    Molecular point group: c1
  Charge       = 0
  Multiplicity = 1
  Basis Set: 6-31G*
  Basis Set:
  @DF-RHF Final Energy:  -348.09691884773241
    Total Energy =                       -348.0969188477321836
    Molecular point group: c1
  Basis Set: 6-31G*
  Basis Set:
  Basis Set: 6-31G*
  Basis Set:
  @DF-RHF Final Energy:  -348.09688944513880
    Total Energy =                       -348.0968894451383449
  Basis Set: 6-31G*
  Basis Set:
  Basis Set: 6-31G*
  Basis Set:
  @DF-RHF Final Energy:  -348.09630023734468
    Total Energy =                       -348.0963002373446216
  Basis Set: 6-31G*
  Basis Set:
  Basis Set: 6-31G*
  Basis Set:
  @DF-RHF Final Energy:  -348.09711704387718
    Total Energy =                       -348.0971170438773470
  Basis Set: 6-31G*
  Basis Set:
  @DF-RHF Final Energy:  -348.09694358227063
    Total Energy =                       -348.0969435822703417
  @DF-RHF Final Energy:  -348.09686777568351
    Total Energy =                       -348.0968677756831084
  @DF-RHF Final Energy:  -348.09713284491806
    Total Energy =                       -348.0971328449177236
  @DF-RHF Final Energy:  -348.09714006923230
    Total Energy =                       -348.0971400692323527
  Basis Set: 6-31G*
  Basis Set:
  @DF-RHF Final Energy:  -348.09717877947247
    Total Energy =                       -348.0971787794726424
  Basis Set: 6-31G*
  Basis Set:
  Basis Set: 6-31G*
  Basis Set:
  @DF-RHF Final Energy:  -348.09717989842346
    Total Energy =                       -348.0971798984237466
  Basis Set: 6-31G*
  Basis Set:
  Basis Set: 6-31G*
  Basis Set:
  @DF-RHF Final Energy:  -348.09718245354685
    Total Energy =                       -348.0971824535470205
  Basis Set: 6-31G*
  Basis Set:
  Charge       = 0
  Multiplicity = 1
  Basis Set: 6-31G*
  Basis Set:

    Orbital Energies (a.u.)
    -----------------------

    Doubly Occupied:

       1A    -20.547426     2A    -11.324412     3A    -11.229702
       4A    -11.229108     5A    -11.228167     6A    -11.222451
       7A    -11.220721     8A    -11.210744     9A     -1.393118
      10A     -1.095236    11A     -1.044205    12A     -0.999342
      13A     -0.937985    14A     -0.856506    15A     -0.788073
      16A     -0.732997    17A     -0.660787    18A     -0.645372
      19A     -0.625952    20A     -0.620203    21A     -0.598058
      22A     -0.577969    23A     -0.565666    24A     -0.544212
      25A     -0.532932    26A     -0.514629    27A     -0.501625
      28A     -0.487646    29A     -0.470604    30A     -0.462752
      31A     -0.460353    32A     -0.396157

  @DF-RHF Final Energy:  -348.09718256765115

   => Energetics <=

    Nuclear Repulsion Energy =            373.0450591749070668
    One-Electron Energy =               -1210.8342626751812077
    Two-Electron Energy =                 489.6920209326227678
    DFT Exchange-Correlation Energy =       0.0000000000000000
    Empirical Dispersion Energy =           0.0000000000000000
    PCM Polarization Energy =               0.0000000000000000
    EFP Energy =                            0.0000000000000000
    Total Energy =                       -348.0971825676514300
    Molecular point group: c1
  Basis Set: 6-31G*
  Basis Set:

  -Total Gradient:
     Atom            X                  Y                   Z
    ------   -----------------  -----------------  -----------------
       1        0.000007606399     0.000004613192     0.000009554801
       2       -0.000010589734    -0.000004925997     0.000013133299
       3        0.000754082548     0.002042954316    -0.000586285900
       4       -0.000015517723     0.000014521346    -0.000026240302
       5       -0.001436121423    -0.003399338397     0.000545953919
       6       -0.000002508019     0.000000235839    -0.000009096471
       7        0.000008766152     0.000002173759    -0.000000572270
       8        0.002427276400     0.003702114603     0.001185851412
       9       -0.000004675861    -0.000004746143    -0.000006427242
      10       -0.000004577599    -0.000002810237     0.000004108883
      11       -0.000007174368     0.000008388590     0.000002137588
      12       -0.001731662862    -0.002350561192    -0.001147926034
      13       -0.000003616972    -0.000002694142     0.000002508193
      14        0.000002256271    -0.000004118484     0.000001914620
      15        0.000000399605     0.000005335836    -0.000001271644
      16        0.000000358859     0.000001332145     0.000000245275
      17       -0.000001649606    -0.000002338328    -0.000001149199
      18        0.000003166389     0.000001443911     0.000000444619
      19       -0.000000855970    -0.000005022603     0.000000540209
      20        0.000003126340    -0.000007219676     0.000005170595
      21        0.000002951396    -0.000000138343     0.000001608965
      22        0.000008959786     0.000000799995     0.000005796683

  **** Optimization is complete! (in 12 steps) ****
    Final optimized geometry and variables:
    Molecular point group: c1

    Geometry (in Angstrom), charge = 0, multiplicity = 1:

    O           -2.149972702520     1.589091772429    -0.011937596710
    C           -2.058115062072     0.409355775878    -0.167433101860
    C           -0.824686866380    -0.197237110572    -0.812569797973
    C           -3.144600476046    -0.538781812062     0.289217480446
    C            0.321526123200    -0.318589317665     0.204430841949
    H           -0.518709790434     0.457411059624    -1.620696997583
    H           -1.055185600195    -1.171889928024    -1.234575358697
    C            1.579381354115    -0.949871326106    -0.403760999013
    H            0.534850769183     0.677032419143     0.577503693777
    H            0.004089377346    -0.908489850428     1.061860687174
    C            2.853782458773    -0.755548798140     0.425033727192
    H            1.728970022031    -0.569364852990    -1.412405723850
    H            1.400619964621    -2.016764832110    -0.523733283211
    C            3.400170535023     0.673284972605     0.417544586135
    H            3.620690221098    -1.422658316791     0.039989303915
    H            2.667123631409    -1.069223389124     1.450202871038
    H            3.619012729549     0.999665797653    -0.595329184127
    H            4.320353232035     0.735747249897     0.990110959668
    H            2.700800474191     1.381542576926     0.848714873968
    H           -3.608699033403    -1.005249296787    -0.575784936473
    H           -3.894304474974     0.000712591256     0.851042280691
    H           -2.729263267619    -1.336143851585     0.898577184511

  Mulliken Charges: (a.u.)
   Center  Symbol    Alpha    Beta     Spin     Total
       1     O     4.26239  4.26239  0.00000 -0.52479
       2     C     2.73716  2.73716  0.00000  0.52568
       3     C     3.20026  3.20026  0.00000 -0.40052
       4     C     3.28940  3.28940  0.00000 -0.57881
       5     C     3.16419  3.16419  0.00000 -0.32838
       6     H     0.40074  0.40074  0.00000  0.19852
       7     H     0.41706  0.41706  0.00000  0.16589
       8     C     3.15375  3.15375  0.00000 -0.30751
       9     H     0.40474  0.40474  0.00000  0.19052
      10     H     0.41977  0.41977  0.00000  0.16045
      11     C     3.15383  3.15383  0.00000 -0.30765
      12     H     0.42115  0.42115  0.00000  0.15770
      13     H     0.42125  0.42125  0.00000  0.15750
      14     C     3.24144  3.24144  0.00000 -0.48288
      15     H     0.41953  0.41953  0.00000  0.16093
      16     H     0.42237  0.42237  0.00000  0.15527
      17     H     0.42105  0.42105  0.00000  0.15789
      18     H     0.41824  0.41824  0.00000  0.16352
      19     H     0.41793  0.41793  0.00000  0.16414
      20     H     0.40676  0.40676  0.00000  0.18647
      21     H     0.39710  0.39710  0.00000  0.20580
      22     H     0.40987  0.40987  0.00000  0.18026

   Total alpha = 32.00000, Total beta = 32.00000, Total charge = -0.00000
