  ==> Input File <==

--------------------------------------------------------------------------
set {
	reference rhf
	basis 6-31G*
}

set_num_threads( 1 )
memory 2 gb

molecule MOL {
0 1

H	 -2.205262	 -1.124847	 -0.345075
O	 -2.347518	 -0.290803	 0.079804
C	 -1.184022	 0.487508	 -0.006784
C	 0.062599	 -0.378592	 0.031606
H	 -1.176523	 1.099369	 -0.904519
H	 -1.187323	 1.153111	 0.844927
O	 1.171513	 0.459272	 -0.058250
H	 0.050699	 -1.089204	 -0.797170
H	 0.078739	 -0.954914	 0.954740
C	 2.397842	 -0.198080	 -0.002151
H	 2.508049	 -0.905315	 -0.822092
H	 3.173794	 0.550865	 -0.078850
H	 2.517602	 -0.735921	 0.936026

	symmetry c1
}
set optking {
	frozen_dihedral = ("
		8 4 3 5,
		10 7 4 8,
		4 7 10 13
	")
}

ee = energy('scf')
oeprop('DIPOLE', 'QUADRUPOLE', 'MULLIKEN_CHARGES')
f=open( 'psi4out.xyz', 'w' )
f.write( "13  " )
f.write( str(ee) + "\n" )
f.write( MOL.save_string_xyz() )
f.close()
--------------------------------------------------------------------------

    Molecular point group: c1

    Geometry (in Angstrom), charge = 0, multiplicity = 1:

       Center              X                  Y                   Z               Mass
    ------------   -----------------  -----------------  -----------------  -----------------
           H         -2.209155679594    -1.119615340155    -0.350375742972     1.007825032070
           O         -2.351411679594    -0.285571340155     0.074503257028    15.994914619560
           C         -1.187915679594     0.492739659845    -0.012084742972    12.000000000000
           C          0.058705320406    -0.373360340155     0.026305257028    12.000000000000
           H         -1.180416679594     1.104600659845    -0.909819742972     1.007825032070
           H         -1.191216679594     1.158342659845     0.839626257028     1.007825032070
           O          1.167619320406     0.464503659845    -0.063550742972    15.994914619560
           H          0.046805320406    -1.083972340155    -0.802470742972     1.007825032070
           H          0.074845320406    -0.949682340155     0.949439257028     1.007825032070
           C          2.393948320406    -0.192848340155    -0.007451742972    12.000000000000
           H          2.504155320406    -0.900083340155    -0.827392742972     1.007825032070
           H          3.169900320406     0.556096659845    -0.084150742972     1.007825032070
           H          2.513708320406    -0.730689340155     0.930725257028     1.007825032070

  Charge       = 0
  Multiplicity = 1
  Basis Set: 6-31G*
  Basis Set:

    Orbital Energies (a.u.)
    -----------------------

    Doubly Occupied:

       1A    -20.567321     2A    -20.558771     3A    -11.278764
       4A    -11.273633     5A    -11.268562     6A     -1.393422
       7A     -1.365128     8A     -1.021444     9A     -0.915393
      10A     -0.850847    11A     -0.701041    12A     -0.680383
      13A     -0.669993    14A     -0.629812    15A     -0.602342
      16A     -0.579563    17A     -0.546055    18A     -0.496843
      19A     -0.475054    20A     -0.439823    21A     -0.427182

  @DF-RHF Final Energy:  -267.94807080522833

   => Energetics <=

    Nuclear Repulsion Energy =            190.5223599051359713
    One-Electron Energy =                -743.4579861881734359
    Two-Electron Energy =                 284.9875554778095648
    DFT Exchange-Correlation Energy =       0.0000000000000000
    Empirical Dispersion Energy =           0.0000000000000000
    PCM Polarization Energy =               0.0000000000000000
    EFP Energy =                            0.0000000000000000
    Total Energy =                       -267.9480708052278715

  Mulliken Charges: (a.u.)
   Center  Symbol    Alpha    Beta     Spin     Total
       1     H     0.28192  0.28192  0.00000  0.43616
       2     O     4.37413  4.37413  0.00000 -0.74826
       3     C     2.98879  2.98879  0.00000  0.02241
       4     C     3.01035  3.01035  0.00000 -0.02070
       5     H     0.42077  0.42077  0.00000  0.15845
       6     H     0.41093  0.41093  0.00000  0.17815
       7     O     4.30566  4.30566  0.00000 -0.61132
       8     H     0.43668  0.43668  0.00000  0.12663
       9     H     0.42397  0.42397  0.00000  0.15207
      10     C     3.08123  3.08123  0.00000 -0.16247
      11     H     0.42866  0.42866  0.00000  0.14268
      12     H     0.40938  0.40938  0.00000  0.18124
      13     H     0.42752  0.42752  0.00000  0.14497

   Total alpha = 21.00000, Total beta = 21.00000, Total charge = -0.00000
