  ==> Input File <==

--------------------------------------------------------------------------
set {
	reference rhf
	basis cc-pvtz
}

set_num_threads( 4 )
memory 2 gb

molecule MOL {
0 1

H	 2.566890	 1.967959	 1.954915
O	 1.636150	 1.881877	 2.053598
C	 1.095725	 1.198123	 1.026034
C	 1.861312	 0.705382	 -0.019797
C	 -0.268889	 0.993848	 1.037091
H	 2.924217	 0.865425	 -0.026814
C	 1.261669	 0.010573	 -1.050633
H	 -0.862909	 1.373148	 1.843387
C	 -0.861704	 0.296439	 0.000000
H	 1.864056	 -0.365997	 -1.854467
C	 -0.102836	 -0.198075	 -1.047090
C	 -2.330689	 0.069587	 0.000000
H	 -0.571932	 -0.737991	 -1.847295
O	 -2.848621	 -0.993976	 0.000000
H	 -2.934306	 0.982410	 0.000000

	symmetry c1
}
set optking {
	frozen_dihedral = ("
		11 9 12 14
	")
}

ee = optimize('scf')
oeprop('DIPOLE', 'QUADRUPOLE', 'MULLIKEN_CHARGES')
f=open( 'psi4out.xyz', 'w' )
f.write( "15  " )
f.write( str(ee) + "\n" )
f.write( MOL.save_string_xyz() )
f.close()
--------------------------------------------------------------------------

    Molecular point group: c1
  Charge       = 0
  Multiplicity = 1
  Basis Set: CC-PVTZ
  Basis Set:
  @DF-RHF Final Energy:  -418.43009311443365
    Total Energy =                       -418.4300931144335891
    Molecular point group: c1
  Basis Set: CC-PVTZ
  Basis Set:
  Basis Set: CC-PVTZ
  Basis Set:
  @DF-RHF Final Energy:  -418.42963493671283
    Total Energy =                       -418.4296349367131143
  Basis Set: CC-PVTZ
  Basis Set:
  Basis Set: CC-PVTZ
  Basis Set:
  @DF-RHF Final Energy:  -418.43019229735967
    Total Energy =                       -418.4301922973597812
  Basis Set: CC-PVTZ
  Basis Set:
  Basis Set: CC-PVTZ
  Basis Set:
  @DF-RHF Final Energy:  -418.43072646331922
    Total Energy =                       -418.4307264633191608
  Basis Set: CC-PVTZ
  Basis Set:
  Basis Set: CC-PVTZ
  Basis Set:
  @DF-RHF Final Energy:  -418.43075794271374
    Total Energy =                       -418.4307579427137398
  Basis Set: CC-PVTZ
  Basis Set:
  Charge       = 0
  Multiplicity = 1
  Basis Set: CC-PVTZ
  Basis Set:

    Orbital Energies (a.u.)
    -----------------------

    Doubly Occupied:

       1A    -20.597606     2A    -20.561344     3A    -11.331503
       4A    -11.313109     5A    -11.255012     6A    -11.249208
       7A    -11.241448     8A    -11.239759     9A    -11.236380
      10A     -1.429298    11A     -1.416006    12A     -1.172953
      13A     -1.052541    14A     -1.027401    15A     -0.902823
      16A     -0.847027    17A     -0.820014    18A     -0.742757
      19A     -0.703729    20A     -0.676428    21A     -0.672541
      22A     -0.639591    23A     -0.616289    24A     -0.608888
      25A     -0.587043    26A     -0.544662    27A     -0.540305
      28A     -0.517045    29A     -0.496290    30A     -0.427123
      31A     -0.358437    32A     -0.328975

  @DF-RHF Final Energy:  -418.43075899209214

   => Energetics <=

    Nuclear Repulsion Energy =            402.8144066766864171
    One-Electron Energy =               -1368.1832625504021053
    Two-Electron Energy =                 546.9380968816237782
    DFT Exchange-Correlation Energy =       0.0000000000000000
    Empirical Dispersion Energy =           0.0000000000000000
    PCM Polarization Energy =               0.0000000000000000
    EFP Energy =                            0.0000000000000000
    Total Energy =                       -418.4307589920919099
    Molecular point group: c1
  Basis Set: CC-PVTZ
  Basis Set:

  -Total Gradient:
     Atom            X                  Y                   Z
    ------   -----------------  -----------------  -----------------
       1        0.000007821046     0.000009951203     0.000014630742
       2        0.000039386664     0.000015733506    -0.000005840597
       3       -0.000204561355    -0.000017575895     0.000105199191
       4        0.000012804827    -0.000103691495    -0.000165565475
       5        0.000145881507     0.000082544681     0.000009994364
       6       -0.000003171278     0.000020331971     0.000001783201
       7        0.000148181345     0.000030697917     0.000098899401
       8       -0.000003744183    -0.000000577948     0.000005660948
       9        0.000774989776    -0.006466793426     0.006051127581
      10       -0.000009002086    -0.000006441452    -0.000008345874
      11       -0.000664996354     0.004388082756    -0.002326480823
      12       -0.000231923298     0.002259940999    -0.009815747923
      13        0.000003784032    -0.000003467947     0.000007340455
      14       -0.000016861207    -0.000202873219     0.006034833034
      15        0.000001410567    -0.000005861650    -0.000007488231

  **** Optimization is complete! (in 6 steps) ****
    Final optimized geometry and variables:
    Molecular point group: c1

    Geometry (in Angstrom), charge = 0, multiplicity = 1:

    H            2.626409781137     1.517413543134     1.706867734934
    O            1.694177985211     1.432524471897     1.794495467328
    C            1.169568994001     0.743182801099     0.763282414603
    C            1.940771586766     0.258942432772    -0.277920645643
    C           -0.198316103562     0.537036872169     0.763134612069
    H            3.001740837496     0.430191587108    -0.286009166138
    C            1.341469371309    -0.437814755805    -1.309927065597
    H           -0.784404264119     0.939735780801     1.567162420125
    C           -0.779983037072    -0.192337792535    -0.254811233420
    H            1.945108299715    -0.800682155809    -2.119486465534
    C           -0.018242733941    -0.669734356053    -1.308507748839
    C           -2.264652565039    -0.372307853608    -0.259123584777
    H           -0.482338323466    -1.222107614957    -2.101142911520
    O           -2.805423437137    -1.421947003672    -0.292077001552
    H           -2.846699532794     0.551573759367    -0.180906873291

  Mulliken Charges: (a.u.)
   Center  Symbol    Alpha    Beta     Spin     Total
       1     H     0.38617  0.38617  0.00000  0.22766
       2     O     4.17179  4.17179  0.00000 -0.34357
       3     C     2.83723  2.83723  0.00000  0.32554
       4     C     3.13783  3.13783  0.00000 -0.27565
       5     C     3.13523  3.13523  0.00000 -0.27047
       6     H     0.43229  0.43229  0.00000  0.13543
       7     C     3.05406  3.05406  0.00000 -0.10812
       8     H     0.41940  0.41940  0.00000  0.16120
       9     C     2.92783  2.92783  0.00000  0.14433
      10     H     0.41944  0.41944  0.00000  0.16111
      11     C     3.11832  3.11832  0.00000 -0.23665
      12     C     2.92554  2.92554  0.00000  0.14893
      13     H     0.41699  0.41699  0.00000  0.16601
      14     O     4.15982  4.15982  0.00000 -0.31963
      15     H     0.45807  0.45807  0.00000  0.08387

   Total alpha = 32.00000, Total beta = 32.00000, Total charge = -0.00000
