  ==> Input File <==

--------------------------------------------------------------------------
set {
	reference rhf
	basis cc-pvtz
}

set_num_threads( 4 )
memory 2 gb

molecule MOL {
0 1

H	 2.012744	 -0.722438	 2.703310
O	 2.436932	 -0.199041	 2.046925
C	 1.586703	 0.139294	 1.061419
C	 2.084932	 0.914583	 0.024203
C	 0.265631	 -0.254516	 1.055239
H	 3.115163	 1.209845	 0.048675
C	 1.261221	 1.291248	 -1.011642
H	 -0.145099	 -0.852485	 1.842025
C	 -0.532034	 0.141680	 0.000000
H	 1.655000	 1.890443	 -1.808920
C	 -0.069299	 0.908040	 -1.040121
N	 -1.937041	 -0.281114	 0.000000
H	 -0.720345	 1.192859	 -1.837454
O	 -2.159542	 -1.446261	 0.000000
O	 -2.764978	 0.565773	 0.000000

	symmetry c1
}
set optking {
	frozen_dihedral = ("
		11 9 12 14
	")
}

ee = optimize('scf')
oeprop('DIPOLE', 'QUADRUPOLE', 'MULLIKEN_CHARGES')
f=open( 'psi4out.xyz', 'w' )
f.write( "15  " )
f.write( str(ee) + "\n" )
f.write( MOL.save_string_xyz() )
f.close()
--------------------------------------------------------------------------

    Molecular point group: c1
  Charge       = 0
  Multiplicity = 1
  Basis Set: CC-PVTZ
  Basis Set:
  @DF-RHF Final Energy:  -509.21234000969031
    Total Energy =                       -509.2123400096902515
    Molecular point group: c1
  Basis Set: CC-PVTZ
  Basis Set:
  Basis Set: CC-PVTZ
  Basis Set:
  @DF-RHF Final Energy:  -509.20644478967318
    Total Energy =                       -509.2064447896734691
  Basis Set: CC-PVTZ
  Basis Set:
  Basis Set: CC-PVTZ
  Basis Set:
  @DF-RHF Final Energy:  -509.21246141448131
    Total Energy =                       -509.2124614144813677
  Basis Set: CC-PVTZ
  Basis Set:
  Basis Set: CC-PVTZ
  Basis Set:
  @DF-RHF Final Energy:  -509.21283518893648
    Total Energy =                       -509.2128351889364239
  Basis Set: CC-PVTZ
  Basis Set:
  Basis Set: CC-PVTZ
  Basis Set:
  @DF-RHF Final Energy:  -509.21283782737595
    Total Energy =                       -509.2128378273760063
  Basis Set: CC-PVTZ
  Basis Set:
  Basis Set: CC-PVTZ
  Basis Set:
  @DF-RHF Final Energy:  -509.21283076052839
    Total Energy =                       -509.2128307605279360
  Basis Set: CC-PVTZ
  Basis Set:
  Charge       = 0
  Multiplicity = 1
  Basis Set: CC-PVTZ
  Basis Set:

    Orbital Energies (a.u.)
    -----------------------

    Doubly Occupied:

       1A    -20.610171     2A    -20.599124     3A    -20.598757
       4A    -15.850460     5A    -11.330094     6A    -11.313007
       7A    -11.264831     8A    -11.263937     9A    -11.258536
      10A    -11.252261    11A     -1.646726    12A     -1.443056
      13A     -1.429847    14A     -1.204380    15A     -1.096673
      16A     -1.049758    17A     -0.966893    18A     -0.885965
      19A     -0.833291    20A     -0.793861    21A     -0.766106
      22A     -0.740746    23A     -0.725066    24A     -0.712592
      25A     -0.673709    26A     -0.636226    27A     -0.623388
      28A     -0.597083    29A     -0.565022    30A     -0.549586
      31A     -0.534100    32A     -0.495124    33A     -0.489649
      34A     -0.460150    35A     -0.377272    36A     -0.346581

  @DF-RHF Final Energy:  -509.21283258596770

   => Energetics <=

    Nuclear Repulsion Energy =            504.2143035634898069
    One-Electron Energy =               -1694.8862163326252812
    Two-Electron Energy =                 681.4590801831677709
    DFT Exchange-Correlation Energy =       0.0000000000000000
    Empirical Dispersion Energy =           0.0000000000000000
    PCM Polarization Energy =               0.0000000000000000
    EFP Energy =                            0.0000000000000000
    Total Energy =                       -509.2128325859675897
    Molecular point group: c1
  Basis Set: CC-PVTZ
  Basis Set:

  -Total Gradient:
     Atom            X                  Y                   Z
    ------   -----------------  -----------------  -----------------
       1       -0.000001149647     0.000000526770    -0.000000121623
       2        0.000003686000    -0.000013768692    -0.000008823256
       3        0.000002826384     0.000037073007     0.000023660551
       4       -0.000003860220    -0.000002581839     0.000009394157
       5        0.000129127481    -0.000384190726    -0.000231361934
       6       -0.000000502262     0.000003836041    -0.000000950323
       7        0.000012717130    -0.000032530798    -0.000029381606
       8        0.000008290768     0.000012025484    -0.000013503723
       9       -0.002170615219     0.006510020919     0.001850061048
      10       -0.000000354749     0.000007308925     0.000003229031
      11        0.001408363170    -0.004148883238    -0.002354631316
      12        0.000472991116    -0.001792050931     0.005902795592
      13        0.000014560649    -0.000002921915     0.000009656455
      14        0.000115426232    -0.000167960757    -0.005173022228
      15        0.000008493150    -0.000025902256     0.000012999177

  **** Optimization is complete! (in 7 steps) ****
    Final optimized geometry and variables:
    Molecular point group: c1

    Geometry (in Angstrom), charge = 0, multiplicity = 1:

    H            2.056058500875    -0.869397969350     2.451936113248
    O            2.476432285350    -0.342159534775     1.796255244421
    C            1.624138012347     0.001801988101     0.816643996695
    C            2.122689165453     0.768704533667    -0.226959969432
    C            0.300299640034    -0.389184326766     0.814384649560
    H            3.156383104823     1.051330284303    -0.212041700535
    C            1.296339603578     1.146325515823    -1.259876987182
    H           -0.102361498849    -1.011761319206     1.589179091793
    C           -0.500847027198     0.039300688346    -0.220921701337
    H            1.693965348790     1.728250048384    -2.068147094718
    C           -0.042097361944     0.786988451196    -1.272347393218
    N           -1.891277968961    -0.419426734107    -0.245780785890
    H           -0.699843407019     1.085252248514    -2.062132020894
    O           -2.073197371960    -1.590244276197    -0.219102597796
    O           -2.733633514212     0.408596101671    -0.330870411205

  Mulliken Charges: (a.u.)
   Center  Symbol    Alpha    Beta     Spin     Total
       1     H     0.38453  0.38453  0.00000  0.23095
       2     O     4.16728  4.16728  0.00000 -0.33457
       3     C     2.84279  2.84279  0.00000  0.31441
       4     C     3.10446  3.10446  0.00000 -0.20891
       5     C     3.14097  3.14097  0.00000 -0.28193
       6     H     0.41398  0.41398  0.00000  0.17204
       7     C     3.05127  3.05127  0.00000 -0.10253
       8     H     0.42011  0.42011  0.00000  0.15977
       9     C     2.92634  2.92634  0.00000  0.14731
      10     H     0.41628  0.41628  0.00000  0.16744
      11     C     3.10823  3.10823  0.00000 -0.21646
      12     N     3.28247  3.28247  0.00000  0.43507
      13     H     0.40990  0.40990  0.00000  0.18020
      14     O     4.16593  4.16593  0.00000 -0.33186
      15     O     4.16546  4.16546  0.00000 -0.33093

   Total alpha = 36.00000, Total beta = 36.00000, Total charge = -0.00000
