                              Psi4 1.0.54 Driver

  ==> Input File <==

--------------------------------------------------------------------------
set {
	reference rhf
	basis cc-pvtz
}

set_num_threads( 4 )
memory 2 gb

molecule MOL {
0 1

H	 2.646708	 0.758099	 0.000000
O	 2.258158	 -0.097743	 0.000000
C	 0.911162	 -0.015915	 0.000000
C	 0.198529	 -1.184447	 -0.213284
C	 0.241866	 1.176303	 0.202677
H	 0.734384	 -2.099983	 -0.368691
C	 -1.179061	 -1.149118	 -0.221795
H	 0.794782	 2.083240	 0.368212
C	 -1.141577	 1.196825	 0.191498
H	 -1.726102	 -2.057780	 -0.387571
C	 -1.861023	 0.039398	 -0.019905
H	 -1.653469	 2.127014	 0.349740
H	 -2.933146	 0.059010	 -0.027916

	symmetry c1
}
set optking {
	frozen_dihedral = ("
		4 3 2 1
	")
}

ee,wfn = optimize('scf', return_wfn=True)
oeprop( wfn, 'DIPOLE', 'QUADRUPOLE', 'MULLIKEN_CHARGES')
f=open( 'psi4out.xyz', 'w' )
f.write( "13  " )
f.write( str(ee) + "\n" )
f.write( MOL.save_string_xyz() )
f.close()
--------------------------------------------------------------------------

    Molecular point group: c1
  Charge       = 0
  Multiplicity = 1
  Basis Set: CC-PVTZ
  Basis Set:
  @DF-RHF Final Energy:  -305.67040664706246
    Total Energy =                       -305.6704066470626913
    Molecular point group: c1
  Basis Set: CC-PVTZ
  Basis Set:
  Basis Set: CC-PVTZ
  Basis Set:
  @DF-RHF Final Energy:  -305.67040950851049
    Total Energy =                       -305.6704095085104882
  Basis Set: CC-PVTZ
  Basis Set:
  Charge       = 0
  Multiplicity = 1
  Basis Set: CC-PVTZ
  Basis Set:

    Orbital Energies (a.u.)
    -----------------------

    Doubly Occupied:

       1A    -20.584676     2A    -11.297472     3A    -11.235223
       4A    -11.233432     5A    -11.226150     6A    -11.220629
       7A    -11.219549     8A     -1.415329     9A     -1.152672
      10A     -1.022813    11A     -1.008388    12A     -0.851197
      13A     -0.826752    14A     -0.741583    15A     -0.688286
      16A     -0.654812    17A     -0.613065    18A     -0.596620
      19A     -0.592050    20A     -0.566441    21A     -0.517571
      22A     -0.493112    23A     -0.485286    24A     -0.343224
      25A     -0.315000

  @DF-RHF Final Energy:  -305.67041024973565

   => Energetics <=

    Nuclear Repulsion Energy =            273.8312957558293306
    One-Electron Energy =                -957.2007533750056609
    Two-Electron Energy =                 377.6990473694406774
    DFT Exchange-Correlation Energy =       0.0000000000000000
    Empirical Dispersion Energy =           0.0000000000000000
    PCM Polarization Energy =               0.0000000000000000
    EFP Energy =                            0.0000000000000000
    Total Energy =                       -305.6704102497355962
    Molecular point group: c1
  Basis Set: CC-PVTZ
  Basis Set:

  -Total Gradient:
     Atom            X                  Y                   Z
    ------   -----------------  -----------------  -----------------
       1        0.000009545792     0.000006736929    -0.001012061669
       2       -0.000020208630     0.000049524179     0.000926996648
       3        0.000017546049    -0.000084488470     0.000840233117
       4       -0.000095359701     0.000077412032    -0.000712481911
       5        0.000084886276    -0.000040126347    -0.000058609656
       6        0.000008578792     0.000005714041    -0.000009209873
       7        0.000086099978    -0.000053224837    -0.000023165260
       8       -0.000005971112    -0.000002130521     0.000012743692
       9       -0.000084531585    -0.000055517869     0.000010389150
      10       -0.000006383541    -0.000000467069     0.000002641732
      11        0.000001294825     0.000094801102     0.000031478961
      12        0.000004728173     0.000006337092    -0.000004147679
      13       -0.000000225310    -0.000004570263    -0.000004807250

  **** Optimization is complete! (in 3 steps) ****
    Final optimized geometry and variables:
    Molecular point group: c1

    Geometry (in Angstrom), charge = 0, multiplicity = 1:

    H            2.646640077340     0.756627870749     0.019790103040
    O            2.258302648422    -0.099386322195     0.016785040963
    C            0.911049676658    -0.017369388119     0.010260692988
    C            0.198408298828    -1.184697828185    -0.207887009952
    C            0.241773508479     1.175191777912     0.212023584845
    H            0.734020248747    -2.099881502869    -0.366399122418
    C           -1.179410742730    -1.149378366668    -0.216295372866
    H            0.795064183438     2.080723420764     0.383720897489
    C           -1.141414914255     1.196700365250     0.196620167718
    H           -1.726402818951    -2.057619129292    -0.384643719066
    C           -1.861037078438     0.039262376456    -0.015486006522
    H           -1.653214343565     2.127135158209     0.353828227334
    H           -2.933167809487     0.059403159020    -0.025454445554

  Mulliken Charges: (a.u.)
   Center  Symbol    Alpha    Beta     Spin     Total
       1     H     0.38719  0.38719  0.00000  0.22562
       2     O     4.17541  4.17541  0.00000 -0.35083
       3     C     2.85013  2.85013  0.00000  0.29975
       4     C     3.11091  3.11091  0.00000 -0.22182
       5     C     3.13376  3.13376  0.00000 -0.26753
       6     H     0.41940  0.41940  0.00000  0.16120
       7     C     3.05671  3.05671  0.00000 -0.11342
       8     H     0.43453  0.43453  0.00000  0.13094
       9     C     3.06481  3.06481  0.00000 -0.12962
      10     H     0.42241  0.42241  0.00000  0.15518
      11     C     3.09844  3.09844  0.00000 -0.19688
      12     H     0.42238  0.42238  0.00000  0.15525
      13     H     0.42391  0.42391  0.00000  0.15218

   Total alpha = 25.00000, Total beta = 25.00000, Total charge =  0.00000

*** Psi4 exiting successfully. Buy a developer a beer!
