  ==> Input File <==

--------------------------------------------------------------------------
set {
	reference rhf
	basis 6-31G*
}

set_num_threads( 4 )
memory 2 gb

molecule MOL {
0 1

O	 -2.821601	 1.309235	 -0.001213
C	 -2.668563	 0.129746	 -0.000350
C	 -3.801572	 -0.864014	 -0.000442
O	 -1.481751	 -0.454642	 0.000584
H	 -4.417280	 -0.689587	 -0.874708
H	 -3.443784	 -1.883046	 -0.000565
H	 -4.417179	 -0.689832	 0.873954
C	 -0.334255	 0.388708	 0.000906
C	 0.891947	 -0.504646	 0.000751
H	 -0.365390	 1.025305	 -0.873475
H	 -0.365484	 1.024911	 0.875569
C	 2.191998	 0.301789	 0.000897
H	 0.855148	 -1.151283	 -0.871571
H	 0.855132	 -1.151660	 0.872805
C	 1.975325	 1.781644	 -0.320675
H	 2.674581	 0.213788	 0.972728
H	 2.884330	 -0.124062	 -0.723265
C	 3.273685	 2.587327	 -0.319195
H	 1.283988	 2.208864	 0.402243
H	 1.495251	 1.871522	 -1.292539
H	 3.760724	 2.544616	 0.650847
H	 3.087758	 3.631540	 -0.550033
H	 3.973425	 2.204971	 -1.056880

	symmetry c1
}
set optking {
	frozen_dihedral = ("
		16 12 9 13
	")
}

ee = optimize('scf')
oeprop('DIPOLE', 'QUADRUPOLE', 'MULLIKEN_CHARGES')
f=open( 'psi4out.xyz', 'w' )
f.write( "23  " )
f.write( str(ee) + "\n" )
f.write( MOL.save_string_xyz() )
f.close()
--------------------------------------------------------------------------

    Molecular point group: c1
  Charge       = 0
  Multiplicity = 1
  Basis Set: 6-31G*
  Basis Set:
  @DF-RHF Final Energy:  -422.96656585338724
    Total Energy =                       -422.9665658533868964
    Molecular point group: c1
  Basis Set: 6-31G*
  Basis Set:
  Basis Set: 6-31G*
  Basis Set:
  @DF-RHF Final Energy:  -422.96736391887958
    Total Energy =                       -422.9673639188797551
  Basis Set: 6-31G*
  Basis Set:
  Basis Set: 6-31G*
  Basis Set:
  @DF-RHF Final Energy:  -422.97063701026542
    Total Energy =                       -422.9706370102652500
  Basis Set: 6-31G*
  Basis Set:
  Basis Set: 6-31G*
  Basis Set:
  @DF-RHF Final Energy:  -422.97113170499495
    Total Energy =                       -422.9711317049949457
  Basis Set: 6-31G*
  Basis Set:
  @DF-RHF Final Energy:  -422.97119564513923
    Total Energy =                       -422.9711956451396873
  @DF-RHF Final Energy:  -422.97096914784714
    Total Energy =                       -422.9709691478471996
  @DF-RHF Final Energy:  -422.97120879149787
    Total Energy =                       -422.9712087914977019
  Basis Set: 6-31G*
  Basis Set:
  @DF-RHF Final Energy:  -422.97121159503808
    Total Energy =                       -422.9712115950378575
  Basis Set: 6-31G*
  Basis Set:
  Basis Set: 6-31G*
  Basis Set:
  @DF-RHF Final Energy:  -422.97121054631214
    Total Energy =                       -422.9712105463133867
  Basis Set: 6-31G*
  Basis Set:
  Basis Set: 6-31G*
  Basis Set:
  @DF-RHF Final Energy:  -422.97121221470337
    Total Energy =                       -422.9712122147041100
  Basis Set: 6-31G*
  Basis Set:
  Charge       = 0
  Multiplicity = 1
  Basis Set: 6-31G*
  Basis Set:

    Orbital Energies (a.u.)
    -----------------------

    Doubly Occupied:

       1A    -20.602715     2A    -20.540362     3A    -11.373927
       4A    -11.281241     5A    -11.232252     6A    -11.224254
       7A    -11.223687     8A    -11.222511     9A    -11.213182
      10A     -1.467702    11A     -1.360546    12A     -1.090965
      13A     -1.040285    14A     -1.001602    15A     -0.931592
      16A     -0.854209    17A     -0.788884    18A     -0.777537
      19A     -0.690557    20A     -0.684712    21A     -0.666240
      22A     -0.642342    23A     -0.605482    24A     -0.588622
      25A     -0.577055    26A     -0.570437    27A     -0.566582
      28A     -0.528244    29A     -0.524116    30A     -0.513823
      31A     -0.498165    32A     -0.474320    33A     -0.462556
      34A     -0.462411    35A     -0.446958    36A     -0.435674

  @DF-RHF Final Energy:  -422.97121220994205

   => Energetics <=

    Nuclear Repulsion Energy =            456.9282393343442550
    One-Electron Energy =               -1481.4674019516278349
    Two-Electron Energy =                 601.5679504073418684
    DFT Exchange-Correlation Energy =       0.0000000000000000
    Empirical Dispersion Energy =           0.0000000000000000
    PCM Polarization Energy =               0.0000000000000000
    EFP Energy =                            0.0000000000000000
    Total Energy =                       -422.9712122099417684
    Molecular point group: c1
  Basis Set: 6-31G*
  Basis Set:

  -Total Gradient:
     Atom            X                  Y                   Z
    ------   -----------------  -----------------  -----------------
       1       -0.000011408358     0.000019959431    -0.000003562158
       2        0.000022157471    -0.000011591568     0.000000936348
       3        0.000000475205    -0.000002799058     0.000007631709
       4        0.000002117916    -0.000002891133    -0.000017671377
       5       -0.000003067288    -0.000001468676    -0.000006698103
       6       -0.000001126240     0.000000292341    -0.000000452880
       7       -0.000005149524     0.000000168035     0.000002279731
       8        0.000007709547     0.000002069707     0.000050769527
       9       -0.002059052045     0.003777878757    -0.003724768159
      10       -0.000007933780     0.000001271331    -0.000011105415
      11        0.000002724310    -0.000002120053    -0.000009058548
      12       -0.002577795263     0.004157283136     0.002624410727
      13        0.002131110310    -0.003810439774     0.002682391053
      14        0.000002584980     0.000000558602     0.000002060377
      15        0.000000422320     0.000001002381     0.000009502963
      16        0.002497513576    -0.004124421730    -0.001602556232
      17        0.000000520935    -0.000007791130     0.000000653678
      18       -0.000001098095     0.000002551428    -0.000004059382
      19        0.000002548395     0.000003763419    -0.000000290880
      20       -0.000002315126    -0.000002575656     0.000001119457
      21       -0.000002275003    -0.000000342893    -0.000000226186
      22        0.000001439018     0.000000385879    -0.000000647998
      23       -0.000000103254    -0.000000742774    -0.000000658256

  **** Optimization is complete! (in 11 steps) ****
    Final optimized geometry and variables:
    Molecular point group: c1

    Geometry (in Angstrom), charge = 0, multiplicity = 1:

    O           -2.636778401061     0.690661642102     0.147112948871
    C           -2.411007780688    -0.476213597975     0.099796045061
    C           -3.480563874675    -1.537863724634     0.080728402975
    O           -1.190864541505    -0.985425832184     0.058473502340
    H           -4.123340594199    -1.368870457520    -0.774929364739
    H           -3.060867269098    -2.531914442415     0.034248823353
    H           -4.087993451183    -1.435810448328     0.972090295621
    C           -0.097324767877    -0.071779708161     0.070511266869
    C            1.169166268289    -0.908163256639     0.017404124995
    H           -0.192456698482     0.593779120439    -0.775011039144
    H           -0.151704841519     0.524040766543     0.971477369552
    C            2.502767308699    -0.122000372317     0.075385656681
    H            1.144935425843    -1.542032871951    -0.863133009997
    H            1.134521322586    -1.598108579085     0.855235187876
    C            2.460286357658     1.361541126865    -0.305004747600
    H            2.945017907546    -0.236804476343     1.061428358301
    H            3.204422081961    -0.614847333185    -0.593142762455
    C            3.844870793851     2.006335442260    -0.248608041955
    H            1.791134767594     1.904328235005     0.356971337522
    H            2.057245063364     1.471844945718    -1.308905209627
    H            4.266380751943     1.941882645234     0.750467005010
    H            3.799328185146     3.055805615435    -0.521555761225
    H            4.534102149068     1.516023715964    -0.930146043704

  Mulliken Charges: (a.u.)
   Center  Symbol    Alpha    Beta     Spin     Total
       1     O     4.28406  4.28406  0.00000 -0.56812
       2     C     2.61542  2.61542  0.00000  0.76916
       3     C     3.28778  3.28778  0.00000 -0.57557
       4     O     4.31330  4.31330  0.00000 -0.62661
       5     H     0.39755  0.39755  0.00000  0.20490
       6     H     0.39988  0.39988  0.00000  0.20023
       7     H     0.39755  0.39755  0.00000  0.20490
       8     C     2.99918  2.99918  0.00000  0.00163
       9     C     3.16825  3.16825  0.00000 -0.33651
      10     H     0.40853  0.40853  0.00000  0.18294
      11     H     0.41030  0.41030  0.00000  0.17941
      12     C     3.16015  3.16015  0.00000 -0.32031
      13     H     0.41238  0.41238  0.00000  0.17524
      14     H     0.41218  0.41218  0.00000  0.17565
      15     C     3.16005  3.16005  0.00000 -0.32010
      16     H     0.41832  0.41832  0.00000  0.16336
      17     H     0.41821  0.41821  0.00000  0.16358
      18     C     3.23943  3.23943  0.00000 -0.47885
      19     H     0.41878  0.41878  0.00000  0.16244
      20     H     0.42008  0.42008  0.00000  0.15984
      21     H     0.42067  0.42067  0.00000  0.15866
      22     H     0.41700  0.41700  0.00000  0.16600
      23     H     0.42093  0.42093  0.00000  0.15814

   Total alpha = 36.00000, Total beta = 36.00000, Total charge =  0.00000
