  ==> Input File <==

--------------------------------------------------------------------------
set {
	reference rhf
	basis cc-pvtz
}

set_num_threads( 4 )
memory 2 gb

molecule MOL {
0 1

H	 -2.498963	 -0.741158	 -0.729149
O	 -2.346257	 -0.289210	 0.080372
C	 -1.183935	 0.486039	 -0.009831
C	 0.062853	 -0.375310	 0.027457
H	 -1.178881	 1.094526	 -0.908634
H	 -1.184406	 1.155156	 0.838676
O	 -0.083757	 -1.312344	 1.043293
H	 0.940645	 0.248048	 0.205788
H	 0.198048	 -0.861028	 -0.936584
C	 0.980341	 -2.196583	 1.173828
H	 1.906475	 -1.673145	 1.400905
H	 0.753130	 -2.870296	 1.986953
H	 1.127181	 -2.778140	 0.266773

	symmetry c1
}
set optking {
	frozen_dihedral = ("
		8 4 3 5
	")
}

ee = optimize('scf')
oeprop('DIPOLE', 'QUADRUPOLE', 'MULLIKEN_CHARGES')
f=open( 'psi4out.xyz', 'w' )
f.write( "13  " )
f.write( str(ee) + "\n" )
f.write( MOL.save_string_xyz() )
f.close()
--------------------------------------------------------------------------

    Molecular point group: c1
  Charge       = 0
  Multiplicity = 1
  Basis Set: CC-PVTZ
  Basis Set:
  @DF-RHF Final Energy:  -268.05727892667528
    Total Energy =                       -268.0572789266753944
    Molecular point group: c1
  Basis Set: CC-PVTZ
  Basis Set:
  Basis Set: CC-PVTZ
  Basis Set:
  @DF-RHF Final Energy:  -268.05813767024893
    Total Energy =                       -268.0581376702490388
  Basis Set: CC-PVTZ
  Basis Set:
  Basis Set: CC-PVTZ
  Basis Set:
  @DF-RHF Final Energy:  -268.05845544019985
    Total Energy =                       -268.0584554401998503
  Basis Set: CC-PVTZ
  Basis Set:
  Basis Set: CC-PVTZ
  Basis Set:
  @DF-RHF Final Energy:  -268.05855256291989
    Total Energy =                       -268.0585525629199424
  Basis Set: CC-PVTZ
  Basis Set:
  @DF-RHF Final Energy:  -268.05862817051224
    Total Energy =                       -268.0586281705121223
  @DF-RHF Final Energy:  -268.05868222115015
    Total Energy =                       -268.0586822211503772
  @DF-RHF Final Energy:  -268.05875848427462
    Total Energy =                       -268.0587584842746196
  @DF-RHF Final Energy:  -268.05886171877813
    Total Energy =                       -268.0588617187782461
  @DF-RHF Final Energy:  -268.05918987804364
    Total Energy =                       -268.0591898780435258
  @DF-RHF Final Energy:  -268.06194727584887
    Total Energy =                       -268.0619472758489792
  @DF-RHF Final Energy:  -268.06461210221607
    Total Energy =                       -268.0646121022163015
  @DF-RHF Final Energy:  -268.05061608094002
    Total Energy =                       -268.0506160809396761
  @DF-RHF Final Energy:  -268.06279101380625
    Total Energy =                       -268.0627910138064181
  @DF-RHF Final Energy:  -268.02050631037946
    Total Energy =                       -268.0205063103794600
  @DF-RHF Final Energy:  -268.05773439816505
    Total Energy =                       -268.0577343981651666
  @DF-RHF Final Energy:  -268.06362190416735
    Total Energy =                       -268.0636219041672348
  Basis Set: CC-PVTZ
  Basis Set:
  @DF-RHF Final Energy:  -268.06433135540078
    Total Energy =                       -268.0643313554006681
  Basis Set: CC-PVTZ
  Basis Set:
  Basis Set: CC-PVTZ
  Basis Set:
  @DF-RHF Final Energy:  -268.06489500948601
    Total Energy =                       -268.0648950094860652
  Basis Set: CC-PVTZ
  Basis Set:
  Basis Set: CC-PVTZ
  Basis Set:
  @DF-RHF Final Energy:  -268.06490835704659
    Total Energy =                       -268.0649083570465905
  Basis Set: CC-PVTZ
  Basis Set:
  Charge       = 0
  Multiplicity = 1
  Basis Set: CC-PVTZ
  Basis Set:

    Orbital Energies (a.u.)
    -----------------------

    Doubly Occupied:

       1A    -20.561611     2A    -20.540472     3A    -11.273001
       4A    -11.271886     5A    -11.266946     6A     -1.398606
       7A     -1.357240     8A     -1.021037     9A     -0.922811
      10A     -0.836552    11A     -0.705360    12A     -0.684419
      13A     -0.667211    14A     -0.636438    15A     -0.585056
      16A     -0.583247    17A     -0.545577    18A     -0.494447
      19A     -0.485023    20A     -0.437820    21A     -0.429526

  @DF-RHF Final Energy:  -268.06491168752905

   => Energetics <=

    Nuclear Repulsion Energy =            195.0715479140842774
    One-Electron Energy =                -752.8643411324108001
    Two-Electron Energy =                 289.7278815307975037
    DFT Exchange-Correlation Energy =       0.0000000000000000
    Empirical Dispersion Energy =           0.0000000000000000
    PCM Polarization Energy =               0.0000000000000000
    EFP Energy =                            0.0000000000000000
    Total Energy =                       -268.0649116875290474
    Molecular point group: c1
  Basis Set: CC-PVTZ
  Basis Set:

  -Total Gradient:
     Atom            X                  Y                   Z
    ------   -----------------  -----------------  -----------------
       1       -0.000011868543     0.000054074413    -0.000060422517
       2       -0.000055824044    -0.000046100418     0.000067392134
       3        0.001564012019     0.002781300341     0.003315399959
       4        0.000587337238     0.000341800319    -0.004536000296
       5       -0.001381525171    -0.002356801204    -0.002115022709
       6        0.000000230184    -0.000068109087     0.000029400505
       7        0.000015691893    -0.000010637804     0.000047115495
       8       -0.000719823904    -0.000715419647     0.003280565992
       9       -0.000010418555     0.000001179670    -0.000011001457
      10        0.000032846880     0.000017291281    -0.000005553131
      11       -0.000001978429    -0.000003047233     0.000000265098
      12       -0.000016223387     0.000009260260    -0.000008167507
      13       -0.000002456182    -0.000004790892    -0.000003971566

  **** Optimization is complete! (in 20 steps) ****
    Final optimized geometry and variables:
    Molecular point group: c1

    Geometry (in Angstrom), charge = 0, multiplicity = 1:

    H           -1.776394623050    -0.236310427788    -0.053629941870
    O           -1.761073775733     0.470278748606    -0.675193748537
    C           -0.633682419909     1.255295218987    -0.425729670685
    C            0.624061098082     0.417307691169    -0.327690669808
    H           -0.546061499490     1.933614142110    -1.264467508562
    H           -0.758753951575     1.835117994875     0.484316687043
    O            0.398641934717    -0.582305406067     0.621545680577
    H            1.456781913330     1.041138710941    -0.007042438073
    H            0.862020636510    -0.026741508578    -1.291222606806
    C            1.453414066778    -1.472351998319     0.791062689600
    H            2.352013083823    -0.961861513324     1.128997131766
    H            1.161069966854    -2.194122809451     1.539611120490
    H            1.681113614058    -1.997243540131    -0.133329676089

  Mulliken Charges: (a.u.)
   Center  Symbol    Alpha    Beta     Spin     Total
       1     H     0.38510  0.38510  0.00000  0.22979
       2     O     4.20935  4.20935  0.00000 -0.41870
       3     C     2.96018  2.96018  0.00000  0.07965
       4     C     2.97511  2.97511  0.00000  0.04977
       5     H     0.46002  0.46002  0.00000  0.07996
       6     H     0.47042  0.47042  0.00000  0.05916
       7     O     4.18537  4.18537  0.00000 -0.37074
       8     H     0.47105  0.47105  0.00000  0.05791
       9     H     0.46908  0.46908  0.00000  0.06184
      10     C     3.02983  3.02983  0.00000 -0.05966
      11     H     0.46924  0.46924  0.00000  0.06151
      12     H     0.44647  0.44647  0.00000  0.10707
      13     H     0.46878  0.46878  0.00000  0.06245

   Total alpha = 21.00000, Total beta = 21.00000, Total charge =  0.00000
