  ==> Input File <==

--------------------------------------------------------------------------
set {
	reference rhf
	basis 6-31G*
}

set_num_threads( 4 )
memory 2 gb

molecule MOL {
0 1

H	 3.089270	 -1.380733	 0.000000
O	 2.178328	 -1.639175	 0.000000
C	 1.368216	 -0.558384	 0.000000
C	 0.921880	 0.037086	 -1.172819
C	 0.983515	 -0.045144	 1.226385
H	 1.222442	 -0.363902	 -2.126185
C	 0.091952	 1.144313	 -1.118618
H	 1.327557	 -0.504139	 2.133046
C	 0.152448	 1.063603	 1.271823
H	 -0.247020	 1.596545	 -2.032927
C	 -0.297502	 1.663894	 0.102650
C	 -0.264684	 1.620110	 2.586042
H	 -0.942091	 2.523857	 0.147081
O	 0.065513	 1.179585	 3.640297
H	 -0.920061	 2.494465	 2.529189

	symmetry c1
}
set optking {
	frozen_dihedral = ("
		4 3 2 1
	")
}

ee = optimize('scf')
oeprop('DIPOLE', 'QUADRUPOLE', 'MULLIKEN_CHARGES')
f=open( 'psi4out.xyz', 'w' )
f.write( "15  " )
f.write( str(ee) + "\n" )
f.write( MOL.save_string_xyz() )
f.close()
--------------------------------------------------------------------------

    Molecular point group: c1
  Charge       = 0
  Multiplicity = 1
  Basis Set: 6-31G*
  Basis Set:
  @DF-RHF Final Energy:  -418.28181698551685
    Total Energy =                       -418.2818169855175938
    Molecular point group: c1
  Basis Set: 6-31G*
  Basis Set:
  Basis Set: 6-31G*
  Basis Set:
  @DF-RHF Final Energy:  -418.28266972541951
    Total Energy =                       -418.2826697254195096
  Basis Set: 6-31G*
  Basis Set:
  Basis Set: 6-31G*
  Basis Set:
  @DF-RHF Final Energy:  -418.28108578402851
    Total Energy =                       -418.2810857840285053
  Basis Set: 6-31G*
  Basis Set:
  Basis Set: 6-31G*
  Basis Set:
  @DF-RHF Final Energy:  -418.28277687883940
    Total Energy =                       -418.2827768788395133
  Basis Set: 6-31G*
  Basis Set:
  Basis Set: 6-31G*
  Basis Set:
  @DF-RHF Final Energy:  -418.28278735295544
    Total Energy =                       -418.2827873529550970
  Basis Set: 6-31G*
  Basis Set:
  Charge       = 0
  Multiplicity = 1
  Basis Set: 6-31G*
  Basis Set:

    Orbital Energies (a.u.)
    -----------------------

    Doubly Occupied:

       1A    -20.587023     2A    -20.565108     3A    -11.333922
       4A    -11.303050     5A    -11.253824     6A    -11.251407
       7A    -11.250874     8A    -11.249119     9A    -11.244577
      10A     -1.405897    11A     -1.402828    12A     -1.170285
      13A     -1.048937    14A     -1.026216    15A     -0.897551
      16A     -0.845862    17A     -0.800993    18A     -0.741507
      19A     -0.698058    20A     -0.679520    21A     -0.651869
      22A     -0.633928    23A     -0.618316    24A     -0.605801
      25A     -0.556011    26A     -0.545180    27A     -0.531483
      28A     -0.496867    29A     -0.486182    30A     -0.424041
      31A     -0.352099    32A     -0.342472

  @DF-RHF Final Energy:  -418.28278883857342

   => Energetics <=

    Nuclear Repulsion Energy =            402.5695734725791226
    One-Electron Energy =               -1367.7031183681178845
    Two-Electron Energy =                 546.8507560569651105
    DFT Exchange-Correlation Energy =       0.0000000000000000
    Empirical Dispersion Energy =           0.0000000000000000
    PCM Polarization Energy =               0.0000000000000000
    EFP Energy =                            0.0000000000000000
    Total Energy =                       -418.2827888385736514
    Molecular point group: c1
  Basis Set: 6-31G*
  Basis Set:

  -Total Gradient:
     Atom            X                  Y                   Z
    ------   -----------------  -----------------  -----------------
       1        0.000000438987     0.000015789834    -0.000281811841
       2        0.000159940749    -0.000035960779     0.000395733197
       3       -0.000392210801    -0.000027016732    -0.000278834523
       4        0.000257041557    -0.000027187431     0.000056208890
       5       -0.000006010361     0.000011523038     0.000086818562
       6        0.000002618865    -0.000016000194    -0.000000791659
       7       -0.000060456858     0.000182767373     0.000106617080
       8       -0.000015268732     0.000005932100    -0.000010016437
       9        0.000092407257    -0.000073567022     0.000075470523
      10        0.000009106583    -0.000013157248     0.000004060951
      11       -0.000029133258    -0.000053602957    -0.000195647021
      12       -0.000003411831     0.000032018430    -0.000013889950
      13       -0.000006646354     0.000003070543     0.000034362708
      14       -0.000007053150     0.000000938017     0.000009413025
      15       -0.000001362652    -0.000005546981     0.000012306488

  **** Optimization is complete! (in 6 steps) ****
    Final optimized geometry and variables:
    Molecular point group: c1

    Geometry (in Angstrom), charge = 0, multiplicity = 1:

    H            2.474804369964    -1.872758254829    -0.836814487672
    O            1.560310087592    -2.121618021134    -0.807710423635
    C            0.764818838802    -1.009064924460    -0.752101775693
    C            0.319409890502    -0.422777771441    -1.930139195191
    C            0.371939695261    -0.500881737479     0.468549076326
    H            0.626789414488    -0.845389714182    -2.869324580864
    C           -0.515327622463     0.679493534903    -1.885000663806
    H            0.704708122274    -0.960626085600     1.379585362565
    C           -0.467274117348     0.607931025879     0.512808739628
    H           -0.858270043777     1.128891377267    -2.799025686885
    C           -0.910175009998     1.197738510750    -0.661613523546
    C           -0.892463222846     1.164689002824     1.821789559784
    H           -1.560861950958     2.053962374835    -0.622474803347
    O           -0.552121502478     0.736863882328     2.878754257467
    H           -1.562827150700     2.027428727548     1.761572636713

  Mulliken Charges: (a.u.)
   Center  Symbol    Alpha    Beta     Spin     Total
       1     H     0.26942  0.26942  0.00000  0.46116
       2     O     4.38660  4.38660  0.00000 -0.77320
       3     C     2.82097  2.82097  0.00000  0.35806
       4     C     3.10820  3.10820  0.00000 -0.21640
       5     C     3.10784  3.10784  0.00000 -0.21568
       6     H     0.38858  0.38858  0.00000  0.22284
       7     C     3.10186  3.10186  0.00000 -0.20372
       8     H     0.37238  0.37238  0.00000  0.25524
       9     C     3.05190  3.05190  0.00000 -0.10379
      10     H     0.39262  0.39262  0.00000  0.21477
      11     C     3.10716  3.10716  0.00000 -0.21432
      12     C     2.83191  2.83191  0.00000  0.33618
      13     H     0.39196  0.39196  0.00000  0.21607
      14     O     4.24677  4.24677  0.00000 -0.49354
      15     H     0.42184  0.42184  0.00000  0.15632

   Total alpha = 32.00000, Total beta = 32.00000, Total charge =  0.00000
