                              Psi4 1.0.54 Driver

  ==> Input File <==

--------------------------------------------------------------------------
set {
	reference rhf
	basis cc-pvtz
}

set_num_threads( 4 )
memory 2 gb

molecule MOL {
0 1

H	 -2.910096	 -0.703349	 -1.032381
O	 -2.321472	 -0.864941	 -0.318626
C	 -2.021813	 0.336996	 0.342658
C	 -0.669613	 0.837286	 -0.127252
H	 -2.780861	 1.084746	 0.127159
H	 -2.006390	 0.184138	 1.420053
C	 0.490865	 -0.082543	 0.241244
H	 -0.708709	 0.967192	 -1.204587
H	 -0.507562	 1.822272	 0.303070
C	 1.839800	 0.429565	 -0.255472
H	 0.305636	 -1.070211	 -0.165276
H	 0.527397	 -0.195943	 1.322876
C	 3.001144	 -0.485193	 0.119072
H	 1.804373	 0.541073	 -1.335756
H	 2.020437	 1.423114	 0.146921
H	 2.866892	 -1.477297	 -0.298806
H	 3.943543	 -0.095749	 -0.249061
H	 3.085064	 -0.590459	 1.195790

	symmetry c1
}
set optking {
	frozen_dihedral = ("
		1 2 3 4
	")
}

ee,wfn = optimize('scf', return_wfn=True)
oeprop( wfn, 'DIPOLE', 'QUADRUPOLE', 'MULLIKEN_CHARGES')
f=open( 'psi4out.xyz', 'w' )
f.write( "18  " )
f.write( str(ee) + "\n" )
f.write( MOL.save_string_xyz() )
f.close()
--------------------------------------------------------------------------

    Molecular point group: c1
  Charge       = 0
  Multiplicity = 1
  Basis Set: CC-PVTZ
  Basis Set:
  @DF-RHF Final Energy:  -271.28453249043400
    Total Energy =                       -271.2845324904341169
    Molecular point group: c1
  Basis Set: CC-PVTZ
  Basis Set:
  Basis Set: CC-PVTZ
  Basis Set:
  @DF-RHF Final Energy:  -271.00824020529961
    Total Energy =                       -271.0082402052993302
  Basis Set: CC-PVTZ
  Basis Set:
  Basis Set: CC-PVTZ
  Basis Set:
  @DF-RHF Final Energy:  -271.14502371683454
    Total Energy =                       -271.1450237168343165
  Basis Set: CC-PVTZ
  Basis Set:
  Basis Set: CC-PVTZ
  Basis Set:
  @DF-RHF Final Energy:  -271.22219359400401
    Total Energy =                       -271.2221935940042954
  Basis Set: CC-PVTZ
  Basis Set:
  @DF-RHF Final Energy:  -271.28356461946066
    Total Energy =                       -271.2835646194606056
  Basis Set: CC-PVTZ
  Basis Set:
  @DF-RHF Final Energy:  -271.28536645296356
    Total Energy =                       -271.2853664529634443
  Basis Set: CC-PVTZ
  Basis Set:
  Basis Set: CC-PVTZ
  Basis Set:
  @DF-RHF Final Energy:  -271.28552585158099
    Total Energy =                       -271.2855258515811556
  Basis Set: CC-PVTZ
  Basis Set:
  Basis Set: CC-PVTZ
  Basis Set:
  @DF-RHF Final Energy:  -271.28553827038593
    Total Energy =                       -271.2855382703857003
  Basis Set: CC-PVTZ
  Basis Set:
  Charge       = 0
  Multiplicity = 1
  Basis Set: CC-PVTZ
  Basis Set:

    Orbital Energies (a.u.)
    -----------------------

    Doubly Occupied:

       1A    -20.545700     2A    -11.266308     3A    -11.211371
       4A    -11.210310     5A    -11.205925     6A    -11.203475
       7A     -1.363227     8A     -1.077281     9A     -1.010187
      10A     -0.915412    11A     -0.824112    12A     -0.789342
      13A     -0.695928    14A     -0.651093    15A     -0.613046
      16A     -0.597507    17A     -0.576112    18A     -0.551594
      19A     -0.530611    20A     -0.503418    21A     -0.490319
      22A     -0.470549    23A     -0.460352    24A     -0.452383
      25A     -0.426740

  @DF-RHF Final Energy:  -271.28553850330866

   => Energetics <=

    Nuclear Repulsion Energy =            248.9582148203805048
    One-Electron Energy =                -861.2029084488947319
    Two-Electron Energy =                 340.9591551252054842
    DFT Exchange-Correlation Energy =       0.0000000000000000
    Empirical Dispersion Energy =           0.0000000000000000
    PCM Polarization Energy =               0.0000000000000000
    EFP Energy =                            0.0000000000000000
    Total Energy =                       -271.2855385033087714
    Molecular point group: c1
  Basis Set: CC-PVTZ
  Basis Set:

  -Total Gradient:
     Atom            X                  Y                   Z
    ------   -----------------  -----------------  -----------------
       1       -0.000594810389     0.000639207028     0.000944492231
       2        0.000968638832    -0.000895108693    -0.000890238217
       3       -0.000926921446     0.000412372556    -0.000691983551
       4        0.000507737414    -0.000173866468     0.000647273784
       5        0.000013223423     0.000028380836    -0.000004249915
       6        0.000019429503    -0.000006093310    -0.000002874582
       7        0.000011587694     0.000030575136    -0.000025669611
       8       -0.000014462044    -0.000005797307     0.000006014584
       9        0.000020632886     0.000025461037     0.000005935291
      10       -0.000017823480    -0.000038996538     0.000014524264
      11       -0.000018199322    -0.000032876281     0.000009534846
      12        0.000003265178     0.000014014177     0.000011449015
      13        0.000027941947     0.000001166898    -0.000032671765
      14       -0.000008046419    -0.000009276902    -0.000019974063
      15        0.000014206080     0.000018723618     0.000006336199
      16       -0.000008914755    -0.000014141674    -0.000005663820
      17       -0.000006989167    -0.000005836723     0.000013235086
      18        0.000009504065     0.000012092611     0.000014530224

  **** Optimization is complete! (in 9 steps) ****
    Final optimized geometry and variables:
    Molecular point group: c1

    Geometry (in Angstrom), charge = 0, multiplicity = 1:

    H           -3.167416593752     0.077183721982     0.382454422107
    O           -2.371559929389     0.053822045268     0.878432462904
    C           -1.589089600440     1.189158263735     0.600411961409
    C           -0.474248017697     0.893170759027    -0.390127742327
    H           -2.210815588667     1.997741596062     0.228333493007
    H           -1.164869260070     1.519931810352     1.541824107224
    C            0.523939703911    -0.146976368387     0.108824688215
    H           -0.915095258858     0.558297587333    -1.326155271789
    H            0.043804630913     1.825081801187    -0.606132323152
    C            1.619126716910    -0.463934560502    -0.905389509503
    H           -0.008494235846    -1.056190141612     0.364877301489
    H            0.980650227928     0.210991226155     1.029103203034
    C            2.619759818749    -1.498397293181    -0.401035433015
    H            1.163361972232    -0.823411375916    -1.824158805120
    H            2.147046105883     0.449981923081    -1.165537641499
    H            2.126643525360    -2.435162593696    -0.163927633127
    H            3.381649531291    -1.704148048413    -1.144282592223
    H            3.119563472644    -1.153255718435     0.498043979069

  Mulliken Charges: (a.u.)
   Center  Symbol    Alpha    Beta     Spin     Total
       1     H     0.39341  0.39341  0.00000  0.21318
       2     O     4.20483  4.20483  0.00000 -0.40967
       3     C     2.98040  2.98040  0.00000  0.03920
       4     C     3.08617  3.08617  0.00000 -0.17233
       5     H     0.46159  0.46159  0.00000  0.07682
       6     H     0.46258  0.46258  0.00000  0.07485
       7     C     3.08822  3.08822  0.00000 -0.17644
       8     H     0.46001  0.46001  0.00000  0.07998
       9     H     0.45678  0.45678  0.00000  0.08645
      10     C     3.08297  3.08297  0.00000 -0.16595
      11     H     0.44495  0.44495  0.00000  0.11009
      12     H     0.45721  0.45721  0.00000  0.08558
      13     C     3.14961  3.14961  0.00000 -0.29923
      14     H     0.45517  0.45517  0.00000  0.08967
      15     H     0.45679  0.45679  0.00000  0.08641
      16     H     0.45444  0.45444  0.00000  0.09113
      17     H     0.44942  0.44942  0.00000  0.10115
      18     H     0.45545  0.45545  0.00000  0.08910

   Total alpha = 25.00000, Total beta = 25.00000, Total charge = -0.00000

*** Psi4 exiting successfully. Buy a developer a beer!
