                              Psi4 1.0.54 Driver

  ==> Input File <==

--------------------------------------------------------------------------
set {
	reference rhf
	basis cc-pvtz
}

set_num_threads( 4 )
memory 2 gb

molecule MOL {
0 1

H	 -3.485191	 -2.299087	 0.970508
O	 -3.066446	 -1.726945	 0.354472
C	 -1.818368	 -1.317160	 0.847214
C	 -1.175688	 -0.398187	 -0.171891
H	 -1.935824	 -0.795315	 1.794661
H	 -1.177846	 -2.178511	 1.025078
C	 0.196029	 0.106276	 0.266738
H	 -1.842305	 0.440342	 -0.347134
H	 -1.093384	 -0.932542	 -1.112959
C	 1.330220	 -0.826136	 -0.155230
H	 0.359542	 1.097229	 -0.145561
H	 0.212134	 0.218135	 1.348778
C	 2.719700	 -0.407669	 0.328325
H	 1.339388	 -0.911200	 -1.239363
H	 1.119001	 -1.821953	 0.224128
C	 3.241564	 0.893452	 -0.276737
H	 3.418299	 -1.204729	 0.093035
H	 2.711776	 -0.323368	 1.411960
H	 3.254204	 0.841071	 -1.360784
H	 2.634460	 1.745075	 0.005842
H	 4.254264	 1.092401	 0.054971

	symmetry c1
}
set optking {
	frozen_dihedral = ("
		8 4 7 10
	")
}

ee,wfn = optimize('scf', return_wfn=True)
oeprop( wfn, 'DIPOLE', 'QUADRUPOLE', 'MULLIKEN_CHARGES')
f=open( 'psi4out.xyz', 'w' )
f.write( "21  " )
f.write( str(ee) + "\n" )
f.write( MOL.save_string_xyz() )
f.close()
--------------------------------------------------------------------------

    Molecular point group: c1
  Charge       = 0
  Multiplicity = 1
  Basis Set: CC-PVTZ
  Basis Set:
  @DF-RHF Final Energy:  -310.32992077124516
    Total Energy =                       -310.3299207712453267
    Molecular point group: c1
  Basis Set: CC-PVTZ
  Basis Set:
  Basis Set: CC-PVTZ
  Basis Set:
  @DF-RHF Final Energy:  -310.33015851946828
    Total Energy =                       -310.3301585194687391
  Basis Set: CC-PVTZ
  Basis Set:
  Basis Set: CC-PVTZ
  Basis Set:
  @DF-RHF Final Energy:  -310.33018230514909
    Total Energy =                       -310.3301823051493784
  Basis Set: CC-PVTZ
  Basis Set:
  Basis Set: CC-PVTZ
  Basis Set:
  @DF-RHF Final Energy:  -310.33018648874310
    Total Energy =                       -310.3301864887434931
  Basis Set: CC-PVTZ
  Basis Set:
  Charge       = 0
  Multiplicity = 1
  Basis Set: CC-PVTZ
  Basis Set:

    Orbital Energies (a.u.)
    -----------------------

    Doubly Occupied:

       1A    -20.545459     2A    -11.265075     3A    -11.213630
       4A    -11.213232     5A    -11.211827     6A    -11.208922
       7A    -11.206148     8A     -1.363339     9A     -1.087075
      10A     -1.033238    11A     -0.953341    12A     -0.881217
      13A     -0.810094    14A     -0.776335    15A     -0.698189
      16A     -0.650915    17A     -0.631629    18A     -0.609556
      19A     -0.589052    20A     -0.564644    21A     -0.544506
      22A     -0.519166    23A     -0.512502    24A     -0.494122
      25A     -0.476384    26A     -0.460483    27A     -0.452712
      28A     -0.449095    29A     -0.432531

  @DF-RHF Final Energy:  -310.33019340982088

   => Energetics <=

    Nuclear Repulsion Energy =            315.3368466823002905
    One-Electron Energy =               -1045.6252434930422623
    Two-Electron Energy =                 419.9582034009213203
    DFT Exchange-Correlation Energy =       0.0000000000000000
    Empirical Dispersion Energy =           0.0000000000000000
    PCM Polarization Energy =               0.0000000000000000
    EFP Energy =                            0.0000000000000000
    Total Energy =                       -310.3301934098205948
    Molecular point group: c1
  Basis Set: CC-PVTZ
  Basis Set:

  -Total Gradient:
     Atom            X                  Y                   Z
    ------   -----------------  -----------------  -----------------
       1       -0.000022497173    -0.000019203785    -0.000009497419
       2       -0.000033176044    -0.000014584491     0.000026491529
       3        0.000011457731     0.000010603105    -0.000027651815
       4       -0.000631343322     0.000267621803     0.002153569865
       5        0.000004118967     0.000002355213     0.000005936567
       6       -0.000003445201     0.000016935456    -0.000005817854
       7       -0.000060004824    -0.001075964169     0.001429022108
       8        0.000610451978     0.000029460836    -0.002145291895
       9        0.000011780375    -0.000008760214     0.000000211567
      10        0.000097096777     0.000789938572    -0.001421923910
      11        0.000006385903     0.000011791734    -0.000010221084
      12       -0.000007904778    -0.000013341385    -0.000003597818
      13       -0.000004153193    -0.000007185654     0.000000830490
      14       -0.000007731861     0.000002197776     0.000002103190
      15       -0.000010325888     0.000000395076    -0.000002305394
      16        0.000010651424     0.000010980143     0.000004991332
      17        0.000021485957    -0.000009785648     0.000005519797
      18        0.000005933985     0.000006661696    -0.000002796794
      19        0.000001056651    -0.000007915827    -0.000002346213
      20       -0.000002258734     0.000003599028     0.000004599209
      21        0.000002421265     0.000004200734    -0.000001825462

  **** Optimization is complete! (in 5 steps) ****
    Final optimized geometry and variables:
    Molecular point group: c1

    Geometry (in Angstrom), charge = 0, multiplicity = 1:

    H           -3.633128161252    -1.720435022807     0.832427699591
    O           -3.213014420204    -1.162819852276     0.204154098557
    C           -1.975269661633    -0.724444575289     0.697912528089
    C           -1.336240508167     0.179178195475    -0.338228478021
    H           -2.108847800347    -0.176510381148     1.628235118846
    H           -1.328734792473    -1.573091300390     0.908371792323
    C            0.065199456785     0.662233578600     0.055703804552
    H           -1.992278959816     1.024361630902    -0.512364413636
    H           -1.289950349028    -0.359942972691    -1.279111766322
    C            1.182549827927    -0.291355563294    -0.370748655870
    H            0.236899992484     1.632278939807    -0.395243546724
    H            0.111166370144     0.820394749125     1.131153486729
    C            2.578255547638     0.095204695713     0.121566417128
    H            1.191108044794    -0.358166627404    -1.455819058124
    H            0.958164202089    -1.290962914424    -0.009683244458
    C            3.116223944048     1.405295788693    -0.449117144464
    H            3.266195005213    -0.704375196451    -0.135843527252
    H            2.572772136005     0.151105772404     1.207076734922
    H            3.123362806256     1.383303434790    -1.534240724710
    H            2.522662863665     2.257026812717    -0.139712613347
    H            4.133134670553     1.580018141781    -0.116740529392

  Mulliken Charges: (a.u.)
   Center  Symbol    Alpha    Beta     Spin     Total
       1     H     0.39731  0.39731  0.00000  0.20538
       2     O     4.19447  4.19447  0.00000 -0.38894
       3     C     2.95924  2.95924  0.00000  0.08153
       4     C     3.09195  3.09195  0.00000 -0.18389
       5     H     0.47446  0.47446  0.00000  0.05107
       6     H     0.47508  0.47508  0.00000  0.04985
       7     C     3.11373  3.11373  0.00000 -0.22746
       8     H     0.44568  0.44568  0.00000  0.10863
       9     H     0.45201  0.45201  0.00000  0.09597
      10     C     3.09363  3.09363  0.00000 -0.18726
      11     H     0.44355  0.44355  0.00000  0.11290
      12     H     0.45580  0.45580  0.00000  0.08840
      13     C     3.08980  3.08980  0.00000 -0.17960
      14     H     0.45247  0.45247  0.00000  0.09506
      15     H     0.44963  0.44963  0.00000  0.10074
      16     C     3.15280  3.15280  0.00000 -0.30561
      17     H     0.44873  0.44873  0.00000  0.10255
      18     H     0.45507  0.45507  0.00000  0.08985
      19     H     0.45451  0.45451  0.00000  0.09099
      20     H     0.45358  0.45358  0.00000  0.09283
      21     H     0.44649  0.44649  0.00000  0.10701

   Total alpha = 29.00000, Total beta = 29.00000, Total charge =  0.00000

*** Psi4 exiting successfully. Buy a developer a beer!
