  ==> Input File <==

--------------------------------------------------------------------------
set {
	reference rhf
	basis 6-31G*
}

set_num_threads( 1 )
memory 2 gb

molecule MOL {
0 1

H	 1.314184	 -1.182694	 2.040678
O	 0.633647	 -0.623080	 1.695147
C	 1.135793	 0.118896	 0.612333
C	 0.031547	 1.023609	 0.088541
H	 1.463242	 -0.545560	 -0.185267
H	 1.998923	 0.705352	 0.919215
C	 -1.134819	 0.293262	 -0.585751
H	 0.474374	 1.714721	 -0.623187
H	 -0.338529	 1.620940	 0.920081
C	 -1.917817	 -0.639439	 0.339494
H	 -0.758119	 -0.268455	 -1.433105
H	 -1.813832	 1.041889	 -0.986690
H	 -2.777680	 -1.057197	 -0.174994
H	 -1.310268	 -1.471279	 0.680599
H	 -2.283753	 -0.111424	 1.216626

	symmetry c1
}
set optking {
	frozen_dihedral = ("
		8 4 7 11,
		1 2 3 4
	")
}

ee = energy('scf')
oeprop('DIPOLE', 'QUADRUPOLE', 'MULLIKEN_CHARGES')
f=open( 'psi4out.xyz', 'w' )
f.write( "15  " )
f.write( str(ee) + "\n" )
f.write( MOL.save_string_xyz() )
f.close()
--------------------------------------------------------------------------

    Molecular point group: c1

    Geometry (in Angstrom), charge = 0, multiplicity = 1:

       Center              X                  Y                   Z               Mass
    ------------   -----------------  -----------------  -----------------  -----------------
           H          1.537631001860    -1.183228739617     1.568689691648     1.007825032070
           O          0.857094001860    -0.623614739617     1.223158691648    15.994914619560
           C          1.359240001860     0.118361260383     0.140344691648    12.000000000000
           C          0.254994001860     1.023074260383    -0.383447308352    12.000000000000
           H          1.686689001860    -0.546094739617    -0.657255308352     1.007825032070
           H          2.222370001860     0.704817260383     0.447226691648     1.007825032070
           C         -0.911371998140     0.292727260383    -1.057739308352    12.000000000000
           H          0.697821001860     1.714186260383    -1.095175308352     1.007825032070
           H         -0.115081998140     1.620405260383     0.448092691648     1.007825032070
           C         -1.694369998140    -0.639973739617    -0.132494308352    12.000000000000
           H         -0.534671998140    -0.268989739617    -1.905093308352     1.007825032070
           H         -1.590384998140     1.041354260383    -1.458678308352     1.007825032070
           H         -2.554232998140    -1.057731739617    -0.646982308352     1.007825032070
           H         -1.086820998140    -1.471813739617     0.208610691648     1.007825032070
           H         -2.060305998140    -0.111958739617     0.744637691648     1.007825032070

  Charge       = 0
  Multiplicity = 1
  Basis Set: 6-31G*
  Basis Set:

    Orbital Energies (a.u.)
    -----------------------

    Doubly Occupied:

       1A    -20.553938     2A    -11.268863     3A    -11.212562
       4A    -11.209946     5A    -11.191252     6A     -1.361808
       7A     -1.061914     8A     -0.967827     9A     -0.860895
      10A     -0.777599    11A     -0.705270    12A     -0.649325
      13A     -0.601839    14A     -0.573977    15A     -0.549095
      16A     -0.533805    17A     -0.510847    18A     -0.469016
      19A     -0.465628    20A     -0.450186    21A     -0.426089

  @DF-RHF Final Energy:  -232.14111849342387

   => Energetics <=

    Nuclear Repulsion Energy =            194.1558985626105880
    One-Electron Energy =                -699.7906362294561404
    Two-Electron Energy =                 273.4936191734220188
    DFT Exchange-Correlation Energy =       0.0000000000000000
    Empirical Dispersion Energy =           0.0000000000000000
    PCM Polarization Energy =               0.0000000000000000
    EFP Energy =                            0.0000000000000000
    Total Energy =                       -232.1411184934235621

  Mulliken Charges: (a.u.)
   Center  Symbol    Alpha    Beta     Spin     Total
       1     H     0.28095  0.28095  0.00000  0.43810
       2     O     4.36768  4.36768  0.00000 -0.73535
       3     C     2.99778  2.99778  0.00000  0.00443
       4     C     3.16101  3.16101  0.00000 -0.32201
       5     H     0.43283  0.43283  0.00000  0.13434
       6     H     0.42856  0.42856  0.00000  0.14288
       7     C     3.15369  3.15369  0.00000 -0.30737
       8     H     0.42236  0.42236  0.00000  0.15528
       9     H     0.41516  0.41516  0.00000  0.16968
      10     C     3.23405  3.23405  0.00000 -0.46811
      11     H     0.42561  0.42561  0.00000  0.14877
      12     H     0.42180  0.42180  0.00000  0.15639
      13     H     0.42830  0.42830  0.00000  0.14340
      14     H     0.40783  0.40783  0.00000  0.18434
      15     H     0.42239  0.42239  0.00000  0.15521

   Total alpha = 21.00000, Total beta = 21.00000, Total charge =  0.00000
