  ==> Input File <==

--------------------------------------------------------------------------
set {
	reference rhf
	basis 6-31G*
}

set_num_threads( 4 )
memory 2 gb

molecule MOL {
0 1

O	 -1.985612	 0.172542	 -2.063205
C	 -2.225610	 -0.472536	 -1.093210
C	 -3.407683	 -1.399583	 -0.972568
O	 -1.481751	 -0.454642	 0.000584
H	 -3.350784	 -2.140366	 -1.761153
H	 -3.439325	 -1.889110	 -0.010383
H	 -4.315246	 -0.827763	 -1.124988
C	 -0.334255	 0.388708	 0.000906
C	 0.891947	 -0.504646	 0.000751
H	 -0.365390	 1.025305	 -0.873475
H	 -0.365484	 1.024911	 0.875569
C	 2.191998	 0.301789	 0.000897
H	 0.855148	 -1.151283	 -0.871571
H	 0.855132	 -1.151660	 0.872805
C	 3.441114	 -0.581407	 0.000108
H	 2.215074	 0.954890	 -0.869742
H	 2.215465	 0.953923	 0.872248
C	 4.739576	 0.224112	 -0.001102
H	 3.419457	 -1.233487	 -0.870178
H	 3.420834	 -1.233096	 0.870717
H	 4.804918	 0.861552	 -0.878265
H	 5.606527	 -0.429058	 -0.001824
H	 4.806469	 0.861674	 0.875853

	symmetry c1
}
set optking {
	frozen_dihedral = ("
		2 4 8 10
	")
}

ee = optimize('scf')
oeprop('DIPOLE', 'QUADRUPOLE', 'MULLIKEN_CHARGES')
f=open( 'psi4out.xyz', 'w' )
f.write( "23  " )
f.write( str(ee) + "\n" )
f.write( MOL.save_string_xyz() )
f.close()
--------------------------------------------------------------------------

    Molecular point group: c1
  Charge       = 0
  Multiplicity = 1
  Basis Set: 6-31G*
  Basis Set:
  @DF-RHF Final Energy:  -422.97675770680382
    Total Energy =                       -422.9767577068038236
    Molecular point group: c1
  Basis Set: 6-31G*
  Basis Set:
  Basis Set: 6-31G*
  Basis Set:
  @DF-RHF Final Energy:  -422.97731779740900
    Total Energy =                       -422.9773177974093414
  Basis Set: 6-31G*
  Basis Set:
  Basis Set: 6-31G*
  Basis Set:
  @DF-RHF Final Energy:  -422.97710716567980
    Total Energy =                       -422.9771071656798540
  Basis Set: 6-31G*
  Basis Set:
  Basis Set: 6-31G*
  Basis Set:
  @DF-RHF Final Energy:  -422.97781924322902
    Total Energy =                       -422.9778192432287369
  Basis Set: 6-31G*
  Basis Set:
  Basis Set: 6-31G*
  Basis Set:
  @DF-RHF Final Energy:  -422.97782384802622
    Total Energy =                       -422.9778238480265600
  Basis Set: 6-31G*
  Basis Set:
  Charge       = 0
  Multiplicity = 1
  Basis Set: 6-31G*
  Basis Set:

    Orbital Energies (a.u.)
    -----------------------

    Doubly Occupied:

       1A    -20.602301     2A    -20.540208     3A    -11.375816
       4A    -11.279897     5A    -11.231906     6A    -11.223405
       7A    -11.222797     8A    -11.220846     9A    -11.212277
      10A     -1.465680    11A     -1.361403    12A     -1.092898
      13A     -1.041572    14A     -1.002711    15A     -0.931486
      16A     -0.847390    17A     -0.800121    18A     -0.770541
      19A     -0.698722    20A     -0.678811    21A     -0.657586
      22A     -0.649155    23A     -0.605402    24A     -0.588020
      25A     -0.585430    26A     -0.572434    27A     -0.550184
      28A     -0.539774    29A     -0.522573    30A     -0.508926
      31A     -0.487842    32A     -0.478431    33A     -0.474252
      34A     -0.469972    35A     -0.439058    36A     -0.435110

  @DF-RHF Final Energy:  -422.97782370458572

   => Energetics <=

    Nuclear Repulsion Energy =            452.5342133647582159
    One-Electron Energy =               -1472.6941986537949560
    Two-Electron Energy =                 597.1821615844505686
    DFT Exchange-Correlation Energy =       0.0000000000000000
    Empirical Dispersion Energy =           0.0000000000000000
    PCM Polarization Energy =               0.0000000000000000
    EFP Energy =                            0.0000000000000000
    Total Energy =                       -422.9778237045861715
    Molecular point group: c1
  Basis Set: 6-31G*
  Basis Set:

  -Total Gradient:
     Atom            X                  Y                   Z
    ------   -----------------  -----------------  -----------------
       1        0.000027491200    -0.000006397177     0.000091981467
       2       -0.000363578271     0.000697071665     0.000303839159
       3       -0.000016161094     0.000041404010     0.000040992067
       4        0.000783109552    -0.001196305118    -0.000641985002
       5        0.000018262860    -0.000003607511    -0.000003871871
       6        0.000015637221     0.000011258852    -0.000009265061
       7       -0.000010574337    -0.000006727242    -0.000014955342
       8       -0.000917758640     0.001227455729     0.000860650133
       9       -0.000020941280     0.000028868403     0.000022699502
      10        0.000486611298    -0.000787286554    -0.000584619438
      11        0.000035848737    -0.000010845256     0.000037242028
      12       -0.000046093902     0.000019143799    -0.000021637622
      13        0.000007510291     0.000005629971    -0.000029872799
      14       -0.000007676782    -0.000015722267    -0.000015439681
      15       -0.000003480094    -0.000012203607    -0.000009532166
      16        0.000016547983    -0.000008659469    -0.000027511809
      17       -0.000010254626     0.000012135588    -0.000033767952
      18        0.000005306266    -0.000001150148     0.000037397131
      19        0.000006687867     0.000023832513    -0.000002084479
      20       -0.000008230482    -0.000016456433    -0.000008685477
      21       -0.000006547668    -0.000010749742    -0.000000089719
      22        0.000002695697     0.000001545568     0.000008683591
      23        0.000005588211     0.000007764423    -0.000000166658

  **** Optimization is complete! (in 6 steps) ****
    Final optimized geometry and variables:
    Molecular point group: c1

    Geometry (in Angstrom), charge = 0, multiplicity = 1:

    O           -2.257814317726     0.385086962467    -1.637374654594
    C           -2.456479496255    -0.219462418638    -0.632699896750
    C           -3.650038766434    -1.115688296356    -0.423345207995
    O           -1.663766858864    -0.190200939011     0.427718694068
    H           -3.649436210493    -1.879863066467    -1.191396112994
    H           -3.642711501736    -1.575724066371     0.553612909896
    H           -4.551507939791    -0.527540231217    -0.547508326014
    C           -0.492948249556     0.623600998734     0.409119194069
    C            0.744667542830    -0.258611324983     0.412305555192
    H           -0.514474075152     1.261775165821    -0.459171464229
    H           -0.539335089889     1.232332242620     1.302684086619
    C            2.035139831225     0.560566425992     0.473870024087
    H            0.737714069454    -0.872041488342    -0.484972706960
    H            0.692257638749    -0.936600723058     1.259734309602
    C            3.294248550684    -0.308326592631     0.481449244172
    H            2.074594081053     1.240559710292    -0.375234377689
    H            2.026659089404     1.185084567465     1.365822089683
    C            4.582280559980     0.510812393567     0.551769635770
    H            3.308142670540    -0.927631214901    -0.412474930060
    H            3.253921649717    -0.991947166853     1.326554257616
    H            4.668114720345     1.180299537873    -0.299322350352
    H            5.456626746144    -0.132420353453     0.555821628936
    H            4.613317491228     1.116743639959     1.452903892287

  Mulliken Charges: (a.u.)
   Center  Symbol    Alpha    Beta     Spin     Total
       1     O     4.28404  4.28404  0.00000 -0.56809
       2     C     2.61530  2.61530  0.00000  0.76941
       3     C     3.28839  3.28839  0.00000 -0.57677
       4     O     4.31357  4.31357  0.00000 -0.62714
       5     H     0.39775  0.39775  0.00000  0.20450
       6     H     0.39982  0.39982  0.00000  0.20035
       7     H     0.39754  0.39754  0.00000  0.20492
       8     C     3.00649  3.00649  0.00000 -0.01298
       9     C     3.16386  3.16386  0.00000 -0.32772
      10     H     0.39432  0.39432  0.00000  0.21136
      11     H     0.41348  0.41348  0.00000  0.17305
      12     C     3.16124  3.16124  0.00000 -0.32248
      13     H     0.41426  0.41426  0.00000  0.17147
      14     H     0.41490  0.41490  0.00000  0.17021
      15     C     3.15136  3.15136  0.00000 -0.30273
      16     H     0.41917  0.41917  0.00000  0.16165
      17     H     0.42231  0.42231  0.00000  0.15539
      18     C     3.23990  3.23990  0.00000 -0.47980
      19     H     0.42063  0.42063  0.00000  0.15874
      20     H     0.42174  0.42174  0.00000  0.15653
      21     H     0.42051  0.42051  0.00000  0.15898
      22     H     0.41804  0.41804  0.00000  0.16393
      23     H     0.42140  0.42140  0.00000  0.15721

   Total alpha = 36.00000, Total beta = 36.00000, Total charge = -0.00000
