                              Psi4 1.0.54 Driver

  ==> Input File <==

--------------------------------------------------------------------------
set {
	reference rhf
	basis cc-pvtz
}

set_num_threads( 4 )
memory 2 gb

molecule MOL {
0 1

H	 1.166964	 -1.062386	 0.758429
O	 1.324748	 -0.612467	 -0.052206
C	 0.706474	 0.636793	 -0.025501
C	 -0.015377	 0.950561	 1.254387
H	 -0.001602	 0.646154	 -0.845771
H	 1.424695	 1.429349	 -0.227270
C	 -0.188015	 0.124606	 2.262505
H	 -0.413752	 1.950195	 1.311647
H	 0.178847	 -0.883702	 2.236039
H	 -0.716626	 0.430275	 3.145226

	symmetry c1
}
set optking {
	frozen_dihedral = ("
		5 3 2 1
	")
}

ee,wfn = optimize('scf', return_wfn=True)
oeprop( wfn, 'DIPOLE', 'QUADRUPOLE', 'MULLIKEN_CHARGES')
f=open( 'psi4out.xyz', 'w' )
f.write( "10  " )
f.write( str(ee) + "\n" )
f.write( MOL.save_string_xyz() )
f.close()
--------------------------------------------------------------------------

    Molecular point group: c1
  Charge       = 0
  Multiplicity = 1
  Basis Set: CC-PVTZ
  Basis Set:
  @DF-RHF Final Energy:  -191.99337317154431
    Total Energy =                       -191.9933731715444480
    Molecular point group: c1
  Basis Set: CC-PVTZ
  Basis Set:
  Basis Set: CC-PVTZ
  Basis Set:
  @DF-RHF Final Energy:  -191.97710387717206
    Total Energy =                       -191.9771038771720271
  Basis Set: CC-PVTZ
  Basis Set:
  Basis Set: CC-PVTZ
  Basis Set:
  @DF-RHF Final Energy:  -191.98330686475379
    Total Energy =                       -191.9833068647537289
  Basis Set: CC-PVTZ
  Basis Set:
  Basis Set: CC-PVTZ
  Basis Set:
  @DF-RHF Final Energy:  -191.99188572287244
    Total Energy =                       -191.9918857228724960
  Basis Set: CC-PVTZ
  Basis Set:
  @DF-RHF Final Energy:  -191.98931052755029
    Total Energy =                       -191.9893105275502876
  @DF-RHF Final Energy:  -191.99455042353867
    Total Energy =                       -191.9945504235385556
  @DF-RHF Final Energy:  -191.99466284793635
    Total Energy =                       -191.9946628479363824
  Basis Set: CC-PVTZ
  Basis Set:
  @DF-RHF Final Energy:  -191.99470901636118
    Total Energy =                       -191.9947090163612131
  Basis Set: CC-PVTZ
  Basis Set:
  Basis Set: CC-PVTZ
  Basis Set:
  @DF-RHF Final Energy:  -191.99473133398135
    Total Energy =                       -191.9947313339814059
  Basis Set: CC-PVTZ
  Basis Set:
  Basis Set: CC-PVTZ
  Basis Set:
  @DF-RHF Final Energy:  -191.99474649334530
    Total Energy =                       -191.9947464933452181
  Basis Set: CC-PVTZ
  Basis Set:
  Charge       = 0
  Multiplicity = 1
  Basis Set: CC-PVTZ
  Basis Set:

    Orbital Energies (a.u.)
    -----------------------

    Doubly Occupied:

       1A    -20.550980     2A    -11.279095     3A    -11.241512
       4A    -11.227002     5A     -1.372818     6A     -1.069869
       7A     -0.940139     8A     -0.779410     9A     -0.695319
      10A     -0.655662    11A     -0.638356    12A     -0.573938
      13A     -0.555961    14A     -0.486983    15A     -0.458367
      16A     -0.375288

  @DF-RHF Final Energy:  -191.99474691419658

   => Energetics <=

    Nuclear Repulsion Energy =            119.3829366240200187
    One-Electron Energy =                -496.9539707424129915
    Two-Electron Energy =                 185.5762872041964897
    DFT Exchange-Correlation Energy =       0.0000000000000000
    Empirical Dispersion Energy =           0.0000000000000000
    PCM Polarization Energy =               0.0000000000000000
    EFP Energy =                            0.0000000000000000
    Total Energy =                       -191.9947469141964689
    Molecular point group: c1
  Basis Set: CC-PVTZ
  Basis Set:

  -Total Gradient:
     Atom            X                  Y                   Z
    ------   -----------------  -----------------  -----------------
       1        0.000490048645     0.000084166871     0.000725745210
       2       -0.000517140736     0.000097108870    -0.000827903802
       3       -0.000549580261    -0.000715783324     0.000043558555
       4        0.000050420905    -0.000021842566    -0.000031453437
       5        0.000522586378     0.000530860226     0.000075488255
       6        0.000015253648    -0.000008002116     0.000004521853
       7       -0.000028913080     0.000002215407     0.000012386007
       8       -0.000011931946     0.000030812662     0.000011412771
       9        0.000018350694    -0.000010970181    -0.000006068557
      10        0.000010905753     0.000011434151    -0.000007686856

  **** Optimization is complete! (in 11 steps) ****
    Final optimized geometry and variables:
    Molecular point group: c1

    Geometry (in Angstrom), charge = 0, multiplicity = 1:

    H            0.999856643474    -0.920003629209    -0.677299484190
    O            1.206716492325    -0.029842863704    -0.885034274433
    C            0.278666158222     0.847643290709    -0.325395762022
    C           -0.794661665866     0.233167186883     0.523552240367
    H           -0.197237280285     1.410006830806    -1.124036431861
    H            0.813817804980     1.572191676517     0.282684956848
    C           -0.932571877518    -1.029077412681     0.863557609973
    H           -1.517158313322     0.946457106363     0.883223808651
    H           -0.253972911696    -1.804479543072     0.556866073824
    H           -1.748928677007    -1.346521279169     1.483049504846

  Mulliken Charges: (a.u.)
   Center  Symbol    Alpha    Beta     Spin     Total
       1     H     0.38817  0.38817  0.00000  0.22365
       2     O     4.20294  4.20294  0.00000 -0.40588
       3     C     2.92906  2.92906  0.00000  0.14188
       4     C     3.07365  3.07365  0.00000 -0.14730
       5     H     0.47113  0.47113  0.00000  0.05773
       6     H     0.46953  0.46953  0.00000  0.06095
       7     C     3.17526  3.17526  0.00000 -0.35051
       8     H     0.42231  0.42231  0.00000  0.15537
       9     H     0.44306  0.44306  0.00000  0.11387
      10     H     0.42488  0.42488  0.00000  0.15025

   Total alpha = 16.00000, Total beta = 16.00000, Total charge =  0.00000

*** Psi4 exiting successfully. Buy a developer a beer!
