  ==> Input File <==

--------------------------------------------------------------------------
set {
	reference rhf
	basis 6-31G*
}

set_num_threads( 4 )
memory 2 gb

molecule MOL {
0 1

H	 2.591676	 2.013956	 0.335017
O	 3.341076	 1.666752	 -0.126416
C	 3.569581	 0.339145	 0.272707
C	 2.539767	 -0.640285	 -0.279495
H	 4.553106	 0.084646	 -0.100901
H	 3.608576	 0.269204	 1.359154
C	 1.115811	 -0.397273	 0.226630
H	 2.556196	 -0.582511	 -1.364741
H	 2.852081	 -1.648031	 -0.010655
C	 1.074899	 0.020426	 1.699271
H	 0.528955	 -1.301236	 0.089454
H	 0.644072	 0.377731	 -0.377664
C	 -0.321417	 0.359186	 2.233954
H	 1.511298	 -0.769628	 2.307726
H	 1.714093	 0.891093	 1.829925
C	 -1.290726	 -0.824251	 2.300250
H	 -0.212961	 0.774832	 3.233600
H	 -0.757727	 1.149164	 1.624523
C	 -2.633438	 -0.460059	 2.937373
H	 -0.832181	 -1.632499	 2.868214
H	 -1.470692	 -1.217002	 1.302421
C	 -3.605205	 -1.637999	 2.998947
H	 -2.463573	 -0.079913	 3.942421
H	 -3.088598	 0.353962	 2.376941
H	 -3.192058	 -2.457067	 3.580893
H	 -4.546022	 -1.348773	 3.457036
H	 -3.824716	 -2.018079	 2.005107

	symmetry c1
}
set optking {
	frozen_dihedral = ("
		10 7 4 8
	")
}

ee = optimize('scf')
oeprop('DIPOLE', 'QUADRUPOLE', 'MULLIKEN_CHARGES')
f=open( 'psi4out.xyz', 'w' )
f.write( "27  " )
f.write( str(ee) + "\n" )
f.write( MOL.save_string_xyz() )
f.close()
--------------------------------------------------------------------------

    Molecular point group: c1
  Charge       = 0
  Multiplicity = 1
  Basis Set: 6-31G*
  Basis Set:
  @DF-RHF Final Energy:  -388.27502849688949
    Total Energy =                       -388.2750284968894903
    Molecular point group: c1
  Basis Set: 6-31G*
  Basis Set:
  Basis Set: 6-31G*
  Basis Set:
  @DF-RHF Final Energy:  -388.27635411927048
    Total Energy =                       -388.2763541192691719
  Basis Set: 6-31G*
  Basis Set:
  Basis Set: 6-31G*
  Basis Set:
  @DF-RHF Final Energy:  -388.27735743542473
    Total Energy =                       -388.2773574354248467
  Basis Set: 6-31G*
  Basis Set:
  Basis Set: 6-31G*
  Basis Set:
  @DF-RHF Final Energy:  -388.27743493831639
    Total Energy =                       -388.2774349383167873
  Basis Set: 6-31G*
  Basis Set:
  Basis Set: 6-31G*
  Basis Set:
  @DF-RHF Final Energy:  -388.27734710557485
    Total Energy =                       -388.2773471055747905
  Basis Set: 6-31G*
  Basis Set:
  Basis Set: 6-31G*
  Basis Set:
  @DF-RHF Final Energy:  -388.27747813111898
    Total Energy =                       -388.2774781311186416
  Basis Set: 6-31G*
  Basis Set:
  Charge       = 0
  Multiplicity = 1
  Basis Set: 6-31G*
  Basis Set:

    Orbital Energies (a.u.)
    -----------------------

    Doubly Occupied:

       1A    -20.551357     2A    -11.264992     3A    -11.223135
       4A    -11.220222     5A    -11.219243     6A    -11.217541
       7A    -11.216249     8A    -11.215939     9A    -11.210480
      10A     -1.357944    11A     -1.096907    12A     -1.061185
      13A     -1.011810    14A     -0.948025    15A     -0.894213
      16A     -0.829073    17A     -0.799055    18A     -0.774042
      19A     -0.690430    20A     -0.651364    21A     -0.646076
      22A     -0.611371    23A     -0.601122    24A     -0.584867
      25A     -0.571035    26A     -0.566784    27A     -0.544299
      28A     -0.527030    29A     -0.516391    30A     -0.498498
      31A     -0.483711    32A     -0.472839    33A     -0.465119
      34A     -0.461418    35A     -0.456152    36A     -0.441774
      37A     -0.422491

  @DF-RHF Final Energy:  -388.27747816757955

   => Energetics <=

    Nuclear Repulsion Energy =            464.5737215224765464
    One-Electron Energy =               -1447.0540368815345573
    Two-Electron Energy =                 594.2028371914783520
    DFT Exchange-Correlation Energy =       0.0000000000000000
    Empirical Dispersion Energy =           0.0000000000000000
    PCM Polarization Energy =               0.0000000000000000
    EFP Energy =                            0.0000000000000000
    Total Energy =                       -388.2774781675797158
    Molecular point group: c1
  Basis Set: 6-31G*
  Basis Set:

  -Total Gradient:
     Atom            X                  Y                   Z
    ------   -----------------  -----------------  -----------------
       1        0.000039786571    -0.000058239805     0.000012023403
       2        0.000110966352     0.000046705459    -0.000109350667
       3       -0.000202423966     0.000145192916     0.000200899011
       4       -0.001611600400    -0.004958849295    -0.001087387444
       5       -0.000052287586     0.000081735212    -0.000048046999
       6        0.000079824979    -0.000059508358     0.000006036402
       7       -0.000527812333    -0.004646878940     0.001525795493
       8        0.001524089246     0.005457742069     0.000488818635
       9       -0.000075868620    -0.000047821516    -0.000000601812
      10        0.000689924597     0.004043869878    -0.000925529481
      11        0.000103392528     0.000002881998    -0.000059813736
      12       -0.000003366530    -0.000036534264    -0.000044042529
      13       -0.000037930564     0.000084056500    -0.000139815465
      14       -0.000020141856    -0.000006805575     0.000022948300
      15        0.000005962927    -0.000008958662     0.000036376599
      16        0.000010352834    -0.000019835301     0.000081337561
      17        0.000018368905    -0.000038028231    -0.000042143257
      18       -0.000018698595     0.000055097972     0.000010130902
      19        0.000004615235    -0.000019580667     0.000015268145
      20       -0.000000896035    -0.000004500211     0.000026257564
      21       -0.000031048854    -0.000010141842     0.000063171249
      22       -0.000017937068     0.000008531149    -0.000043476078
      23        0.000002759708    -0.000031191034     0.000009529877
      24        0.000015895938     0.000016910096     0.000016416377
      25        0.000001394548     0.000016292698     0.000002125136
      26       -0.000005397241     0.000002797535    -0.000013337489
      27       -0.000001924723    -0.000014939780    -0.000003589698

  **** Optimization is complete! (in 7 steps) ****
    Final optimized geometry and variables:
    Molecular point group: c1

    Geometry (in Angstrom), charge = 0, multiplicity = 1:

    H            2.319609960452     2.147921654202    -1.081203392081
    O            3.046047789464     1.749865718392    -1.538610521446
    C            3.189988642359     0.412149972183    -1.132104370529
    C            2.048660726900    -0.479685771540    -1.616108775833
    H            4.116416915437     0.072353706188    -1.576965124531
    H            3.313276543373     0.348832769736    -0.053960692119
    C            0.647387116404    -0.129071680017    -1.080238732594
    H            2.035256675862    -0.379327592442    -2.697390228397
    H            2.294186145884    -1.510921777066    -1.373182262841
    C            0.573510210309     0.251878057670     0.403804884034
    H           -0.008600043463    -0.969271945167    -1.281238716170
    H            0.248890880709     0.701007549888    -1.660990727495
    C           -0.846196621401     0.546893181428     0.905587790390
    H            1.010759152288    -0.538498335927     1.012309206861
    H            1.180984656655     1.135092574676     0.585298674857
    C           -1.767869864833    -0.673077969287     0.988439636015
    H           -0.773166831567     0.991130157626     1.895938333062
    H           -1.303011149586     1.302731236343     0.268470997633
    C           -3.140611441229    -0.342156593279     1.578148193013
    H           -1.292189238711    -1.440464573709     1.597499167221
    H           -1.905704815141    -1.108046993819     0.001951383343
    C           -4.067626000512    -1.554986915184     1.650676718671
    H           -3.013588237889     0.074784604270     2.574913353399
    H           -3.610867625810     0.435651730300     0.980171087940
    H           -3.640498077479    -2.338435076508     2.270365033756
    H           -5.031724406710    -1.288640790851     2.072699881705
    H           -4.243245119201    -1.974211606751     0.663939450519

  Mulliken Charges: (a.u.)
   Center  Symbol    Alpha    Beta     Spin     Total
       1     H     0.27835  0.27835  0.00000  0.44329
       2     O     4.37373  4.37373  0.00000 -0.74746
       3     C     3.00093  3.00093  0.00000 -0.00186
       4     C     3.16301  3.16301  0.00000 -0.32602
       5     H     0.41440  0.41440  0.00000  0.17119
       6     H     0.42854  0.42854  0.00000  0.14292
       7     C     3.16568  3.16568  0.00000 -0.33135
       8     H     0.41308  0.41308  0.00000  0.17383
       9     H     0.42328  0.42328  0.00000  0.15344
      10     C     3.15823  3.15823  0.00000 -0.31645
      11     H     0.41455  0.41455  0.00000  0.17090
      12     H     0.42144  0.42144  0.00000  0.15712
      13     C     3.15288  3.15288  0.00000 -0.30575
      14     H     0.42126  0.42126  0.00000  0.15747
      15     H     0.42908  0.42908  0.00000  0.14183
      16     C     3.15277  3.15277  0.00000 -0.30554
      17     H     0.42075  0.42075  0.00000  0.15850
      18     H     0.42358  0.42358  0.00000  0.15284
      19     C     3.15144  3.15144  0.00000 -0.30288
      20     H     0.42401  0.42401  0.00000  0.15198
      21     H     0.42178  0.42178  0.00000  0.15645
      22     C     3.23934  3.23934  0.00000 -0.47867
      23     H     0.42288  0.42288  0.00000  0.15424
      24     H     0.42271  0.42271  0.00000  0.15459
      25     H     0.42169  0.42169  0.00000  0.15662
      26     H     0.41892  0.41892  0.00000  0.16216
      27     H     0.42170  0.42170  0.00000  0.15661

   Total alpha = 37.00000, Total beta = 37.00000, Total charge = -0.00000
