                              Psi4 1.0.54 Driver

  ==> Input File <==

--------------------------------------------------------------------------
set {
	reference rhf
	basis cc-pvtz
}

set_num_threads( 4 )
memory 2 gb

molecule MOL {
0 1

H	 2.614283	 2.028610	 0.296620
O	 3.358864	 1.662087	 -0.142800
C	 3.565468	 0.338079	 0.273842
C	 2.533667	 -0.637565	 -0.272227
H	 4.548038	 0.064914	 -0.086598
H	 3.593945	 0.282242	 1.360360
C	 1.114816	 -0.402372	 0.240993
H	 2.544552	 -0.580764	 -1.356576
H	 2.850574	 -1.642962	 -0.005497
C	 0.113298	 -1.420414	 -0.302504
H	 0.796373	 0.598427	 -0.031033
H	 1.113377	 -0.446476	 1.328807
C	 -1.331666	 -0.924910	 -0.385024
H	 0.436834	 -1.748641	 -1.287297
H	 0.138148	 -2.301667	 0.332512
C	 -1.577488	 0.184406	 -1.406167
H	 -1.968094	 -1.769848	 -0.633149
H	 -1.651107	 -0.586002	 0.597958
C	 -3.048809	 0.574649	 -1.521636
H	 -1.216151	 -0.139122	 -2.379939
H	 -1.000867	 1.066763	 -1.145480
C	 -3.297307	 1.684582	 -2.537604
H	 -3.631643	 -0.300579	 -1.795236
H	 -3.413635	 0.890090	 -0.547746
H	 -2.972313	 1.387405	 -3.529220
H	 -4.350355	 1.935042	 -2.596484
H	 -2.757491	 2.587415	 -2.271440

	symmetry c1
}
set optking {
	frozen_dihedral = ("
		14 10 7 4
	")
}

ee,wfn = optimize('scf', return_wfn=True)
oeprop( wfn, 'DIPOLE', 'QUADRUPOLE', 'MULLIKEN_CHARGES')
f=open( 'psi4out.xyz', 'w' )
f.write( "27  " )
f.write( str(ee) + "\n" )
f.write( MOL.save_string_xyz() )
f.close()
--------------------------------------------------------------------------

    Molecular point group: c1
  Charge       = 0
  Multiplicity = 1
  Basis Set: CC-PVTZ
  Basis Set:
  @DF-RHF Final Energy:  -388.42503555588559
    Total Energy =                       -388.4250355558856427
    Molecular point group: c1
  Basis Set: CC-PVTZ
  Basis Set:
  Basis Set: CC-PVTZ
  Basis Set:
  @DF-RHF Final Energy:  -388.42467126610774
    Total Energy =                       -388.4246712661072252
  Basis Set: CC-PVTZ
  Basis Set:
  Basis Set: CC-PVTZ
  Basis Set:
  @DF-RHF Final Energy:  -388.42537159118496
    Total Energy =                       -388.4253715911845575
  Basis Set: CC-PVTZ
  Basis Set:
  Basis Set: CC-PVTZ
  Basis Set:
  @DF-RHF Final Energy:  -388.42547100685823
    Total Energy =                       -388.4254710068578333
  Basis Set: CC-PVTZ
  Basis Set:
  Basis Set: CC-PVTZ
  Basis Set:
  @DF-RHF Final Energy:  -388.42550338353135
    Total Energy =                       -388.4255033835314634
  Basis Set: CC-PVTZ
  Basis Set:
  Basis Set: CC-PVTZ
  Basis Set:
  @DF-RHF Final Energy:  -388.42550843901063
    Total Energy =                       -388.4255084390106276
  Basis Set: CC-PVTZ
  Basis Set:
  Basis Set: CC-PVTZ
  Basis Set:
  @DF-RHF Final Energy:  -388.42550955183435
    Total Energy =                       -388.4255095518341250
  Basis Set: CC-PVTZ
  Basis Set:
  Charge       = 0
  Multiplicity = 1
  Basis Set: CC-PVTZ
  Basis Set:

    Orbital Energies (a.u.)
    -----------------------

    Doubly Occupied:

       1A    -20.545424     2A    -11.264916     3A    -11.216653
       4A    -11.214430     5A    -11.213520     6A    -11.213345
       7A    -11.213237     8A    -11.211163     9A    -11.206501
      10A     -1.363288    11A     -1.095341    12A     -1.061910
      13A     -1.012222    14A     -0.949102    15A     -0.888090
      16A     -0.821128    17A     -0.799177    18A     -0.780960
      19A     -0.697173    20A     -0.646767    21A     -0.639690
      22A     -0.616166    23A     -0.606488    24A     -0.583100
      25A     -0.578331    26A     -0.554536    27A     -0.541458
      28A     -0.528292    29A     -0.506587    30A     -0.497125
      31A     -0.483315    32A     -0.473711    33A     -0.470155
      34A     -0.460538    35A     -0.451558    36A     -0.441576
      37A     -0.425711

  @DF-RHF Final Energy:  -388.42550968853948

   => Energetics <=

    Nuclear Repulsion Energy =            461.7371253079714961
    One-Electron Energy =               -1441.7799008112206138
    Two-Electron Energy =                 591.6172658147095262
    DFT Exchange-Correlation Energy =       0.0000000000000000
    Empirical Dispersion Energy =           0.0000000000000000
    PCM Polarization Energy =               0.0000000000000000
    EFP Energy =                            0.0000000000000000
    Total Energy =                       -388.4255096885395915
    Molecular point group: c1
  Basis Set: CC-PVTZ
  Basis Set:

  -Total Gradient:
     Atom            X                  Y                   Z
    ------   -----------------  -----------------  -----------------
       1        0.000003559036    -0.000006568700     0.000000631961
       2        0.000007848401    -0.000006364065    -0.000006781991
       3       -0.000017110285    -0.000004399869     0.000014687809
       4       -0.000468328390     0.001769042584    -0.002096981356
       5       -0.000006695992     0.000006460679    -0.000002424832
       6        0.000000553186    -0.000000029712    -0.000007417920
       7        0.001139221693    -0.003137724923     0.003273331089
       8        0.000002080070    -0.000000648062     0.000008528268
       9       -0.000004437404     0.000009043439    -0.000002006882
      10       -0.002630444760     0.004267807525    -0.002662378615
      11        0.000005714473    -0.000006191407    -0.000001244484
      12        0.000001362790     0.000008741498    -0.000004217351
      13       -0.000005137306    -0.000012557038    -0.000010027364
      14        0.001970655174    -0.002900696541     0.001490174330
      15       -0.000001532406     0.000004062523    -0.000008642918
      16        0.000010078893     0.000004845635     0.000010700768
      17       -0.000000623497     0.000000666740     0.000003890163
      18       -0.000001250050     0.000003609896    -0.000008294426
      19       -0.000001438663     0.000004804634     0.000001444528
      20       -0.000000346423     0.000003013011     0.000010345206
      21       -0.000001983383    -0.000003326379     0.000000435119
      22       -0.000003440174    -0.000005336769    -0.000001706654
      23        0.000002388498     0.000006229096     0.000001819432
      24        0.000002125167     0.000001282797    -0.000007970254
      25        0.000000723727     0.000001891314     0.000004617069
      26        0.000000405027    -0.000000313353    -0.000002772229
      27       -0.000003947398    -0.000007344552     0.000002261535

  **** Optimization is complete! (in 8 steps) ****
    Final optimized geometry and variables:
    Molecular point group: c1

    Geometry (in Angstrom), charge = 0, multiplicity = 1:

    H            2.445123605509     1.817949956778     1.252538428377
    O            3.192024633606     1.500220878898     0.780444248770
    C            3.385323076831     0.134697017167     1.040082966024
    C            2.352373172289    -0.760802376190     0.373176952444
    H            4.369865880098    -0.102071819588     0.659823967514
    H            3.401479604753    -0.048766182142     2.112603898517
    C            0.924750093877    -0.554430392105     0.874435467409
    H            2.384579841385    -0.591627834474    -0.698513695303
    H            2.650424267094    -1.793978944346     0.538680696610
    C           -0.075678485179    -1.547231727845     0.268215252434
    H            0.618704482447     0.458591826816     0.634618259534
    H            0.896344714512    -0.634742096748     1.958427697337
    C           -1.524834779117    -1.060838965959     0.227479798979
    H            0.251846441732    -1.834042110004    -0.727462807868
    H           -0.034228275929    -2.464353544929     0.849344728342
    C           -1.813483959365    -0.013182775473    -0.846195949989
    H           -2.174509866912    -1.914652563071     0.057723807814
    H           -1.797000320783    -0.665295225304     1.203709052742
    C           -3.266572785052     0.454213988796    -0.853283075779
    H           -1.567284278245    -0.428843645950    -1.820493151561
    H           -1.167206773270     0.849411428854    -0.713757123111
    C           -3.559935337565     1.485033049176    -1.938220032759
    H           -3.919143355810    -0.404280242250    -0.986936875984
    H           -3.512931631090     0.874354186516     0.118154668353
    H           -3.356762457734     1.082924119035    -2.925192952557
    H           -4.598359302997     1.795196698421    -1.915326364805
    H           -2.947354333074     2.371602643191    -1.812052420312

  Mulliken Charges: (a.u.)
   Center  Symbol    Alpha    Beta     Spin     Total
       1     H     0.39213  0.39213  0.00000  0.21573
       2     O     4.20573  4.20573  0.00000 -0.41147
       3     C     2.97962  2.97962  0.00000  0.04076
       4     C     3.08925  3.08925  0.00000 -0.17850
       5     H     0.44905  0.44905  0.00000  0.10190
       6     H     0.46940  0.46940  0.00000  0.06120
       7     C     3.10510  3.10510  0.00000 -0.21020
       8     H     0.45065  0.45065  0.00000  0.09870
       9     H     0.45528  0.45528  0.00000  0.08943
      10     C     3.10173  3.10173  0.00000 -0.20346
      11     H     0.45671  0.45671  0.00000  0.08658
      12     H     0.44946  0.44946  0.00000  0.10107
      13     C     3.09781  3.09781  0.00000 -0.19561
      14     H     0.45258  0.45258  0.00000  0.09484
      15     H     0.44731  0.44731  0.00000  0.10539
      16     C     3.08703  3.08703  0.00000 -0.17407
      17     H     0.44735  0.44735  0.00000  0.10530
      18     H     0.45449  0.45449  0.00000  0.09101
      19     C     3.08477  3.08477  0.00000 -0.16954
      20     H     0.45426  0.45426  0.00000  0.09148
      21     H     0.45333  0.45333  0.00000  0.09334
      22     C     3.14957  3.14957  0.00000 -0.29913
      23     H     0.45403  0.45403  0.00000  0.09194
      24     H     0.45475  0.45475  0.00000  0.09049
      25     H     0.45494  0.45494  0.00000  0.09011
      26     H     0.44849  0.44849  0.00000  0.10302
      27     H     0.45516  0.45516  0.00000  0.08968

   Total alpha = 37.00000, Total beta = 37.00000, Total charge = -0.00000

*** Psi4 exiting successfully. Buy a developer a beer!
