                              Psi4 1.0.54 Driver

  ==> Input File <==

--------------------------------------------------------------------------
set {
	reference rhf
	basis cc-pvtz
}

set_num_threads( 4 )
memory 2 gb

molecule MOL {
0 1

O	 0.942875	 1.414451	 -0.651100
C	 -0.132941	 1.306053	 -0.169465
C	 -1.092747	 2.441808	 0.047983
O	 -0.637375	 0.157174	 0.243149
H	 -1.327849	 2.522322	 1.101532
H	 -0.651951	 3.359859	 -0.304890
H	 -2.016325	 2.243859	 -0.480590
C	 0.162530	 -1.009518	 0.097799
C	 1.587210	 -0.664190	 0.477086
H	 0.096803	 -1.356267	 -0.924704
H	 -0.233803	 -1.785900	 0.736810
C	 2.256770	 0.342732	 -0.454344
H	 2.154716	 -1.590834	 0.479041
H	 1.598751	 -0.289614	 1.496104
C	 3.698146	 0.643205	 -0.057145
H	 2.235038	 -0.042575	 -1.470299
H	 1.683491	 1.262594	 -0.461300
H	 4.150202	 1.356548	 -0.736242
H	 4.305463	 -0.255904	 -0.069842
H	 3.749130	 1.061068	 0.942759

	symmetry c1
}
set optking {
	frozen_dihedral = ("
		2 4 8 10
	")
}

ee,wfn = optimize('scf', return_wfn=True)
oeprop( wfn, 'DIPOLE', 'QUADRUPOLE', 'MULLIKEN_CHARGES')
f=open( 'psi4out.xyz', 'w' )
f.write( "20  " )
f.write( str(ee) + "\n" )
f.write( MOL.save_string_xyz() )
f.close()
--------------------------------------------------------------------------

    Molecular point group: c1
  Charge       = 0
  Multiplicity = 1
  Basis Set: CC-PVTZ
  Basis Set:
  @DF-RHF Final Energy:  -383.60453478966951
    Total Energy =                       -383.6045347896694011
    Molecular point group: c1
  Basis Set: CC-PVTZ
  Basis Set:
  Basis Set: CC-PVTZ
  Basis Set:
  @DF-RHF Final Energy:  -383.81671586031968
    Total Energy =                       -383.8167158603195048
  Basis Set: CC-PVTZ
  Basis Set:
  Basis Set: CC-PVTZ
  Basis Set:
  @DF-RHF Final Energy:  -383.92118571307185
    Total Energy =                       -383.9211857130719636
  Basis Set: CC-PVTZ
  Basis Set:
  Basis Set: CC-PVTZ
  Basis Set:
  @DF-RHF Final Energy:  -383.98891797914922
    Total Energy =                       -383.9889179791491642
  Basis Set: CC-PVTZ
  Basis Set:
  @DF-RHF Final Energy:  -384.03172375749836
    Total Energy =                       -384.0317237574982983
  @DF-RHF Final Energy:  -384.05276226160026
    Total Energy =                       -384.0527622615996961
  @DF-RHF Final Energy:  -384.06421714489414
    Total Energy =                       -384.0642171448943145
  @DF-RHF Final Energy:  -384.07000485668647
    Total Energy =                       -384.0700048566861824
  @DF-RHF Final Energy:  -384.07262012074602
    Total Energy =                       -384.0726201207463646
  @DF-RHF Final Energy:  -384.07386836756933
    Total Energy =                       -384.0738683675695029
  @DF-RHF Final Energy:  -384.07434557717551
    Total Energy =                       -384.0743455771755634
  @DF-RHF Final Energy:  -384.07465911883497
    Total Energy =                       -384.0746591188346883
  @DF-RHF Final Energy:  -384.07474287216792
    Total Energy =                       -384.0747428721681445
  @DF-RHF Final Energy:  -384.07481343946068
    Total Energy =                       -384.0748134394606268
  @DF-RHF Final Energy:  -384.07487490100425
    Total Energy =                       -384.0748749010043639
  @DF-RHF Final Energy:  -384.07491401037942
    Total Energy =                       -384.0749140103797572
  @DF-RHF Final Energy:  -384.07493200916730
    Total Energy =                       -384.0749320091671279
  @DF-RHF Final Energy:  -384.07494512642745
    Total Energy =                       -384.0749451264274512
  @DF-RHF Final Energy:  -384.07494136087445
    Total Energy =                       -384.0749413608746181
  @DF-RHF Final Energy:  -384.07495379501728
    Total Energy =                       -384.0749537950171089
  @DF-RHF Final Energy:  -384.07495740917420
    Total Energy =                       -384.0749574091738623
  @DF-RHF Final Energy:  -384.07495959970379
    Total Energy =                       -384.0749595997036749
  @DF-RHF Final Energy:  -384.07496120518238
    Total Energy =                       -384.0749612051823760
  @DF-RHF Final Energy:  -384.07496270341846
    Total Energy =                       -384.0749627034181231
  @DF-RHF Final Energy:  -384.07496285316438
    Total Energy =                       -384.0749628531644930
  @DF-RHF Final Energy:  -384.07496499936804
    Total Energy =                       -384.0749649993683761
  @DF-RHF Final Energy:  -384.07496714678763
    Total Energy =                       -384.0749671467881399
  @DF-RHF Final Energy:  -384.07496731369139
    Total Energy =                       -384.0749673136911042
  @DF-RHF Final Energy:  -384.07496737884429
    Total Energy =                       -384.0749673788441214
  Basis Set: CC-PVTZ
  Basis Set:
  @DF-RHF Final Energy:  -384.07496754716743
    Total Energy =                       -384.0749675471672617
  Basis Set: CC-PVTZ
  Basis Set:
  Basis Set: CC-PVTZ
  Basis Set:
  @DF-RHF Final Energy:  -384.07496746712229
    Total Energy =                       -384.0749674671220646
  Basis Set: CC-PVTZ
  Basis Set:
  Basis Set: CC-PVTZ
  Basis Set:
  @DF-RHF Final Energy:  -384.07496737323828
    Total Energy =                       -384.0749673732377687
  Basis Set: CC-PVTZ
  Basis Set:
  Charge       = 0
  Multiplicity = 1
  Basis Set: CC-PVTZ
  Basis Set:

    Orbital Energies (a.u.)
    -----------------------

    Doubly Occupied:

       1A    -20.591761     2A    -20.531873     3A    -11.367678
       4A    -11.286371     5A    -11.230777     6A    -11.223889
       7A    -11.205405     8A    -11.203657     9A     -1.467061
      10A     -1.365528    11A     -1.079311    12A     -1.027376
      13A     -0.979569    14A     -0.893507    15A     -0.810113
      16A     -0.752016    17A     -0.694113    18A     -0.684969
      19A     -0.669218    20A     -0.623056    21A     -0.603851
      22A     -0.593117    23A     -0.568484    24A     -0.557363
      25A     -0.538714    26A     -0.524845    27A     -0.517535
      28A     -0.485780    29A     -0.468130    30A     -0.461570
      31A     -0.445885    32A     -0.435423

  @DF-RHF Final Energy:  -384.07496704187975

   => Energetics <=

    Nuclear Repulsion Energy =            393.4047376750268086
    One-Electron Energy =               -1303.1835143888299626
    Two-Electron Energy =                 525.7038096719234090
    DFT Exchange-Correlation Energy =       0.0000000000000000
    Empirical Dispersion Energy =           0.0000000000000000
    PCM Polarization Energy =               0.0000000000000000
    EFP Energy =                            0.0000000000000000
    Total Energy =                       -384.0749670418797450
    Molecular point group: c1
  Basis Set: CC-PVTZ
  Basis Set:

  -Total Gradient:
     Atom            X                  Y                   Z
    ------   -----------------  -----------------  -----------------
       1       -0.000073848216    -0.000532966256    -0.000740269713
       2        0.002467008362     0.001859379549     0.006375789047
       3        0.000203432228     0.000137419496     0.000260215646
       4       -0.005111385573    -0.003478856848    -0.009596924306
       5       -0.000023774937    -0.000040644840     0.000002960106
       6        0.000004586774     0.000006066737     0.000011662290
       7       -0.000005350734     0.000032884615    -0.000037312548
       8        0.007272778161     0.007604151422     0.001082239156
       9        0.000010652453     0.000205377828     0.000083711118
      10       -0.004864015961    -0.005829179050     0.002042769704
      11        0.000086602703    -0.000084542632     0.000039373814
      12       -0.000027410174     0.000635273694     0.000364778845
      13       -0.000143660377    -0.000159096324    -0.000347054601
      14        0.000206074647    -0.000316380094     0.000219690980
      15        0.000085303109     0.000140986463    -0.000272270809
      16       -0.000184915970    -0.000050022191     0.000040732673
      17        0.000098756037    -0.000105643778     0.000469725394
      18       -0.000010955376     0.000044228983     0.000025550838
      19        0.000040868736    -0.000010247789    -0.000054852293
      20       -0.000030745894    -0.000058188986     0.000029484657

  **** Optimization is complete! (in 33 steps) ****
    Final optimized geometry and variables:
    Molecular point group: c1

    Geometry (in Angstrom), charge = 0, multiplicity = 1:

    O           -0.569014741583     1.232225866108    -0.856427688554
    C           -1.392195038409     0.789959337662    -0.130946276175
    C           -2.519349277888     1.590210990452     0.460860268474
    O           -1.460825788886    -0.473645446445     0.237262823427
    H           -2.441436534879     1.579586433989     1.540587496352
    H           -2.474809076477     2.603351331882     0.095686002925
    H           -3.466121436363     1.137986858413     0.196105320940
    C           -0.399113303532    -1.409260232314     0.043917913012
    C            0.997153767792    -1.038831545141     0.541631490040
    H           -0.418635847859    -1.753913127277    -0.982424973349
    H           -0.741684860914    -2.243338434741     0.638905147145
    C            1.971191556761    -0.356853262906    -0.419565865721
    H            1.439191117125    -1.987463158368     0.836167910213
    H            0.900867423659    -0.464263930527     1.458613657461
    C            3.400478530246    -0.378095826677     0.114585603104
    H            1.938112599720    -0.868880838039    -1.377183855859
    H            1.667232508958     0.659086923057    -0.605061425349
    H            4.074665280072     0.130124915994    -0.564828463208
    H            3.764332725295    -1.392484626758     0.244586912980
    H            3.467095576837     0.120627866220     1.076523920445

  Mulliken Charges: (a.u.)
   Center  Symbol    Alpha    Beta     Spin     Total
       1     O     4.19814  4.19814  0.00000 -0.39628
       2     C     2.80336  2.80336  0.00000  0.39327
       3     C     3.13715  3.13715  0.00000 -0.27430
       4     O     4.15697  4.15697  0.00000 -0.31393
       5     H     0.44737  0.44737  0.00000  0.10527
       6     H     0.43872  0.43872  0.00000  0.12256
       7     H     0.44456  0.44456  0.00000  0.11088
       8     C     2.98142  2.98142  0.00000  0.03716
       9     C     3.11306  3.11306  0.00000 -0.22612
      10     H     0.45457  0.45457  0.00000  0.09086
      11     H     0.44427  0.44427  0.00000  0.11147
      12     C     3.08209  3.08209  0.00000 -0.16419
      13     H     0.44826  0.44826  0.00000  0.10347
      14     H     0.44748  0.44748  0.00000  0.10504
      15     C     3.15071  3.15071  0.00000 -0.30142
      16     H     0.45836  0.45836  0.00000  0.08328
      17     H     0.43207  0.43207  0.00000  0.13587
      18     H     0.44706  0.44706  0.00000  0.10589
      19     H     0.45793  0.45793  0.00000  0.08415
      20     H     0.45646  0.45646  0.00000  0.08708

   Total alpha = 32.00000, Total beta = 32.00000, Total charge = -0.00000

*** Psi4 exiting successfully. Buy a developer a beer!
