  ==> Input File <==

--------------------------------------------------------------------------
set {
	reference rhf
	basis 6-31G*
}

set_num_threads( 1 )
memory 2 gb

molecule MOL {
0 1

H	 -4.181905	 0.087564	 0.458972
O	 -3.517110	 -0.026191	 -0.205115
C	 -2.306886	 0.532354	 0.237577
C	 -1.177863	 -0.397191	 -0.171080
H	 -2.156308	 1.517575	 -0.201710
H	 -2.315015	 0.655684	 1.319734
C	 0.198102	 0.111031	 0.262842
H	 -1.208843	 -0.518759	 -1.250427
H	 -1.368741	 -1.376554	 0.258909
C	 1.331804	 -0.827780	 -0.158768
H	 0.361943	 1.100838	 -0.156218
H	 0.217265	 0.229072	 1.345532
C	 2.723619	 -0.410569	 0.329459
H	 1.342964	 -0.912588	 -1.244120
H	 1.116806	 -1.824343	 0.220779
C	 3.243875	 0.895854	 -0.272975
H	 3.424222	 -1.207124	 0.091250
H	 2.714788	 -0.329854	 1.414619
H	 3.251977	 0.848779	 -1.358681
H	 2.637085	 1.747371	 0.016682
H	 4.259473	 1.094070	 0.055697

	symmetry c1
}
set optking {
	frozen_dihedral = ("
		2 3 4 8,
		8 4 7 10,
		4 7 10 14,
		16 13 10 14
	")
}

ee = energy('scf')
oeprop('DIPOLE', 'QUADRUPOLE', 'MULLIKEN_CHARGES')
f=open( 'psi4out.xyz', 'w' )
f.write( "21  " )
f.write( str(ee) + "\n" )
f.write( MOL.save_string_xyz() )
f.close()
--------------------------------------------------------------------------

    Molecular point group: c1

    Geometry (in Angstrom), charge = 0, multiplicity = 1:

       Center              X                  Y                   Z               Mass
    ------------   -----------------  -----------------  -----------------  -----------------
           H         -4.182443644814     0.092011449754     0.454834283451     1.007825032070
           O         -3.517648644814    -0.021743550246    -0.209252716549    15.994914619560
           C         -2.307424644814     0.536801449754     0.233439283451    12.000000000000
           C         -1.178401644814    -0.392743550246    -0.175217716549    12.000000000000
           H         -2.156846644814     1.522022449754    -0.205847716549     1.007825032070
           H         -2.315553644814     0.660131449754     1.315596283451     1.007825032070
           C          0.197563355186     0.115478449754     0.258704283451    12.000000000000
           H         -1.209381644814    -0.514311550246    -1.254564716549     1.007825032070
           H         -1.369279644814    -1.372106550246     0.254771283451     1.007825032070
           C          1.331265355186    -0.823332550246    -0.162905716549    12.000000000000
           H          0.361404355186     1.105285449754    -0.160355716549     1.007825032070
           H          0.216726355186     0.233519449754     1.341394283451     1.007825032070
           C          2.723080355186    -0.406121550246     0.325321283451    12.000000000000
           H          1.342425355186    -0.908140550246    -1.248257716549     1.007825032070
           H          1.116267355186    -1.819895550246     0.216641283451     1.007825032070
           C          3.243336355186     0.900301449754    -0.277112716549    12.000000000000
           H          3.423683355186    -1.202676550246     0.087112283451     1.007825032070
           H          2.714249355186    -0.325406550246     1.410481283451     1.007825032070
           H          3.251438355186     0.853226449754    -1.362818716549     1.007825032070
           H          2.636546355186     1.751818449754     0.012544283451     1.007825032070
           H          4.258934355186     1.098517449754     0.051559283451     1.007825032070

  Charge       = 0
  Multiplicity = 1
  Basis Set: 6-31G*
  Basis Set:

    Orbital Energies (a.u.)
    -----------------------

    Doubly Occupied:

       1A    -20.551352     2A    -11.267324     3A    -11.215136
       4A    -11.215020     5A    -11.213423     6A    -11.209424
       7A    -11.207998     8A     -1.358869     9A     -1.085949
      10A     -1.032838    11A     -0.954144    12A     -0.875763
      13A     -0.807912    14A     -0.778748    15A     -0.697690
      16A     -0.655349    17A     -0.620042    18A     -0.609452
      19A     -0.585854    20A     -0.567165    21A     -0.540259
      22A     -0.522075    23A     -0.504885    24A     -0.492526
      25A     -0.474510    26A     -0.460226    27A     -0.456893
      28A     -0.454570    29A     -0.423516

  @DF-RHF Final Energy:  -310.21115183139062

   => Energetics <=

    Nuclear Repulsion Energy =            312.5238087434798331
    One-Electron Energy =               -1039.7922233860274446
    Two-Electron Energy =                 417.0572628111562494
    DFT Exchange-Correlation Energy =       0.0000000000000000
    Empirical Dispersion Energy =           0.0000000000000000
    PCM Polarization Energy =               0.0000000000000000
    EFP Energy =                            0.0000000000000000
    Total Energy =                       -310.2111518313914189

  Mulliken Charges: (a.u.)
   Center  Symbol    Alpha    Beta     Spin     Total
       1     H     0.28013  0.28013  0.00000  0.43975
       2     O     4.37231  4.37231  0.00000 -0.74463
       3     C     2.99199  2.99199  0.00000  0.01601
       4     C     3.15641  3.15641  0.00000 -0.31282
       5     H     0.42792  0.42792  0.00000  0.14417
       6     H     0.43356  0.43356  0.00000  0.13288
       7     C     3.16261  3.16261  0.00000 -0.32523
       8     H     0.41452  0.41452  0.00000  0.17095
       9     H     0.41847  0.41847  0.00000  0.16307
      10     C     3.15154  3.15154  0.00000 -0.30307
      11     H     0.42107  0.42107  0.00000  0.15786
      12     H     0.42525  0.42525  0.00000  0.14949
      13     C     3.15242  3.15242  0.00000 -0.30484
      14     H     0.42285  0.42285  0.00000  0.15431
      15     H     0.42150  0.42150  0.00000  0.15699
      16     C     3.24116  3.24116  0.00000 -0.48232
      17     H     0.42075  0.42075  0.00000  0.15850
      18     H     0.42384  0.42384  0.00000  0.15232
      19     H     0.42185  0.42185  0.00000  0.15629
      20     H     0.42052  0.42052  0.00000  0.15896
      21     H     0.41932  0.41932  0.00000  0.16136

   Total alpha = 29.00000, Total beta = 29.00000, Total charge =  0.00000
