  ==> Input File <==

--------------------------------------------------------------------------
set {
	reference rhf
	basis cc-pvtz
}

set_num_threads( 4 )
memory 2 gb

molecule MOL {
0 1

H	 2.365000	 -0.695000	 -0.001000
C	 1.651000	 0.112000	 -0.000000
O	 0.374000	 -0.490000	 0.000000
H	 1.795000	 0.719000	 -0.886000
H	 1.796000	 0.718000	 0.886000
C	 -0.682000	 0.308000	 0.000000
O	 -1.791000	 -0.089000	 -0.000000
H	 -0.431000	 1.370000	 -0.000000

	symmetry c1
}
ee = optimize('scf')
oeprop('DIPOLE', 'QUADRUPOLE', 'MULLIKEN_CHARGES')
f=open( 'psi4out.xyz', 'w' )
f.write( "8  " )
f.write( str(ee) + "\n" )
f.write( MOL.save_string_xyz() )
f.close()
--------------------------------------------------------------------------

    Molecular point group: c1
  Charge       = 0
  Multiplicity = 1
  Basis Set: CC-PVTZ
  Basis Set:
  @DF-RHF Final Energy:  -227.87002608032338
    Total Energy =                       -227.8700260803234983
    Molecular point group: c1
  Basis Set: CC-PVTZ
  Basis Set:
  Basis Set: CC-PVTZ
  Basis Set:
  @DF-RHF Final Energy:  -227.87012357784448
    Total Energy =                       -227.8701235778446517
  Basis Set: CC-PVTZ
  Basis Set:
  Basis Set: CC-PVTZ
  Basis Set:
  @DF-RHF Final Energy:  -227.87012577574234
    Total Energy =                       -227.8701257757422241
  Basis Set: CC-PVTZ
  Basis Set:
  Basis Set: CC-PVTZ
  Basis Set:
  @DF-RHF Final Energy:  -227.87007750286003
    Total Energy =                       -227.8700775028600560
  Basis Set: CC-PVTZ
  Basis Set:
  Charge       = 0
  Multiplicity = 1
  Basis Set: CC-PVTZ
  Basis Set:

    Orbital Energies (a.u.)
    -----------------------

    Doubly Occupied:

       1A    -20.610227     2A    -20.546860     3A    -11.374344
       4A    -11.302211     5A     -1.480200     6A     -1.386115
       7A     -0.994188     8A     -0.849705     9A     -0.740571
      10A     -0.689655    11A     -0.685326    12A     -0.607379
      13A     -0.574021    14A     -0.543722    15A     -0.465365
      16A     -0.457470

  @DF-RHF Final Energy:  -227.87012682489453

   => Energetics <=

    Nuclear Repulsion Energy =            121.5117007501212640
    One-Electron Energy =                -552.1489351074471870
    Two-Electron Energy =                 202.7671075324313961
    DFT Exchange-Correlation Energy =       0.0000000000000000
    Empirical Dispersion Energy =           0.0000000000000000
    PCM Polarization Energy =               0.0000000000000000
    EFP Energy =                            0.0000000000000000
    Total Energy =                       -227.8701268248945553
    Molecular point group: c1
  Basis Set: CC-PVTZ
  Basis Set:

  -Total Gradient:
     Atom            X                  Y                   Z
    ------   -----------------  -----------------  -----------------
       1       -0.000007509322    -0.000005252820    -0.000000013768
       2        0.000077440730     0.000046483883    -0.000003036774
       3       -0.000008085902     0.000011046667     0.000006346563
       4       -0.000007886657    -0.000012251468     0.000000162380
       5       -0.000004282238    -0.000007991097     0.000004924762
       6        0.000052546542    -0.000116221031    -0.000028511314
       7       -0.000105114223     0.000026910281     0.000010380336
       8        0.000002891075     0.000057275587     0.000009747815

  **** Optimization is complete! (in 5 steps) ****
    Final optimized geometry and variables:
    Molecular point group: c1

    Geometry (in Angstrom), charge = 0, multiplicity = 1:

    H            2.453979639751    -0.658771555274    -0.000766112734
    C            1.738127381823     0.145831283816    -0.000181240850
    O            0.462329337721    -0.453336368551    -0.000137383915
    H            1.884015604037     0.752273262650    -0.885145921047
    H            1.884490021478     0.751414275196     0.885305113750
    C           -0.590564781115     0.341381572921     0.000062104109
    O           -1.693898150040    -0.053880352214     0.000252421145
    H           -0.340425776750     1.403821436411     0.000199736475

  Mulliken Charges: (a.u.)
   Center  Symbol    Alpha    Beta     Spin     Total
       1     H     0.43869  0.43869  0.00000  0.12261
       2     C     3.03399  3.03399  0.00000 -0.06797
       3     O     4.12079  4.12079  0.00000 -0.24158
       4     H     0.45909  0.45909  0.00000  0.08182
       5     H     0.45908  0.45908  0.00000  0.08184
       6     C     2.83603  2.83603  0.00000  0.32795
       7     O     4.17473  4.17473  0.00000 -0.34947
       8     H     0.47760  0.47760  0.00000  0.04480

   Total alpha = 16.00000, Total beta = 16.00000, Total charge = -0.00000
