  ==> Input File <==

--------------------------------------------------------------------------
set {
	reference rhf
	basis 6-31G*
}

set_num_threads( 4 )
memory 2 gb

molecule MOL {
0 1

O	 1.846825	 1.296220	 0.000415
C	 1.705091	 0.115954	 0.001797
C	 0.381791	 -0.609817	 0.001258
O	 2.721346	 -0.737485	 -0.000216
C	 -0.823008	 0.326187	 0.001381
H	 0.371250	 -1.265087	 -0.865474
H	 0.370908	 -1.265746	 0.867490
C	 -2.149452	 -0.435131	 -0.000098
H	 -0.770201	 0.977095	 -0.865636
H	 -0.771220	 0.975655	 0.869608
C	 -3.368779	 0.488503	 -0.000883
H	 -2.193746	 -1.087250	 -0.871175
H	 -2.195311	 -1.087803	 0.870418
C	 -2.999283	 1.964399	 0.142136
H	 -4.036262	 0.202939	 0.809093
H	 -3.928424	 0.343711	 -0.922279
H	 -2.468002	 2.147575	 1.071868
H	 -3.884175	 2.593206	 0.137923
H	 -2.358879	 2.289358	 -0.673092
C	 4.024888	 -0.184556	 -0.001949
H	 4.179030	 0.422472	 -0.882452
H	 4.701782	 -1.024608	 -0.003642
H	 4.181981	 0.421185	 0.878906

	symmetry c1
}
set optking {
	frozen_dihedral = ("
		15 11 8 12
	")
}

ee = optimize('scf')
oeprop('DIPOLE', 'QUADRUPOLE', 'MULLIKEN_CHARGES')
f=open( 'psi4out.xyz', 'w' )
f.write( "23  " )
f.write( str(ee) + "\n" )
f.write( MOL.save_string_xyz() )
f.close()
--------------------------------------------------------------------------

    Molecular point group: c1
  Charge       = 0
  Multiplicity = 1
  Basis Set: 6-31G*
  Basis Set:
  @DF-RHF Final Energy:  -422.96220433208373
    Total Energy =                       -422.9622043320831608
    Molecular point group: c1
  Basis Set: 6-31G*
  Basis Set:
  Basis Set: 6-31G*
  Basis Set:
  @DF-RHF Final Energy:  -422.96213472938530
    Total Energy =                       -422.9621347293855251
  Basis Set: 6-31G*
  Basis Set:
  Basis Set: 6-31G*
  Basis Set:
  @DF-RHF Final Energy:  -422.96592749918602
    Total Energy =                       -422.9659274991856819
  Basis Set: 6-31G*
  Basis Set:
  Basis Set: 6-31G*
  Basis Set:
  @DF-RHF Final Energy:  -422.96641039710426
    Total Energy =                       -422.9664103971044824
  Basis Set: 6-31G*
  Basis Set:
  Basis Set: 6-31G*
  Basis Set:
  @DF-RHF Final Energy:  -422.96442415521079
    Total Energy =                       -422.9644241552114181
  Basis Set: 6-31G*
  Basis Set:
  Basis Set: 6-31G*
  Basis Set:
  @DF-RHF Final Energy:  -422.96648580997788
    Total Energy =                       -422.9664858099773710
  Basis Set: 6-31G*
  Basis Set:
  Basis Set: 6-31G*
  Basis Set:
  @DF-RHF Final Energy:  -422.96652355491267
    Total Energy =                       -422.9665235549121007
  Basis Set: 6-31G*
  Basis Set:
  Charge       = 0
  Multiplicity = 1
  Basis Set: 6-31G*
  Basis Set:

    Orbital Energies (a.u.)
    -----------------------

    Doubly Occupied:

       1A    -20.603516     2A    -20.545305     3A    -11.372115
       4A    -11.280771     5A    -11.235239     6A    -11.218848
       7A    -11.218252     8A    -11.217016     9A    -11.207105
      10A     -1.469197    11A     -1.362635    12A     -1.090648
      13A     -1.039044    14A     -0.984752    15A     -0.930584
      16A     -0.859944    17A     -0.778550    18A     -0.765020
      19A     -0.696113    20A     -0.683723    21A     -0.671981
      22A     -0.649587    23A     -0.606873    24A     -0.597341
      25A     -0.591521    26A     -0.556332    27A     -0.535202
      28A     -0.525826    29A     -0.520064    30A     -0.513855
      31A     -0.496012    32A     -0.463077    33A     -0.461336
      34A     -0.457639    35A     -0.448163    36A     -0.435390

  @DF-RHF Final Energy:  -422.96652362973970

   => Energetics <=

    Nuclear Repulsion Energy =            458.1054979009251724
    One-Electron Energy =               -1483.9668968908690658
    Two-Electron Energy =                 602.8948753602046509
    DFT Exchange-Correlation Energy =       0.0000000000000000
    Empirical Dispersion Energy =           0.0000000000000000
    PCM Polarization Energy =               0.0000000000000000
    EFP Energy =                            0.0000000000000000
    Total Energy =                       -422.9665236297391857
    Molecular point group: c1
  Basis Set: 6-31G*
  Basis Set:

  -Total Gradient:
     Atom            X                  Y                   Z
    ------   -----------------  -----------------  -----------------
       1       -0.000006531378     0.000000590212     0.000000911714
       2       -0.000005297949     0.000010024702    -0.000005482311
       3        0.000008964941    -0.000018836640    -0.000010760443
       4       -0.000005649978    -0.000012471915    -0.000005767991
       5        0.000004456703     0.000001404059     0.000034072649
       6        0.000004193499    -0.000005181736    -0.000001437955
       7        0.000004289649     0.000003269703     0.000000648398
       8       -0.000949876803    -0.001414273206     0.001544623809
       9       -0.000026699513     0.000024107396    -0.000008702672
      10        0.000019043074    -0.000022136626    -0.000005289245
      11       -0.000854857463    -0.001269999048    -0.001737212478
      12        0.000966737088     0.001388784511    -0.001041870923
      13        0.000006678947     0.000006479963    -0.000004092394
      14       -0.000015523075    -0.000022742903     0.000021848871
      15        0.000870448814     0.001310229912     0.001228209796
      16       -0.000013811329     0.000016077648     0.000014589734
      17       -0.000029267412     0.000007618810     0.000008167210
      18       -0.000016819347    -0.000000043647    -0.000016193145
      19        0.000045851059    -0.000004739992    -0.000023241601
      20       -0.000010488029    -0.000000506223     0.000013159232
      21       -0.000001767578     0.000001590515    -0.000003080599
      22        0.000001966120    -0.000000778298    -0.000001902996
      23        0.000003959954     0.000001532802    -0.000001196660

  **** Optimization is complete! (in 8 steps) ****
    Final optimized geometry and variables:
    Molecular point group: c1

    Geometry (in Angstrom), charge = 0, multiplicity = 1:

    O            1.724329994561     1.015205398650    -0.020932427027
    C            1.549822679238    -0.160665181676    -0.018196446484
    C            0.207061213500    -0.849883536425    -0.013488987375
    O            2.542097354490    -1.041972138071    -0.019088375271
    C           -0.971298032894     0.120059758666    -0.011021336621
    H            0.176478580721    -1.506271256412    -0.878945610729
    H            0.181263533324    -1.504058423957     0.853806025804
    C           -2.307768355319    -0.630958604285    -0.009277921733
    H           -0.897708919499     0.764314802204    -0.880022211296
    H           -0.891698106404     0.767047180209     0.854779657595
    C           -3.597153073520     0.237576016239    -0.019027794126
    H           -2.319658857018    -1.279512518532    -0.881692883532
    H           -2.328506861039    -1.290213894635     0.854568194596
    C           -3.416805493149     1.751903715473     0.130275434812
    H           -4.243320113438    -0.092793376866     0.788837066396
    H           -4.144581731550     0.050570084347    -0.937711521250
    H           -2.940829234448     2.013394731787     1.069599917869
    H           -4.386707147876     2.239643179458     0.110562688782
    H           -2.822760628027     2.176020757289    -0.671866531850
    C            3.860437723736    -0.525345746230    -0.023421902263
    H            4.030509015345     0.074960885983    -0.905600510934
    H            4.513853339662    -1.383851978657    -0.023686263824
    H            4.035167656995     0.077980363853     0.855777960143

  Mulliken Charges: (a.u.)
   Center  Symbol    Alpha    Beta     Spin     Total
       1     O     4.28618  4.28618  0.00000 -0.57236
       2     C     2.60492  2.60492  0.00000  0.79016
       3     C     3.20801  3.20801  0.00000 -0.41603
       4     O     4.30727  4.30727  0.00000 -0.61453
       5     C     3.15468  3.15468  0.00000 -0.30935
       6     H     0.40090  0.40090  0.00000  0.19820
       7     H     0.40087  0.40087  0.00000  0.19826
       8     C     3.15879  3.15879  0.00000 -0.31759
       9     H     0.41098  0.41098  0.00000  0.17805
      10     H     0.41029  0.41029  0.00000  0.17942
      11     C     3.15491  3.15491  0.00000 -0.30983
      12     H     0.42166  0.42166  0.00000  0.15668
      13     H     0.42156  0.42156  0.00000  0.15688
      14     C     3.24290  3.24290  0.00000 -0.48579
      15     H     0.42002  0.42002  0.00000  0.15997
      16     H     0.41988  0.41988  0.00000  0.16024
      17     H     0.41966  0.41966  0.00000  0.16069
      18     H     0.41920  0.41920  0.00000  0.16161
      19     H     0.41825  0.41825  0.00000  0.16350
      20     C     3.09243  3.09243  0.00000 -0.18486
      21     H     0.40910  0.40910  0.00000  0.18179
      22     H     0.40844  0.40844  0.00000  0.18312
      23     H     0.40910  0.40910  0.00000  0.18179

   Total alpha = 36.00000, Total beta = 36.00000, Total charge =  0.00000
