  ==> Input File <==

--------------------------------------------------------------------------
set {
	reference rhf
	basis 6-31G*
}

set_num_threads( 1 )
memory 2 gb

molecule MOL {
0 1

H	 2.336223	 -1.737884	 -4.372139
C	 2.535316	 -0.801308	 -3.860563
C	 1.342997	 -0.374826	 -3.005190
H	 3.422631	 -0.940056	 -3.250020
H	 2.765944	 -0.054493	 -4.615466
C	 1.588031	 0.947243	 -2.274501
H	 1.124697	 -1.153202	 -2.281258
H	 0.462556	 -0.277946	 -3.638538
C	 0.404521	 1.409162	 -1.424088
H	 2.462864	 0.855687	 -1.640522
H	 1.806450	 1.722163	 -3.005824
C	 0.169600	 0.576866	 -0.172154
H	 0.569554	 2.432212	 -1.089570
H	 -0.509823	 1.436394	 -2.012654
C	 -1.181045	 0.701995	 0.511084
O	 1.017604	 -0.136579	 0.273144
C	 -2.285934	 -0.139295	 -0.145128
H	 -1.449051	 1.751551	 0.493206
H	 -1.071135	 0.403303	 1.551943
C	 -3.651768	 0.085446	 0.506485
H	 -2.346596	 0.110469	 -1.202272
H	 -2.034737	 -1.195320	 -0.088721
C	 -4.759797	 -0.746382	 -0.137905
H	 -3.908762	 1.140117	 0.445781
H	 -3.588286	 -0.154158	 1.565709
H	 -4.868882	 -0.505166	 -1.191300
H	 -4.548009	 -1.809175	 -0.062213
H	 -5.715422	 -0.564821	 0.343442

	symmetry c1
}
set optking {
	frozen_dihedral = ("
		10 6 3 2,
		12 15 17 21
	")
}

ee = energy('scf')
oeprop('DIPOLE', 'QUADRUPOLE', 'MULLIKEN_CHARGES')
f=open( 'psi4out.xyz', 'w' )
f.write( "28  " )
f.write( str(ee) + "\n" )
f.write( MOL.save_string_xyz() )
f.close()
--------------------------------------------------------------------------

    Molecular point group: c1

    Geometry (in Angstrom), charge = 0, multiplicity = 1:

       Center              X                  Y                   Z               Mass
    ------------   -----------------  -----------------  -----------------  -----------------
           H          2.821592188055    -1.872919256843    -3.387916512972     1.007825032070
           C          3.020685188055    -0.936343256843    -2.876340512972    12.000000000000
           C          1.828366188055    -0.509861256843    -2.020967512972    12.000000000000
           H          3.908000188055    -1.075091256843    -2.265797512972     1.007825032070
           H          3.251313188055    -0.189528256843    -3.631243512972     1.007825032070
           C          2.073400188055     0.812207743157    -1.290278512972    12.000000000000
           H          1.610066188055    -1.288237256843    -1.297035512972     1.007825032070
           H          0.947925188055    -0.412981256843    -2.654315512972     1.007825032070
           C          0.889890188055     1.274126743157    -0.439865512972    12.000000000000
           H          2.948233188055     0.720651743157    -0.656299512972     1.007825032070
           H          2.291819188055     1.587127743157    -2.021601512972     1.007825032070
           C          0.654969188055     0.441830743157     0.812068487028    12.000000000000
           H          1.054923188055     2.297176743157    -0.105347512972     1.007825032070
           H         -0.024453811945     1.301358743157    -1.028431512972     1.007825032070
           C         -0.695675811945     0.566959743157     1.495306487028    12.000000000000
           O          1.502973188055    -0.271614256843     1.257366487028    15.994914619560
           C         -1.800564811945    -0.274330256843     0.839094487028    12.000000000000
           H         -0.963681811945     1.616515743157     1.477428487028     1.007825032070
           H         -0.585765811945     0.268267743157     2.536165487028     1.007825032070
           C         -3.166398811945    -0.049589256843     1.490707487028    12.000000000000
           H         -1.861226811945    -0.024566256843    -0.218049512972     1.007825032070
           H         -1.549367811945    -1.330355256843     0.895501487028     1.007825032070
           C         -4.274427811945    -0.881417256843     0.846317487028    12.000000000000
           H         -3.423392811945     1.005081743157     1.430003487028     1.007825032070
           H         -3.102916811945    -0.289193256843     2.549931487028     1.007825032070
           H         -4.383512811945    -0.640201256843    -0.207077512972     1.007825032070
           H         -4.062639811945    -1.944210256843     0.922009487028     1.007825032070
           H         -5.230052811945    -0.699856256843     1.327664487028     1.007825032070

  Charge       = 0
  Multiplicity = 1
  Basis Set: 6-31G*
  Basis Set:

    Orbital Energies (a.u.)
    -----------------------

    Doubly Occupied:

       1A    -20.547240     2A    -11.321887     3A    -11.232092
       4A    -11.230579     5A    -11.228871     6A    -11.225794
       7A    -11.216573     8A    -11.215913     9A    -11.212623
      10A    -11.205946    11A     -1.392586    12A     -1.094266
      13A     -1.077739    14A     -1.022624    15A     -0.991165
      16A     -0.908973    17A     -0.871070    18A     -0.808264
      19A     -0.799869    20A     -0.723271    21A     -0.668076
      22A     -0.654898    23A     -0.624842    24A     -0.619554
      25A     -0.609952    26A     -0.590001    27A     -0.575515
      28A     -0.573398    29A     -0.545804    30A     -0.529211
      31A     -0.517494    32A     -0.508484    33A     -0.504612
      34A     -0.484067    35A     -0.478472    36A     -0.473179
      37A     -0.469942    38A     -0.465825    39A     -0.456010
      40A     -0.391833

  @DF-RHF Final Energy:  -426.16910499882283

   => Energetics <=

    Nuclear Repulsion Energy =            535.5396761332746109
    One-Electron Energy =               -1639.2804775219499334
    Two-Electron Energy =                 677.5716963898526046
    DFT Exchange-Correlation Energy =       0.0000000000000000
    Empirical Dispersion Energy =           0.0000000000000000
    PCM Polarization Energy =               0.0000000000000000
    EFP Energy =                            0.0000000000000000
    Total Energy =                       -426.1691049988226041

  Mulliken Charges: (a.u.)
   Center  Symbol    Alpha    Beta     Spin     Total
       1     H     0.41940  0.41940  0.00000  0.16120
       2     C     3.24010  3.24010  0.00000 -0.48020
       3     C     3.15626  3.15626  0.00000 -0.31253
       4     H     0.41821  0.41821  0.00000  0.16357
       5     H     0.42356  0.42356  0.00000  0.15288
       6     C     3.14951  3.14951  0.00000 -0.29901
       7     H     0.41061  0.41061  0.00000  0.17879
       8     H     0.42785  0.42785  0.00000  0.14431
       9     C     3.21282  3.21282  0.00000 -0.42564
      10     H     0.40636  0.40636  0.00000  0.18727
      11     H     0.42187  0.42187  0.00000  0.15626
      12     C     2.73330  2.73330  0.00000  0.53340
      13     H     0.40390  0.40390  0.00000  0.19220
      14     H     0.41187  0.41187  0.00000  0.17627
      15     C     3.19891  3.19891  0.00000 -0.39781
      16     O     4.26642  4.26642  0.00000 -0.53283
      17     C     3.16122  3.16122  0.00000 -0.32244
      18     H     0.41632  0.41632  0.00000  0.16737
      19     H     0.40082  0.40082  0.00000  0.19836
      20     C     3.15192  3.15192  0.00000 -0.30384
      21     H     0.42003  0.42003  0.00000  0.15993
      22     H     0.41035  0.41035  0.00000  0.17930
      23     C     3.24038  3.24038  0.00000 -0.48077
      24     H     0.42165  0.42165  0.00000  0.15671
      25     H     0.41897  0.41897  0.00000  0.16206
      26     H     0.42099  0.42099  0.00000  0.15803
      27     H     0.41934  0.41934  0.00000  0.16132
      28     H     0.41708  0.41708  0.00000  0.16584

   Total alpha = 40.00000, Total beta = 40.00000, Total charge = -0.00000
