  ==> Input File <==

--------------------------------------------------------------------------
set {
	reference rhf
	basis 6-31G*
}

set_num_threads( 4 )
memory 2 gb

molecule MOL {
0 1

H	 2.550365	 -0.910898	 0.752572
N	 2.434251	 -0.367735	 -0.081097
C	 1.267428	 0.496480	 0.024474
H	 2.322966	 -1.017219	 -0.836545
C	 -0.016086	 -0.325158	 -0.029487
H	 1.288818	 1.183521	 -0.816092
H	 1.267576	 1.109062	 0.929528
C	 -1.282277	 0.529072	 0.046735
H	 -0.012495	 -0.908639	 -0.945788
H	 -0.015903	 -1.041248	 0.791956
C	 -2.563920	 -0.301775	 -0.006060
H	 -1.284084	 1.244622	 -0.773004
H	 -1.271387	 1.115393	 0.963286
H	 -2.621848	 -0.873522	 -0.927727
H	 -3.445135	 0.329952	 0.047812
H	 -2.609542	 -1.004582	 0.821105

	symmetry c1
}
set optking {
	frozen_dihedral = ("
		1 2 3 6
	")
}

ee = optimize('scf')
oeprop('DIPOLE', 'QUADRUPOLE', 'MULLIKEN_CHARGES')
f=open( 'psi4out.xyz', 'w' )
f.write( "16  " )
f.write( str(ee) + "\n" )
f.write( MOL.save_string_xyz() )
f.close()
--------------------------------------------------------------------------

    Molecular point group: c1
  Charge       = 0
  Multiplicity = 1
  Basis Set: 6-31G*
  Basis Set:
  @DF-RHF Final Energy:  -212.31441151196273
    Total Energy =                       -212.3144115119625894
    Molecular point group: c1
  Basis Set: 6-31G*
  Basis Set:
  Basis Set: 6-31G*
  Basis Set:
  @DF-RHF Final Energy:  -212.31659114882828
    Total Energy =                       -212.3165911488282234
  Basis Set: 6-31G*
  Basis Set:
  Basis Set: 6-31G*
  Basis Set:
  @DF-RHF Final Energy:  -212.31685498610801
    Total Energy =                       -212.3168549861080692
  Basis Set: 6-31G*
  Basis Set:
  Basis Set: 6-31G*
  Basis Set:
  @DF-RHF Final Energy:  -212.31685888885619
    Total Energy =                       -212.3168588888561885
  Basis Set: 6-31G*
  Basis Set:
  Basis Set: 6-31G*
  Basis Set:
  @DF-RHF Final Energy:  -212.31686127937110
    Total Energy =                       -212.3168612793708121
  Basis Set: 6-31G*
  Basis Set:
  Charge       = 0
  Multiplicity = 1
  Basis Set: 6-31G*
  Basis Set:

    Orbital Energies (a.u.)
    -----------------------

    Doubly Occupied:

       1A    -15.532361     2A    -11.239780     3A    -11.218262
       4A    -11.214013     5A    -11.211009     6A     -1.176907
       7A     -1.062171     8A     -0.959594     9A     -0.848176
      10A     -0.797269    11A     -0.678374    12A     -0.626312
      13A     -0.597532    14A     -0.587626    15A     -0.553837
      16A     -0.527189    17A     -0.499138    18A     -0.490285
      19A     -0.472062    20A     -0.466319    21A     -0.375214

  @DF-RHF Final Energy:  -212.31686201814335

   => Energetics <=

    Nuclear Repulsion Energy =            186.0201335191688372
    One-Electron Energy =                -654.4071265247400788
    Two-Electron Energy =                 256.0701309874281151
    DFT Exchange-Correlation Energy =       0.0000000000000000
    Empirical Dispersion Energy =           0.0000000000000000
    PCM Polarization Energy =               0.0000000000000000
    EFP Energy =                            0.0000000000000000
    Total Energy =                       -212.3168620181431265
    Molecular point group: c1
  Basis Set: 6-31G*
  Basis Set:

  -Total Gradient:
     Atom            X                  Y                   Z
    ------   -----------------  -----------------  -----------------
       1        0.000633968119     0.000943801383     0.000559757864
       2       -0.000645909753    -0.001015434998    -0.000555418670
       3       -0.000511890751    -0.000704837932    -0.000698223309
       4       -0.000004817322     0.000000867875     0.000006689861
       5        0.000023508962     0.000006543115     0.000014181084
       6        0.000526189305     0.000765422256     0.000680961233
       7       -0.000006773716     0.000004634044     0.000002928214
       8       -0.000001891572     0.000000127735    -0.000019224191
       9       -0.000004498522     0.000009426736     0.000010588220
      10        0.000000308840    -0.000005534610    -0.000000792140
      11       -0.000012802872     0.000000835032     0.000004574631
      12        0.000001837537     0.000001284977    -0.000002141611
      13        0.000002885200    -0.000005067361    -0.000003213286
      14       -0.000001615522     0.000003463731    -0.000004267304
      15       -0.000000705499    -0.000003166584     0.000003783383
      16        0.000002207570    -0.000002365398    -0.000000183978

  **** Optimization is complete! (in 6 steps) ****
    Final optimized geometry and variables:
    Molecular point group: c1

    Geometry (in Angstrom), charge = 0, multiplicity = 1:

    H            2.610448596898    -0.869387212644     0.771765577207
    N            2.500033679728    -0.307912411030    -0.050423981863
    C            1.273540320506     0.470720655472     0.015355911919
    H            2.490670074566    -0.929087592757    -0.836646715762
    C           -0.027261779746    -0.334693002473    -0.023016881025
    H            1.287836133270     1.186525848462    -0.801614998117
    H            1.309611306569     1.058846944043     0.927837038050
    C           -1.280506153847     0.539440147319     0.050199215993
    H           -0.052390948672    -0.927391121915    -0.937052815261
    H           -0.030705873035    -1.045672843274     0.802486231845
    C           -2.577394976022    -0.268005008127     0.007389750333
    H           -1.271780822350     1.250822939652    -0.772922501976
    H           -1.254333952939     1.130436906824     0.963340269278
    H           -2.650982544728    -0.842763340639    -0.911492944412
    H           -3.446416309639     0.380239471547     0.062350861900
    H           -2.632156533707    -0.965916770090     0.838074353765

  Mulliken Charges: (a.u.)
   Center  Symbol    Alpha    Beta     Spin     Total
       1     H     0.33477  0.33477  0.00000  0.33046
       2     N     3.91884  3.91884  0.00000 -0.83768
       3     C     3.06087  3.06087  0.00000 -0.12174
       4     H     0.33501  0.33501  0.00000  0.32997
       5     C     3.15717  3.15717  0.00000 -0.31433
       6     H     0.41895  0.41895  0.00000  0.16210
       7     H     0.42004  0.42004  0.00000  0.15992
       8     C     3.15565  3.15565  0.00000 -0.31129
       9     H     0.42723  0.42723  0.00000  0.14554
      10     H     0.42704  0.42704  0.00000  0.14592
      11     C     3.23863  3.23863  0.00000 -0.47725
      12     H     0.42177  0.42177  0.00000  0.15647
      13     H     0.42215  0.42215  0.00000  0.15570
      14     H     0.42155  0.42155  0.00000  0.15690
      15     H     0.41871  0.41871  0.00000  0.16258
      16     H     0.42164  0.42164  0.00000  0.15673

   Total alpha = 21.00000, Total beta = 21.00000, Total charge = -0.00000
