                              Psi4 1.0.54 Driver

  ==> Input File <==

--------------------------------------------------------------------------
set {
	reference rhf
	basis cc-pvtz
}

set_num_threads( 4 )
memory 2 gb

molecule MOL {
0 1

H	 1.142927	 1.694591	 -0.642875
O	 0.332217	 1.209783	 -0.677176
C	 0.489979	 0.078084	 0.002623
C	 -0.763662	 -0.754014	 0.000816
O	 1.507241	 -0.200449	 0.536953
C	 -2.038001	 0.074705	 -0.000833
H	 -0.712945	 -1.405886	 -0.864342
H	 -0.715137	 -1.405770	 0.866182
H	 -2.087267	 0.710831	 -0.874232
H	 -2.903419	 -0.576199	 -0.001922
H	 -2.089467	 0.710909	 0.872389

	symmetry c1
}
set optking {
	frozen_dihedral = ("
		2 3 4 7
	")
}

ee,wfn = optimize('scf', return_wfn=True)
oeprop( wfn, 'DIPOLE', 'QUADRUPOLE', 'MULLIKEN_CHARGES')
f=open( 'psi4out.xyz', 'w' )
f.write( "11  " )
f.write( str(ee) + "\n" )
f.write( MOL.save_string_xyz() )
f.close()
--------------------------------------------------------------------------

    Molecular point group: c1
  Charge       = 0
  Multiplicity = 1
  Basis Set: CC-PVTZ
  Basis Set:
  @DF-RHF Final Energy:  -266.95041764533732
    Total Energy =                       -266.9504176453373248
    Molecular point group: c1
  Basis Set: CC-PVTZ
  Basis Set:
  Basis Set: CC-PVTZ
  Basis Set:
  @DF-RHF Final Energy:  -266.91142463013375
    Total Energy =                       -266.9114246301336379
  Basis Set: CC-PVTZ
  Basis Set:
  Basis Set: CC-PVTZ
  Basis Set:
  @DF-RHF Final Energy:  -266.94987368650982
    Total Energy =                       -266.9498736865097044
  Basis Set: CC-PVTZ
  Basis Set:
  Basis Set: CC-PVTZ
  Basis Set:
  @DF-RHF Final Energy:  -266.95093454750565
    Total Energy =                       -266.9509345475055397
  Basis Set: CC-PVTZ
  Basis Set:
  Basis Set: CC-PVTZ
  Basis Set:
  @DF-RHF Final Energy:  -266.95092781951371
    Total Energy =                       -266.9509278195137085
  Basis Set: CC-PVTZ
  Basis Set:
  Basis Set: CC-PVTZ
  Basis Set:
  @DF-RHF Final Energy:  -266.95107062824911
    Total Energy =                       -266.9510706282489991
  Basis Set: CC-PVTZ
  Basis Set:
  Charge       = 0
  Multiplicity = 1
  Basis Set: CC-PVTZ
  Basis Set:

    Orbital Energies (a.u.)
    -----------------------

    Doubly Occupied:

       1A    -20.606815     2A    -20.538707     3A    -11.374423
       4A    -11.242888     5A    -11.224772     6A     -1.479321
       7A     -1.369007     8A     -1.068024     9A     -0.911748
      10A     -0.825076    11A     -0.705831    12A     -0.681932
      13A     -0.657056    14A     -0.604415    15A     -0.591375
      16A     -0.553768    17A     -0.526626    18A     -0.513907
      19A     -0.478844    20A     -0.443488

  @DF-RHF Final Energy:  -266.95107157535608

   => Energetics <=

    Nuclear Repulsion Energy =            180.4037833466952918
    One-Electron Energy =                -721.9136665983746752
    Two-Electron Energy =                 274.5588116763232733
    DFT Exchange-Correlation Energy =       0.0000000000000000
    Empirical Dispersion Energy =           0.0000000000000000
    PCM Polarization Energy =               0.0000000000000000
    EFP Energy =                            0.0000000000000000
    Total Energy =                       -266.9510715753561385
    Molecular point group: c1
  Basis Set: CC-PVTZ
  Basis Set:

  -Total Gradient:
     Atom            X                  Y                   Z
    ------   -----------------  -----------------  -----------------
       1        0.000035216094     0.000032732025    -0.000048263154
       2       -0.000116361094     0.000353183343     0.000557745878
       3        0.000212689959    -0.000745775231    -0.000329643327
       4       -0.000184111766     0.000867098041    -0.000538177306
       5        0.000001763331     0.000148493855    -0.000172021622
       6       -0.000001024538    -0.000063475605     0.000022164729
       7        0.000056191798    -0.000605230586     0.000497931369
       8       -0.000023282418     0.000040693268    -0.000035368408
       9        0.000010601723    -0.000052028904     0.000054394702
      10        0.000001284327     0.000012097614    -0.000012058123
      11        0.000007032588     0.000012212177     0.000003295262

  **** Optimization is complete! (in 7 steps) ****
    Final optimized geometry and variables:
    Molecular point group: c1

    Geometry (in Angstrom), charge = 0, multiplicity = 1:

    H            1.765527859292     1.110271874281    -0.323679489128
    O            0.867414374525     0.899781420537    -0.531311533748
    C            0.514600959606    -0.166057478043     0.178869513328
    C           -0.892133532096    -0.633140720992    -0.095164463253
    O            1.260979646534    -0.694250696460     0.929189416992
    C           -1.895437317609     0.460819777134    -0.442831733125
    H           -0.816366739829    -1.348934269668    -0.908504063420
    H           -1.201568261205    -1.191051906989     0.776828915813
    H           -1.615967512665     0.981745906920    -1.347430086491
    H           -2.875306167497     0.024303771459    -0.589795823488
    H           -1.971613745168     1.190756782762     0.354029697586

  Mulliken Charges: (a.u.)
   Center  Symbol    Alpha    Beta     Spin     Total
       1     H     0.38107  0.38107  0.00000  0.23787
       2     O     4.15836  4.15836  0.00000 -0.31673
       3     C     2.80595  2.80595  0.00000  0.38810
       4     C     3.09303  3.09303  0.00000 -0.18607
       5     O     4.19497  4.19497  0.00000 -0.38994
       6     C     3.14352  3.14352  0.00000 -0.28703
       7     H     0.44403  0.44403  0.00000  0.11194
       8     H     0.43421  0.43421  0.00000  0.13157
       9     H     0.44599  0.44599  0.00000  0.10802
      10     H     0.44854  0.44854  0.00000  0.10292
      11     H     0.45033  0.45033  0.00000  0.09934

   Total alpha = 20.00000, Total beta = 20.00000, Total charge =  0.00000

*** Psi4 exiting successfully. Buy a developer a beer!
