                              Psi4 1.0.54 Driver

  ==> Input File <==

--------------------------------------------------------------------------
set {
	reference rhf
	basis cc-pvtz
}

set_num_threads( 4 )
memory 2 gb

molecule MOL {
0 1

H	 -0.366580	 2.045936	 -0.305741
C	 0.351829	 1.335402	 0.083179
N	 -0.000018	 0.000080	 -0.334836
H	 1.327156	 1.599860	 -0.305475
H	 0.380566	 1.445403	 1.171445
C	 -1.049668	 0.003485	 -1.325090
C	 1.152413	 -0.750052	 -0.772382
H	 -1.336147	 -1.012946	 -1.563603
H	 -1.922093	 0.514157	 -0.937436
H	 -0.753816	 0.498321	 -2.254972
H	 1.889827	 -0.790447	 0.019307
H	 0.863560	 -1.765632	 -1.011728
H	 1.629645	 -0.317029	 -1.656605

	symmetry c1
}
set optking {
	frozen_dihedral = ("
		6 3 2 1
	")
}

ee,wfn = optimize('scf', return_wfn=True)
oeprop( wfn, 'DIPOLE', 'QUADRUPOLE', 'MULLIKEN_CHARGES')
f=open( 'psi4out.xyz', 'w' )
f.write( "13  " )
f.write( str(ee) + "\n" )
f.write( MOL.save_string_xyz() )
f.close()
--------------------------------------------------------------------------

    Molecular point group: c1
  Charge       = 0
  Multiplicity = 1
  Basis Set: CC-PVTZ
  Basis Set:
  @DF-RHF Final Energy:  -173.32762142641363
    Total Energy =                       -173.3276214264135433
    Molecular point group: c1
  Basis Set: CC-PVTZ
  Basis Set:
  Basis Set: CC-PVTZ
  Basis Set:
  @DF-RHF Final Energy:  -173.32844154296467
    Total Energy =                       -173.3284415429647538
  Basis Set: CC-PVTZ
  Basis Set:
  Basis Set: CC-PVTZ
  Basis Set:
  @DF-RHF Final Energy:  -173.32861632427657
    Total Energy =                       -173.3286163242765383
  Basis Set: CC-PVTZ
  Basis Set:
  Basis Set: CC-PVTZ
  Basis Set:
  @DF-RHF Final Energy:  -173.32863191821477
    Total Energy =                       -173.3286319182148532
  Basis Set: CC-PVTZ
  Basis Set:
  Charge       = 0
  Multiplicity = 1
  Basis Set: CC-PVTZ
  Basis Set:

    Orbital Energies (a.u.)
    -----------------------

    Doubly Occupied:

       1A    -15.534563     2A    -11.234231     3A    -11.234003
       4A    -11.233903     5A     -1.221779     6A     -0.952789
       7A     -0.952031     8A     -0.805900     9A     -0.638913
      10A     -0.630324    11A     -0.628689    12A     -0.549434
      13A     -0.546014    14A     -0.514615    15A     -0.502940
      16A     -0.501643    17A     -0.339885

  @DF-RHF Final Energy:  -173.32863330366015

   => Energetics <=

    Nuclear Repulsion Energy =            138.9543805632087867
    One-Electron Energy =                -508.5227101223965747
    Two-Electron Energy =                 196.2396962555275763
    DFT Exchange-Correlation Energy =       0.0000000000000000
    Empirical Dispersion Energy =           0.0000000000000000
    PCM Polarization Energy =               0.0000000000000000
    EFP Energy =                            0.0000000000000000
    Total Energy =                       -173.3286333036601832
    Molecular point group: c1
  Basis Set: CC-PVTZ
  Basis Set:

  -Total Gradient:
     Atom            X                  Y                   Z
    ------   -----------------  -----------------  -----------------
       1        0.001999605285     0.000506851496    -0.003125521984
       2       -0.003275388715    -0.000643628495     0.004859780784
       3        0.003177893257     0.000353340585    -0.003809246076
       4       -0.000004531114     0.000011540248    -0.000029483104
       5        0.000000727675    -0.000047635129    -0.000035124519
       6       -0.001951135104    -0.000162454725     0.002115325704
       7        0.000053385183     0.000012921008     0.000028437012
       8        0.000002035755    -0.000000256786    -0.000005444433
       9       -0.000018338329    -0.000003776121    -0.000019464631
      10        0.000012848812    -0.000012728836     0.000022032405
      11        0.000022823801    -0.000014416705    -0.000007447630
      12        0.000001970960    -0.000003778066    -0.000001326939
      13       -0.000021897466     0.000004021528     0.000007483410

  **** Optimization is complete! (in 5 steps) ****
    Final optimized geometry and variables:
    Molecular point group: c1

    Geometry (in Angstrom), charge = 0, multiplicity = 1:

    H           -0.505573190030     1.922166469622     0.334647268666
    C            0.226365783804     1.204636481638     0.682609064985
    N           -0.112515332129    -0.133350765709     0.237307762621
    H            1.184298958794     1.534632393091     0.281790178267
    H            0.283344580137     1.260063214696     1.763940182579
    C           -1.178866427241    -0.184560940813    -0.729883893443
    C            1.035462262683    -0.921170851810    -0.126858637145
    H           -1.444426345394    -1.215806214742    -0.927643831746
    H           -2.057525411775     0.312925639191    -0.340338883969
    H           -0.921978485720     0.282323082819    -1.686409547246
    H            1.752060961227    -0.928655912455     0.685374015566
    H            0.739726652565    -1.945861593277    -0.315138293321
    H            1.545589927667    -0.546606019755    -1.020080921004

  Mulliken Charges: (a.u.)
   Center  Symbol    Alpha    Beta     Spin     Total
       1     H     0.45845  0.45845  0.00000  0.08310
       2     C     3.08556  3.08556  0.00000 -0.17113
       3     N     3.59814  3.59814  0.00000 -0.19628
       4     H     0.46776  0.46776  0.00000  0.06448
       5     H     0.45096  0.45096  0.00000  0.09809
       6     C     3.08939  3.08939  0.00000 -0.17877
       7     C     3.08979  3.08979  0.00000 -0.17957
       8     H     0.45368  0.45368  0.00000  0.09264
       9     H     0.45241  0.45241  0.00000  0.09519
      10     H     0.47397  0.47397  0.00000  0.05205
      11     H     0.45238  0.45238  0.00000  0.09525
      12     H     0.45385  0.45385  0.00000  0.09230
      13     H     0.47367  0.47367  0.00000  0.05266

   Total alpha = 17.00000, Total beta = 17.00000, Total charge = -0.00000

*** Psi4 exiting successfully. Buy a developer a beer!
