  ==> Input File <==

--------------------------------------------------------------------------
set {
	reference rhf
	basis 6-31G*
}

set_num_threads( 1 )
memory 2 gb

molecule MOL {
0 1

O	 -1.158117	 2.403412	 1.032091
C	 -1.255578	 1.768351	 0.026291
C	 -0.031503	 1.148559	 -0.624712
C	 -2.595575	 1.521637	 -0.630152
C	 0.379448	 -0.143569	 0.099626
H	 0.775333	 1.870652	 -0.562258
H	 -0.220116	 0.941935	 -1.674358
C	 1.631333	 -0.777471	 -0.511575
H	 0.542491	 0.092155	 1.145206
H	 -0.439376	 -0.860457	 0.062945
C	 2.915987	 -0.544314	 0.291766
H	 1.766672	 -0.399098	 -1.523130
H	 1.471257	 -1.849544	 -0.605828
C	 3.373361	 0.914346	 0.347591
H	 3.708709	 -1.142521	 -0.150311
H	 2.780642	 -0.921148	 1.303579
H	 3.506512	 1.320010	 -0.651625
H	 4.322697	 0.999599	 0.867103
H	 2.660624	 1.545032	 0.868198
H	 -2.627965	 2.022879	 -1.593983
H	 -3.390566	 1.899244	 -0.002310
H	 -2.743503	 0.461660	 -0.815545

	symmetry c1
}
set optking {
	frozen_dihedral = ("
		6 3 2 1,
		6 3 5 8,
		12 8 11 15
	")
}

ee = energy('scf')
oeprop('DIPOLE', 'QUADRUPOLE', 'MULLIKEN_CHARGES')
f=open( 'psi4out.xyz', 'w' )
f.write( "22  " )
f.write( str(ee) + "\n" )
f.write( MOL.save_string_xyz() )
f.close()
--------------------------------------------------------------------------

    Molecular point group: c1

    Geometry (in Angstrom), charge = 0, multiplicity = 1:

       Center              X                  Y                   Z               Mass
    ------------   -----------------  -----------------  -----------------  -----------------
           O         -1.567337553000     1.604845243765     1.022136657402    15.994914619560
           C         -1.664798553000     0.969784243765     0.016336657402    12.000000000000
           C         -0.440723553000     0.349992243765    -0.634666342598    12.000000000000
           C         -3.004795553000     0.723070243765    -0.640106342598    12.000000000000
           C         -0.029772553000    -0.942135756235     0.089671657402    12.000000000000
           H          0.366112447000     1.072085243765    -0.572212342598     1.007825032070
           H         -0.629336553000     0.143368243765    -1.684312342598     1.007825032070
           C          1.222112447000    -1.576037756235    -0.521529342598    12.000000000000
           H          0.133270447000    -0.706411756235     1.135251657402     1.007825032070
           H         -0.848596553000    -1.659023756235     0.052990657402     1.007825032070
           C          2.506766447000    -1.342880756235     0.281811657402    12.000000000000
           H          1.357451447000    -1.197664756235    -1.533084342598     1.007825032070
           H          1.062036447000    -2.648110756235    -0.615782342598     1.007825032070
           C          2.964140447000     0.115779243765     0.337636657402    12.000000000000
           H          3.299488447000    -1.941087756235    -0.160265342598     1.007825032070
           H          2.371421447000    -1.719714756235     1.293624657402     1.007825032070
           H          3.097291447000     0.521443243765    -0.661579342598     1.007825032070
           H          3.913476447000     0.201032243765     0.857148657402     1.007825032070
           H          2.251403447000     0.746465243765     0.858243657402     1.007825032070
           H         -3.037185553000     1.224312243765    -1.603937342598     1.007825032070
           H         -3.799786553000     1.100677243765    -0.012264342598     1.007825032070
           H         -3.152723553000    -0.336906756235    -0.825499342598     1.007825032070

  Charge       = 0
  Multiplicity = 1
  Basis Set: 6-31G*
  Basis Set:

    Orbital Energies (a.u.)
    -----------------------

    Doubly Occupied:

       1A    -20.547014     2A    -11.323750     3A    -11.228683
       4A    -11.228110     5A    -11.227865     6A    -11.220820
       7A    -11.219365     8A    -11.210349     9A     -1.392785
      10A     -1.096297    11A     -1.041822    12A     -0.998273
      13A     -0.940415    14A     -0.855544    15A     -0.785701
      16A     -0.733950    17A     -0.658334    18A     -0.649538
      19A     -0.626702    20A     -0.613600    21A     -0.598398
      22A     -0.580763    23A     -0.559378    24A     -0.549042
      25A     -0.530523    26A     -0.518842    27A     -0.503734
      28A     -0.486564    29A     -0.468802    30A     -0.462936
      31A     -0.454806    32A     -0.395107

  @DF-RHF Final Energy:  -348.09320108980035

   => Energetics <=

    Nuclear Repulsion Energy =            379.5906170493220770
    One-Electron Energy =               -1223.9519139552717206
    Two-Electron Energy =                 496.2680958161498666
    DFT Exchange-Correlation Energy =       0.0000000000000000
    Empirical Dispersion Energy =           0.0000000000000000
    PCM Polarization Energy =               0.0000000000000000
    EFP Energy =                            0.0000000000000000
    Total Energy =                       -348.0932010897997770

  Mulliken Charges: (a.u.)
   Center  Symbol    Alpha    Beta     Spin     Total
       1     O     4.26304  4.26304  0.00000 -0.52607
       2     C     2.73715  2.73715  0.00000  0.52569
       3     C     3.20375  3.20375  0.00000 -0.40750
       4     C     3.28959  3.28959  0.00000 -0.57919
       5     C     3.16619  3.16619  0.00000 -0.33237
       6     H     0.39863  0.39863  0.00000  0.20275
       7     H     0.41645  0.41645  0.00000  0.16710
       8     C     3.15614  3.15614  0.00000 -0.31227
       9     H     0.40377  0.40377  0.00000  0.19246
      10     H     0.41792  0.41792  0.00000  0.16415
      11     C     3.15263  3.15263  0.00000 -0.30527
      12     H     0.42134  0.42134  0.00000  0.15732
      13     H     0.41774  0.41774  0.00000  0.16452
      14     C     3.24504  3.24504  0.00000 -0.49008
      15     H     0.42078  0.42078  0.00000  0.15843
      16     H     0.42082  0.42082  0.00000  0.15836
      17     H     0.42310  0.42310  0.00000  0.15379
      18     H     0.41735  0.41735  0.00000  0.16531
      19     H     0.41457  0.41457  0.00000  0.17086
      20     H     0.40705  0.40705  0.00000  0.18591
      21     H     0.39718  0.39718  0.00000  0.20563
      22     H     0.40977  0.40977  0.00000  0.18046

   Total alpha = 32.00000, Total beta = 32.00000, Total charge =  0.00000
