  ==> Input File <==

--------------------------------------------------------------------------
set {
	reference rhf
	basis 6-31G*
}

set_num_threads( 4 )
memory 2 gb

molecule MOL {
0 1

H	 1.129474	 -0.344499	 1.155665
C	 1.071922	 -0.167955	 0.074358
C	 0.065331	 0.871482	 -0.349150
O	 1.775386	 -0.773173	 -0.667644
C	 -1.339775	 0.583656	 0.198860
H	 0.065117	 0.926217	 -1.431701
H	 0.410976	 1.830105	 0.035210
C	 -1.808407	 -0.848507	 -0.061364
H	 -2.036183	 1.280685	 -0.256307
H	 -1.360094	 0.788874	 1.267089
H	 -1.828843	 -1.063152	 -1.125336
H	 -2.808409	 -1.004529	 0.329750
H	 -1.153967	 -1.577789	 0.406873

	symmetry c1
}
set optking {
	frozen_dihedral = ("
		6 3 5 9
	")
}

ee = optimize('scf')
oeprop('DIPOLE', 'QUADRUPOLE', 'MULLIKEN_CHARGES')
f=open( 'psi4out.xyz', 'w' )
f.write( "13  " )
f.write( str(ee) + "\n" )
f.write( MOL.save_string_xyz() )
f.close()
--------------------------------------------------------------------------

    Molecular point group: c1
  Charge       = 0
  Multiplicity = 1
  Basis Set: 6-31G*
  Basis Set:
  @DF-RHF Final Energy:  -230.98341598794238
    Total Energy =                       -230.9834159879426352
    Molecular point group: c1
  Basis Set: 6-31G*
  Basis Set:
  Basis Set: 6-31G*
  Basis Set:
  @DF-RHF Final Energy:  -230.98354181591523
    Total Energy =                       -230.9835418159150890
  Basis Set: 6-31G*
  Basis Set:
  Basis Set: 6-31G*
  Basis Set:
  @DF-RHF Final Energy:  -230.98349661298724
    Total Energy =                       -230.9834966129872669
  Basis Set: 6-31G*
  Basis Set:
  Basis Set: 6-31G*
  Basis Set:
  @DF-RHF Final Energy:  -230.98370677098112
    Total Energy =                       -230.9837067709810299
  Basis Set: 6-31G*
  Basis Set:
  Basis Set: 6-31G*
  Basis Set:
  @DF-RHF Final Energy:  -230.98371498148938
    Total Energy =                       -230.9837149814892427
  Basis Set: 6-31G*
  Basis Set:
  Charge       = 0
  Multiplicity = 1
  Basis Set: 6-31G*
  Basis Set:

    Orbital Energies (a.u.)
    -----------------------

    Doubly Occupied:

       1A    -20.562744     2A    -11.327190     3A    -11.238939
       4A    -11.235855     5A    -11.221881     6A     -1.402670
       7A     -1.086482     8A     -0.972795     9A     -0.850713
      10A     -0.786409    11A     -0.665106    12A     -0.647894
      13A     -0.628865    14A     -0.597759    15A     -0.558152
      16A     -0.529991    17A     -0.509968    18A     -0.491638
      19A     -0.481266    20A     -0.410452

  @DF-RHF Final Energy:  -230.98371593564406

   => Energetics <=

    Nuclear Repulsion Energy =            174.0658586982387419
    One-Electron Energy =                -657.6856121890122040
    Two-Electron Energy =                 252.6360375551295476
    DFT Exchange-Correlation Energy =       0.0000000000000000
    Empirical Dispersion Energy =           0.0000000000000000
    PCM Polarization Energy =               0.0000000000000000
    EFP Energy =                            0.0000000000000000
    Total Energy =                       -230.9837159356439145
    Molecular point group: c1
  Basis Set: 6-31G*
  Basis Set:

  -Total Gradient:
     Atom            X                  Y                   Z
    ------   -----------------  -----------------  -----------------
       1       -0.000010502837     0.000006624585    -0.000007393303
       2       -0.000036228016     0.000057304044    -0.000048011780
       3        0.000745643878    -0.004798182509    -0.000764713726
       4       -0.000020029059    -0.000037458389     0.000007870735
       5        0.000523209867     0.003563862047     0.003154884025
       6       -0.000618480846     0.003422539564     0.000167230850
       7       -0.000015861684     0.000013071183     0.000041609264
       8       -0.000001227219    -0.000005970291    -0.000002340812
       9       -0.000574287030    -0.002234260031    -0.002540602390
      10       -0.000000040936     0.000003588486    -0.000013254688
      11        0.000004137016    -0.000003854605    -0.000001538640
      12       -0.000013164540     0.000002619001     0.000009753222
      13        0.000016831405     0.000010116915    -0.000003492755

  **** Optimization is complete! (in 6 steps) ****
    Final optimized geometry and variables:
    Molecular point group: c1

    Geometry (in Angstrom), charge = 0, multiplicity = 1:

    H            1.204680722024    -0.224165235345     1.325400817414
    C            1.137195989556    -0.067950364688     0.241720972230
    C            0.101098697554     0.934205832863    -0.194267935270
    O            1.858439816046    -0.661062617579    -0.493043905008
    C           -1.297430214382     0.654136493426     0.378810559401
    H            0.082287555698     0.984371028089    -1.276737650708
    H            0.434867591553     1.909191362039     0.160863196464
    C           -1.799309259320    -0.764013437001     0.093112443616
    H           -1.989984261093     1.356612418378    -0.073478733261
    H           -1.304440025383     0.840026185902     1.449299605904
    H           -1.802093400986    -0.967765721915    -0.973319944172
    H           -2.812010035149    -0.894064488061     0.460266002265
    H           -1.179912971791    -1.518731599225     0.568549741301

  Mulliken Charges: (a.u.)
   Center  Symbol    Alpha    Beta     Spin     Total
       1     H     0.43224  0.43224  0.00000  0.13551
       2     C     2.83099  2.83099  0.00000  0.33803
       3     C     3.20867  3.20867  0.00000 -0.41735
       4     O     4.23757  4.23757  0.00000 -0.47514
       5     C     3.16328  3.16328  0.00000 -0.32656
       6     H     0.39970  0.39970  0.00000  0.20061
       7     H     0.40729  0.40729  0.00000  0.18541
       8     C     3.24504  3.24504  0.00000 -0.49008
       9     H     0.41130  0.41130  0.00000  0.17740
      10     H     0.41752  0.41752  0.00000  0.16496
      11     H     0.41411  0.41411  0.00000  0.17178
      12     H     0.41482  0.41482  0.00000  0.17035
      13     H     0.41746  0.41746  0.00000  0.16508

   Total alpha = 20.00000, Total beta = 20.00000, Total charge =  0.00000
