  ==> Input File <==

--------------------------------------------------------------------------
set {
	reference rhf
	basis cc-pvtz
}

set_num_threads( 4 )
memory 2 gb

molecule MOL {
0 1

H	 1.036645	 2.503278	 0.322390
O	 1.292714	 1.677759	 0.693065
C	 0.706474	 0.636793	 -0.025501
C	 -0.793473	 0.591216	 0.050087
H	 1.112066	 -0.282504	 0.380321
H	 1.004714	 0.671627	 -1.071703
C	 -1.534243	 -0.493009	 -0.013340
H	 -1.266611	 1.552628	 0.164437
H	 -1.101195	 -1.466332	 -0.144046
H	 -2.604242	 -0.437780	 0.050785

	symmetry c1
}
set optking {
	frozen_dihedral = ("
		5 3 4 7
	")
}

ee = optimize('scf')
oeprop('DIPOLE', 'QUADRUPOLE', 'MULLIKEN_CHARGES')
f=open( 'psi4out.xyz', 'w' )
f.write( "10  " )
f.write( str(ee) + "\n" )
f.write( MOL.save_string_xyz() )
f.close()
--------------------------------------------------------------------------

    Molecular point group: c1
  Charge       = 0
  Multiplicity = 1
  Basis Set: CC-PVTZ
  Basis Set:
  @DF-RHF Final Energy:  -191.99513182676748
    Total Energy =                       -191.9951318267675049
    Molecular point group: c1
  Basis Set: CC-PVTZ
  Basis Set:
  Basis Set: CC-PVTZ
  Basis Set:
  @DF-RHF Final Energy:  -191.99569503492728
    Total Energy =                       -191.9956950349273370
  Basis Set: CC-PVTZ
  Basis Set:
  Basis Set: CC-PVTZ
  Basis Set:
  @DF-RHF Final Energy:  -191.99576143005038
    Total Energy =                       -191.9957614300502655
  Basis Set: CC-PVTZ
  Basis Set:
  Basis Set: CC-PVTZ
  Basis Set:
  @DF-RHF Final Energy:  -191.99576995286066
    Total Energy =                       -191.9957699528608259
  Basis Set: CC-PVTZ
  Basis Set:
  Basis Set: CC-PVTZ
  Basis Set:
  @DF-RHF Final Energy:  -191.99577162449111
    Total Energy =                       -191.9957716244910557
  Basis Set: CC-PVTZ
  Basis Set:
  Charge       = 0
  Multiplicity = 1
  Basis Set: CC-PVTZ
  Basis Set:

    Orbital Energies (a.u.)
    -----------------------

    Doubly Occupied:

       1A    -20.552680     2A    -11.277077     3A    -11.230877
       4A    -11.219666     5A     -1.371372     6A     -1.066156
       7A     -0.923284     8A     -0.780642     9A     -0.697652
      10A     -0.652368    11A     -0.625034    12A     -0.574280
      13A     -0.535417    14A     -0.504741    15A     -0.447995
      16A     -0.371010

  @DF-RHF Final Energy:  -191.99577198544540

   => Energetics <=

    Nuclear Repulsion Energy =            117.2229692952160320
    One-Electron Energy =                -492.7769768675848923
    Two-Electron Energy =                 183.5582355869235585
    DFT Exchange-Correlation Energy =       0.0000000000000000
    Empirical Dispersion Energy =           0.0000000000000000
    PCM Polarization Energy =               0.0000000000000000
    EFP Energy =                            0.0000000000000000
    Total Energy =                       -191.9957719854452876
    Molecular point group: c1
  Basis Set: CC-PVTZ
  Basis Set:

  -Total Gradient:
     Atom            X                  Y                   Z
    ------   -----------------  -----------------  -----------------
       1       -0.000012669301     0.000008528948    -0.000010079858
       2        0.000059780878     0.000042267921     0.000070106501
       3       -0.000262899188    -0.000986709393    -0.003343678815
       4        0.000213166838    -0.000081676308     0.003329535190
       5        0.000105117004     0.000841395960     0.001861199526
       6        0.000019551599    -0.000012274891     0.000003905906
       7       -0.000122585788     0.000192191914    -0.001916723870
       8        0.000002960236    -0.000003867040    -0.000001722207
       9       -0.000001184724     0.000004368539     0.000004204433
      10       -0.000001237552    -0.000004225649     0.000003253194

  **** Optimization is complete! (in 6 steps) ****
    Final optimized geometry and variables:
    Molecular point group: c1

    Geometry (in Angstrom), charge = 0, multiplicity = 1:

    H            1.103473148041     1.840217127541     0.131422920957
    O            1.288107355475     1.007168610934     0.525154973387
    C            0.719992265763    -0.024982380276    -0.235128230835
    C           -0.782160488322    -0.057028548352    -0.137797746297
    H            1.135756249920    -0.943501219905     0.153490342244
    H            1.019382993857     0.063766971380    -1.276301646772
    C           -1.514974285014    -1.146015952175    -0.201267428821
    H           -1.264505838481     0.903376436653    -0.056308342558
    H           -1.071501897601    -2.122931671700    -0.278581932482
    H           -2.587037496153    -1.103518695062    -0.171489348620

  Mulliken Charges: (a.u.)
   Center  Symbol    Alpha    Beta     Spin     Total
       1     H     0.39298  0.39298  0.00000  0.21404
       2     O     4.20227  4.20227  0.00000 -0.40454
       3     C     2.95306  2.95306  0.00000  0.09388
       4     C     3.06883  3.06883  0.00000 -0.13767
       5     H     0.45296  0.45296  0.00000  0.09408
       6     H     0.46721  0.46721  0.00000  0.06557
       7     C     3.17134  3.17134  0.00000 -0.34269
       8     H     0.43055  0.43055  0.00000  0.13889
       9     H     0.43201  0.43201  0.00000  0.13597
      10     H     0.42877  0.42877  0.00000  0.14245

   Total alpha = 16.00000, Total beta = 16.00000, Total charge = -0.00000
