                              Psi4 1.0.54 Driver

  ==> Input File <==

--------------------------------------------------------------------------
set {
	reference rhf
	basis cc-pvtz
}

set_num_threads( 4 )
memory 2 gb

molecule MOL {
0 1

H	 -3.546524	 -0.442371	 -1.510389
O	 -3.458596	 0.315260	 -0.960865
C	 -3.176635	 -0.080824	 0.355601
C	 -1.763371	 0.265266	 0.799691
H	 -3.321825	 -1.153438	 0.379502
H	 -3.895468	 0.357385	 1.043382
C	 -0.673390	 -0.426948	 -0.013392
H	 -1.631049	 1.344913	 0.747560
H	 -1.664587	 -0.001624	 1.849167
C	 0.737842	 -0.043159	 0.423759
H	 -0.806103	 -0.190518	 -1.063345
H	 -0.797221	 -1.503753	 0.074146
C	 1.824000	 -0.743224	 -0.390623
H	 0.850588	 1.033777	 0.343840
H	 0.868587	 -0.286314	 1.476203
C	 3.255957	 -0.453067	 0.062319
H	 1.718250	 -0.470599	 -1.438164
H	 1.658105	 -1.815850	 -0.339904
C	 3.707029	 0.992337	 -0.133857
H	 3.928201	 -1.104096	 -0.488158
H	 3.362667	 -0.724561	 1.109374
H	 3.605811	 1.294044	 -1.171549
H	 4.748333	 1.111029	 0.143343
H	 3.129882	 1.683078	 0.468956

	symmetry c1
}
set optking {
	frozen_dihedral = ("
		1 2 3 5
	")
}

ee,wfn = optimize('scf', return_wfn=True)
oeprop( wfn, 'DIPOLE', 'QUADRUPOLE', 'MULLIKEN_CHARGES')
f=open( 'psi4out.xyz', 'w' )
f.write( "24  " )
f.write( str(ee) + "\n" )
f.write( MOL.save_string_xyz() )
f.close()
--------------------------------------------------------------------------

    Molecular point group: c1
  Charge       = 0
  Multiplicity = 1
  Basis Set: CC-PVTZ
  Basis Set:
  @DF-RHF Final Energy:  -349.37797564232568
    Total Energy =                       -349.3779756423259641
    Molecular point group: c1
  Basis Set: CC-PVTZ
  Basis Set:
  Basis Set: CC-PVTZ
  Basis Set:
  @DF-RHF Final Energy:  -349.37895245724229
    Total Energy =                       -349.3789524572420078
  Basis Set: CC-PVTZ
  Basis Set:
  Basis Set: CC-PVTZ
  Basis Set:
  @DF-RHF Final Energy:  -349.37928458916656
    Total Energy =                       -349.3792845891667866
  Basis Set: CC-PVTZ
  Basis Set:
  Basis Set: CC-PVTZ
  Basis Set:
  @DF-RHF Final Energy:  -349.37929028133010
    Total Energy =                       -349.3792902813295314
  Basis Set: CC-PVTZ
  Basis Set:
  Basis Set: CC-PVTZ
  Basis Set:
  @DF-RHF Final Energy:  -349.37929169119479
    Total Energy =                       -349.3792916911947941
  Basis Set: CC-PVTZ
  Basis Set:
  Charge       = 0
  Multiplicity = 1
  Basis Set: CC-PVTZ
  Basis Set:

    Orbital Energies (a.u.)
    -----------------------

    Doubly Occupied:

       1A    -20.545113     2A    -11.265996     3A    -11.212012
       4A    -11.210483     5A    -11.210051     6A    -11.209811
       7A    -11.209199     8A    -11.204619     9A     -1.362461
      10A     -1.089570    11A     -1.048958    12A     -0.986899
      13A     -0.916366    14A     -0.848589    15A     -0.792109
      16A     -0.776582    17A     -0.706720    18A     -0.645654
      19A     -0.631188    20A     -0.609018    21A     -0.597958
      22A     -0.580857    23A     -0.560494    24A     -0.539110
      25A     -0.515159    26A     -0.509404    27A     -0.497691
      28A     -0.472660    29A     -0.469268    30A     -0.460671
      31A     -0.456887    32A     -0.450859    33A     -0.420231

  @DF-RHF Final Energy:  -349.37929181066744

   => Energetics <=

    Nuclear Repulsion Energy =            384.8761736271148379
    One-Electron Energy =               -1236.4856305432570025
    Two-Electron Energy =                 502.2301651054750664
    DFT Exchange-Correlation Energy =       0.0000000000000000
    Empirical Dispersion Energy =           0.0000000000000000
    PCM Polarization Energy =               0.0000000000000000
    EFP Energy =                            0.0000000000000000
    Total Energy =                       -349.3792918106670413
    Molecular point group: c1
  Basis Set: CC-PVTZ
  Basis Set:

  -Total Gradient:
     Atom            X                  Y                   Z
    ------   -----------------  -----------------  -----------------
       1       -0.000351293995     0.000004011715     0.000080726310
       2        0.000505835954    -0.000017931982    -0.000138090999
       3       -0.000463463882     0.000051640920     0.000114009090
       4       -0.000021358717    -0.000001675039     0.000021842389
       5        0.000301251641    -0.000027455802    -0.000083018976
       6        0.000017196580    -0.000006241412     0.000008417900
       7       -0.000009128391     0.000000723113    -0.000015194643
       8       -0.000005646876    -0.000002375943     0.000000467481
       9        0.000010787759     0.000007773756    -0.000001355748
      10        0.000005031180    -0.000004775553     0.000005900462
      11        0.000000534870    -0.000003450434     0.000006466163
      12        0.000005775921     0.000008080250    -0.000002078751
      13        0.000002988899    -0.000010048565     0.000008534937
      14        0.000006781753     0.000008523491     0.000001748559
      15       -0.000000493097    -0.000000159818    -0.000002687583
      16        0.000008256998    -0.000004903066    -0.000015887006
      17        0.000000710813    -0.000006322077     0.000002789281
      18       -0.000000605784     0.000001155780     0.000003667394
      19       -0.000006153465    -0.000000447252     0.000004122141
      20        0.000003322456     0.000003594385    -0.000002279899
      21        0.000000592952    -0.000002776948    -0.000004344441
      22        0.000001649270    -0.000002953885     0.000002588208
      23       -0.000001212495     0.000001812674     0.000002665184
      24       -0.000011360336     0.000004201692     0.000000992547

  **** Optimization is complete! (in 6 steps) ****
    Final optimized geometry and variables:
    Molecular point group: c1

    Geometry (in Angstrom), charge = 0, multiplicity = 1:

    H           -3.523750769863    -0.476995146507    -1.569053009722
    O           -3.443297159264     0.266929025858    -1.004499917277
    C           -3.178284643977    -0.137572218110     0.317086626464
    C           -1.781562025886     0.268466562140     0.756346029207
    H           -3.300738198413    -1.212611210525     0.418014930575
    H           -3.913315948884     0.331749880236     0.960559318001
    C           -0.664315000684    -0.434558281141    -0.008258538987
    H           -1.686443942634     1.343758108059     0.638390103607
    H           -1.686845258693     0.059228957957     1.819448551499
    C            0.731712683068    -0.006207285972     0.436562052027
    H           -0.779011170552    -0.234832649602    -1.068661229329
    H           -0.765552372656    -1.510942851202     0.118285057079
    C            1.846019702151    -0.712417424694    -0.333245846027
    H            0.822072164650     1.068847462610     0.318197622402
    H            0.848798714963    -0.207868237362     1.499218789932
    C            3.263679747008    -0.373532231067     0.130926135957
    H            1.752197921385    -0.481499839576    -1.391980808653
    H            1.702971996632    -1.786066757737    -0.244360426540
    C            3.685007193709     1.074076779437    -0.109963807635
    H            3.959338238655    -1.028081548909    -0.385328972675
    H            3.359293230500    -0.605197847631     1.188566034095
    H            3.593050896212     1.336677520964    -1.159051052312
    H            4.718955482485     1.226347626312     0.178138484872
    H            3.083090290548     1.772081058555     0.459150299086

  Mulliken Charges: (a.u.)
   Center  Symbol    Alpha    Beta     Spin     Total
       1     H     0.39027  0.39027  0.00000  0.21946
       2     O     4.20894  4.20894  0.00000 -0.41789
       3     C     2.98306  2.98306  0.00000  0.03389
       4     C     3.08080  3.08080  0.00000 -0.16161
       5     H     0.46985  0.46985  0.00000  0.06030
       6     H     0.45309  0.45309  0.00000  0.09382
       7     C     3.09702  3.09702  0.00000 -0.19404
       8     H     0.45245  0.45245  0.00000  0.09509
       9     H     0.45564  0.45564  0.00000  0.08873
      10     C     3.09216  3.09216  0.00000 -0.18433
      11     H     0.45025  0.45025  0.00000  0.09950
      12     H     0.45824  0.45824  0.00000  0.08352
      13     C     3.09448  3.09448  0.00000 -0.18896
      14     H     0.45106  0.45106  0.00000  0.09788
      15     H     0.45590  0.45590  0.00000  0.08819
      16     C     3.09018  3.09018  0.00000 -0.18035
      17     H     0.45414  0.45414  0.00000  0.09173
      18     H     0.45087  0.45087  0.00000  0.09827
      19     C     3.15231  3.15231  0.00000 -0.30462
      20     H     0.44895  0.44895  0.00000  0.10209
      21     H     0.45521  0.45521  0.00000  0.08958
      22     H     0.45476  0.45476  0.00000  0.09048
      23     H     0.44683  0.44683  0.00000  0.10634
      24     H     0.45353  0.45353  0.00000  0.09293

   Total alpha = 33.00000, Total beta = 33.00000, Total charge =  0.00000

*** Psi4 exiting successfully. Buy a developer a beer!
