  ==> Input File <==

--------------------------------------------------------------------------
set {
	reference rhf
	basis 6-31G*
}

set_num_threads( 4 )
memory 2 gb

molecule MOL {
0 1

O	 3.507595	 0.297354	 -0.982102
C	 2.843464	 0.164689	 -0.000222
C	 1.546494	 -0.624492	 -0.000609
C	 3.256232	 0.781003	 1.320738
C	 0.291004	 0.242674	 0.000989
H	 1.557904	 -1.283758	 -0.867573
H	 1.558622	 -1.285963	 0.864672
C	 -0.994322	 -0.586602	 0.000262
H	 0.309117	 0.896430	 -0.865270
H	 0.309661	 0.894078	 0.869017
C	 -2.259874	 0.272531	 0.000494
H	 -1.004862	 -1.240012	 -0.870939
H	 -1.005220	 -1.241071	 0.870675
C	 -3.549786	 -0.549746	 -0.000374
H	 -2.250389	 0.926680	 -0.869574
H	 -2.250838	 0.925513	 0.871430
C	 -4.809590	 0.315458	 -0.000369
H	 -3.560515	 -1.202009	 -0.871156
H	 -3.561123	 -1.202955	 0.869711
H	 -4.844746	 0.956611	 -0.876632
H	 -5.706986	 -0.295590	 -0.001609
H	 -4.845960	 0.954827	 0.877144
H	 3.373560	 0.011223	 2.077898
H	 4.189502	 1.313063	 1.199270
H	 2.491522	 1.466555	 1.674111

	symmetry c1
}
set optking {
	frozen_dihedral = ("
		1 2 3 6
	")
}

ee = optimize('scf')
oeprop('DIPOLE', 'QUADRUPOLE', 'MULLIKEN_CHARGES')
f=open( 'psi4out.xyz', 'w' )
f.write( "25  " )
f.write( str(ee) + "\n" )
f.write( MOL.save_string_xyz() )
f.close()
--------------------------------------------------------------------------

    Molecular point group: c1
  Charge       = 0
  Multiplicity = 1
  Basis Set: 6-31G*
  Basis Set:
  @DF-RHF Final Energy:  -387.13358809861222
    Total Energy =                       -387.1335880986127904
    Molecular point group: c1
  Basis Set: 6-31G*
  Basis Set:
  Basis Set: 6-31G*
  Basis Set:
  @DF-RHF Final Energy:  -387.13420161261365
    Total Energy =                       -387.1342016126129693
  Basis Set: 6-31G*
  Basis Set:
  Basis Set: 6-31G*
  Basis Set:
  @DF-RHF Final Energy:  -387.13423526596233
    Total Energy =                       -387.1342352659627295
  Basis Set: 6-31G*
  Basis Set:
  Basis Set: 6-31G*
  Basis Set:
  @DF-RHF Final Energy:  -387.13380285633815
    Total Energy =                       -387.1338028563388889
  Basis Set: 6-31G*
  Basis Set:
  @DF-RHF Final Energy:  -387.13428709105824
    Total Energy =                       -387.1342870910580132
  @DF-RHF Final Energy:  -387.13429660086678
    Total Energy =                       -387.1342966008671738
  Basis Set: 6-31G*
  Basis Set:
  @DF-RHF Final Energy:  -387.13430610339350
    Total Energy =                       -387.1343061033927597
  Basis Set: 6-31G*
  Basis Set:
  Basis Set: 6-31G*
  Basis Set:
  @DF-RHF Final Energy:  -387.13430885956734
    Total Energy =                       -387.1343088595675681
  Basis Set: 6-31G*
  Basis Set:
  Basis Set: 6-31G*
  Basis Set:
  @DF-RHF Final Energy:  -387.13431035115929
    Total Energy =                       -387.1343103511596837
  Basis Set: 6-31G*
  Basis Set:
  Charge       = 0
  Multiplicity = 1
  Basis Set: 6-31G*
  Basis Set:

    Orbital Energies (a.u.)
    -----------------------

    Doubly Occupied:

       1A    -20.547599     2A    -11.324025     3A    -11.232073
       4A    -11.229188     5A    -11.227411     6A    -11.223422
       7A    -11.219681     8A    -11.219085     9A    -11.211739
      10A     -1.392889    11A     -1.100351    12A     -1.060185
      13A     -1.011948    14A     -0.970828    15A     -0.895478
      16A     -0.819522    17A     -0.796652    18A     -0.732499
      19A     -0.668691    20A     -0.647206    21A     -0.638344
      22A     -0.610458    23A     -0.606147    24A     -0.587989
      25A     -0.566823    26A     -0.558075    27A     -0.542578
      28A     -0.538518    29A     -0.509457    30A     -0.501921
      31A     -0.488034    32A     -0.479350    33A     -0.468907
      34A     -0.467990    35A     -0.454465    36A     -0.395706

  @DF-RHF Final Energy:  -387.13431064871526

   => Energetics <=

    Nuclear Repulsion Energy =            438.8398706460231438
    One-Electron Energy =               -1394.0578901690146267
    Two-Electron Energy =                 568.0837088742766809
    DFT Exchange-Correlation Energy =       0.0000000000000000
    Empirical Dispersion Energy =           0.0000000000000000
    PCM Polarization Energy =               0.0000000000000000
    EFP Energy =                            0.0000000000000000
    Total Energy =                       -387.1343106487147452
    Molecular point group: c1
  Basis Set: 6-31G*
  Basis Set:

  -Total Gradient:
     Atom            X                  Y                   Z
    ------   -----------------  -----------------  -----------------
       1        0.000469061664    -0.000739144861     0.000183648821
       2       -0.000762086112     0.001169759468    -0.000341488637
       3        0.000706503811    -0.001081275590     0.000627667777
       4        0.000006049040    -0.000004116015    -0.000000553265
       5        0.000008625921     0.000008666752    -0.000008596026
       6       -0.000428694517     0.000641698819    -0.000460526649
       7        0.000002280201     0.000013216215     0.000000675526
       8       -0.000002247066    -0.000013560429    -0.000008094264
       9        0.000008217856     0.000005832586     0.000003733509
      10        0.000007169922     0.000003124342    -0.000001317014
      11        0.000001615906     0.000001160327     0.000016832118
      12       -0.000009891307    -0.000007534020    -0.000002452583
      13       -0.000003239455     0.000001014612     0.000000388763
      14        0.000001047345    -0.000002483843    -0.000013683101
      15        0.000002932936    -0.000004971470     0.000003879986
      16       -0.000000411532     0.000004996420     0.000002386458
      17        0.000000429863     0.000000219671     0.000004954225
      18       -0.000000101448    -0.000001672524    -0.000002209814
      19       -0.000001615227     0.000001233570    -0.000002311829
      20       -0.000001469893    -0.000002951031    -0.000002041723
      21       -0.000000015375    -0.000000332438     0.000003578619
      22        0.000001837557     0.000002822460    -0.000002141819
      23        0.000003210595    -0.000001365805     0.000001078913
      24       -0.000002156598     0.000001320696    -0.000001091749
      25       -0.000007054091     0.000004342087    -0.000002316241

  **** Optimization is complete! (in 10 steps) ****
    Final optimized geometry and variables:
    Molecular point group: c1

    Geometry (in Angstrom), charge = 0, multiplicity = 1:

    O            3.458200500499     0.277984404213    -1.055986144090
    C            2.856249009054     0.127118582313    -0.036616190725
    C            1.581712823472    -0.695817584509     0.008731233641
    C            3.341590457099     0.738415762715     1.261167466052
    C            0.323264730106     0.187765062543    -0.002279431782
    H            1.580559841694    -1.335967659441    -0.865341717684
    H            1.579292957497    -1.323616586372     0.896560652853
    C           -0.966418437856    -0.634950886500    -0.017686820935
    H            0.354437362813     0.831607104755    -0.877423551961
    H            0.318982935175     0.842279353291     0.866085770004
    C           -2.228330812424     0.229314442120    -0.036552505145
    H           -0.963403644840    -1.288305608021    -0.887722509296
    H           -0.987981720028    -1.286344033622     0.854263200696
    C           -3.520268590359    -0.589733728127    -0.056539597752
    H           -2.204071694561     0.882432913999    -0.907050983144
    H           -2.231476557960     0.882639958674     0.834495407779
    C           -4.777304158930     0.279178096501    -0.075533760246
    H           -3.519289082261    -1.241752070460    -0.927314582304
    H           -3.546166868335    -1.242650520402     0.813337735750
    H           -4.798354976237     0.919024577380    -0.953144377997
    H           -5.675933772482    -0.329662612477    -0.088800210238
    H           -4.824706122889     0.919672423891     0.800674859095
    H            3.692970700985    -0.050811615461     1.920859911959
    H            4.155523087889     1.421297491525     1.061126774779
    H            2.543721173832     1.259444188454     1.779710498447

  Mulliken Charges: (a.u.)
   Center  Symbol    Alpha    Beta     Spin     Total
       1     O     4.26071  4.26071  0.00000 -0.52141
       2     C     2.73652  2.73652  0.00000  0.52696
       3     C     3.20150  3.20150  0.00000 -0.40301
       4     C     3.28975  3.28975  0.00000 -0.57951
       5     C     3.16417  3.16417  0.00000 -0.32834
       6     H     0.39994  0.39994  0.00000  0.20011
       7     H     0.41572  0.41572  0.00000  0.16855
       8     C     3.15170  3.15170  0.00000 -0.30341
       9     H     0.40985  0.40985  0.00000  0.18029
      10     H     0.42014  0.42014  0.00000  0.15972
      11     C     3.15166  3.15166  0.00000 -0.30332
      12     H     0.41939  0.41939  0.00000  0.16123
      13     H     0.42270  0.42270  0.00000  0.15460
      14     C     3.15197  3.15197  0.00000 -0.30395
      15     H     0.42170  0.42170  0.00000  0.15660
      16     H     0.42384  0.42384  0.00000  0.15231
      17     C     3.23958  3.23958  0.00000 -0.47915
      18     H     0.42192  0.42192  0.00000  0.15616
      19     H     0.42293  0.42293  0.00000  0.15413
      20     H     0.42096  0.42096  0.00000  0.15809
      21     H     0.41855  0.41855  0.00000  0.16291
      22     H     0.42170  0.42170  0.00000  0.15661
      23     H     0.40677  0.40677  0.00000  0.18645
      24     H     0.39672  0.39672  0.00000  0.20656
      25     H     0.40959  0.40959  0.00000  0.18082

   Total alpha = 36.00000, Total beta = 36.00000, Total charge =  0.00000
