                              Psi4 1.0.54 Driver

  ==> Input File <==

--------------------------------------------------------------------------
set {
	reference rhf
	basis cc-pvtz
}

set_num_threads( 4 )
memory 2 gb

molecule MOL {
0 1

O	 -2.440701	 -0.934798	 -0.415053
C	 -1.922978	 0.063265	 -0.045005
C	 -2.632749	 1.372204	 0.158357
O	 -0.637375	 0.157174	 0.243149
H	 -2.187724	 2.129143	 -0.474664
H	 -3.677681	 1.257276	 -0.079438
H	 -2.516788	 1.693160	 1.185542
C	 0.162530	 -1.009518	 0.097799
C	 1.587210	 -0.664190	 0.477086
H	 0.096803	 -1.356267	 -0.924704
H	 -0.233803	 -1.785900	 0.736810
C	 1.840599	 0.829075	 0.666080
H	 2.232522	 -1.045739	 -0.309507
H	 1.849738	 -1.201307	 1.383409
C	 3.291415	 1.139390	 1.018860
H	 1.570484	 1.354505	 -0.246094
H	 1.189125	 1.208627	 1.444774
H	 3.444187	 2.205032	 1.143180
H	 3.967220	 0.796986	 0.242047
H	 3.581010	 0.653983	 1.944890

	symmetry c1
}
set optking {
	frozen_dihedral = ("
		12 9 8 10
	")
}

ee,wfn = optimize('scf', return_wfn=True)
oeprop( wfn, 'DIPOLE', 'QUADRUPOLE', 'MULLIKEN_CHARGES')
f=open( 'psi4out.xyz', 'w' )
f.write( "20  " )
f.write( str(ee) + "\n" )
f.write( MOL.save_string_xyz() )
f.close()
--------------------------------------------------------------------------

    Molecular point group: c1
  Charge       = 0
  Multiplicity = 1
  Basis Set: CC-PVTZ
  Basis Set:
  @DF-RHF Final Energy:  -384.07781529690186
    Total Energy =                       -384.0778152969021448
    Molecular point group: c1
  Basis Set: CC-PVTZ
  Basis Set:
  Basis Set: CC-PVTZ
  Basis Set:
  @DF-RHF Final Energy:  -384.07805234049869
    Total Energy =                       -384.0780523404988571
  Basis Set: CC-PVTZ
  Basis Set:
  Basis Set: CC-PVTZ
  Basis Set:
  @DF-RHF Final Energy:  -384.07927252129537
    Total Energy =                       -384.0792725212953656
  Basis Set: CC-PVTZ
  Basis Set:
  Basis Set: CC-PVTZ
  Basis Set:
  @DF-RHF Final Energy:  -384.07909874333382
    Total Energy =                       -384.0790987433340433
  Basis Set: CC-PVTZ
  Basis Set:
  Basis Set: CC-PVTZ
  Basis Set:
  @DF-RHF Final Energy:  -384.07935546915763
    Total Energy =                       -384.0793554691581448
  Basis Set: CC-PVTZ
  Basis Set:
  Basis Set: CC-PVTZ
  Basis Set:
  @DF-RHF Final Energy:  -384.07935973797038
    Total Energy =                       -384.0793597379702078
  Basis Set: CC-PVTZ
  Basis Set:
  Charge       = 0
  Multiplicity = 1
  Basis Set: CC-PVTZ
  Basis Set:

    Orbital Energies (a.u.)
    -----------------------

    Doubly Occupied:

       1A    -20.594707     2A    -20.532982     3A    -11.366946
       4A    -11.280477     5A    -11.231893     6A    -11.224000
       7A    -11.217861     8A    -11.210405     9A     -1.471719
      10A     -1.365687    11A     -1.082721    12A     -1.029100
      13A     -0.980113    14A     -0.882271    15A     -0.819401
      16A     -0.763104    17A     -0.692847    18A     -0.692171
      19A     -0.670824    20A     -0.635794    21A     -0.594809
      22A     -0.594414    23A     -0.574335    24A     -0.547923
      25A     -0.546365    26A     -0.535733    27A     -0.507900
      28A     -0.483499    29A     -0.479392    30A     -0.469633
      31A     -0.445315    32A     -0.442387

  @DF-RHF Final Energy:  -384.07935974246323

   => Energetics <=

    Nuclear Repulsion Energy =            386.9206317116688751
    One-Electron Energy =               -1290.0665311317766282
    Two-Electron Energy =                 519.0665396776446414
    DFT Exchange-Correlation Energy =       0.0000000000000000
    Empirical Dispersion Energy =           0.0000000000000000
    PCM Polarization Energy =               0.0000000000000000
    EFP Energy =                            0.0000000000000000
    Total Energy =                       -384.0793597424631116
    Molecular point group: c1
  Basis Set: CC-PVTZ
  Basis Set:

  -Total Gradient:
     Atom            X                  Y                   Z
    ------   -----------------  -----------------  -----------------
       1       -0.000017594244    -0.000015987259     0.000008043864
       2        0.000087569645     0.000028033156    -0.000028631441
       3        0.000023839694    -0.000015427892     0.000027682013
       4       -0.000164317278     0.000068625979     0.000030265801
       5        0.000004854336    -0.000018571285     0.000000192879
       6        0.000006062590    -0.000014507171    -0.000003806644
       7        0.000000135062     0.000008840370    -0.000004374589
       8       -0.000890483307     0.003904439117    -0.000187465765
       9        0.001041909596    -0.000454824186    -0.003217297741
      10        0.000498562031    -0.003228576940     0.000997540082
      11       -0.000005034054     0.000002185616    -0.000001577786
      12       -0.000557244994    -0.000223604148     0.002324066311
      13        0.000002590983     0.000013299046     0.000007362749
      14        0.000014890127     0.000006951003    -0.000016122258
      15       -0.000032101088    -0.000028955157     0.000040534340
      16        0.000020832623    -0.000024252101     0.000021606881
      17        0.000001010741     0.000007555599    -0.000000324186
      18       -0.000024568075    -0.000015695436     0.000000502804
      19       -0.000023303040     0.000005051658    -0.000003423723
      20        0.000012388649    -0.000004579974     0.000005226405

  **** Optimization is complete! (in 7 steps) ****
    Final optimized geometry and variables:
    Molecular point group: c1

    Geometry (in Angstrom), charge = 0, multiplicity = 1:

    O           -2.334449380739    -1.093494711290    -0.729816212990
    C           -1.862898721528    -0.087261496844    -0.322357294794
    C           -2.631638985966     1.179429864930    -0.072855317542
    O           -0.583007140584     0.056225435227    -0.030006824531
    H           -2.219741079099     1.978879584831    -0.675139090558
    H           -3.669703499811     1.026189342241    -0.319012355001
    H           -2.533100283431     1.466193152898     0.966161664051
    C            0.265509204346    -1.066182646838    -0.219039747356
    C            1.710575551275    -0.728930272842     0.181692485981
    H            0.206993136289    -1.386453430240    -1.249036814829
    H           -0.114494427812    -1.883325536932     0.376668315351
    C            2.019114438436     0.748592327802     0.421168386648
    H            2.372450729807    -1.111514574798    -0.587525278705
    H            1.956619143508    -1.273866048092     1.087013696968
    C            3.485532099722     0.971170669605     0.775756281679
    H            1.768517597776     1.326422721230    -0.462031681209
    H            1.391295915632     1.125670603908     1.218518648109
    H            3.687325607410     2.021102040287     0.953042972516
    H            4.139575917148     0.639546165263    -0.023878885985
    H            3.760317933767     0.426289081591     1.673001143395

  Mulliken Charges: (a.u.)
   Center  Symbol    Alpha    Beta     Spin     Total
       1     O     4.19769  4.19769  0.00000 -0.39537
       2     C     2.81130  2.81130  0.00000  0.37740
       3     C     3.13827  3.13827  0.00000 -0.27654
       4     O     4.14659  4.14659  0.00000 -0.29318
       5     H     0.44593  0.44593  0.00000  0.10814
       6     H     0.43750  0.43750  0.00000  0.12500
       7     H     0.44606  0.44606  0.00000  0.10787
       8     C     2.98359  2.98359  0.00000  0.03282
       9     C     3.10424  3.10424  0.00000 -0.20847
      10     H     0.45168  0.45168  0.00000  0.09664
      11     H     0.45029  0.45029  0.00000  0.09942
      12     C     3.07429  3.07429  0.00000 -0.14858
      13     H     0.44983  0.44983  0.00000  0.10034
      14     H     0.45072  0.45072  0.00000  0.09857
      15     C     3.15228  3.15228  0.00000 -0.30456
      16     H     0.45216  0.45216  0.00000  0.09567
      17     H     0.44932  0.44932  0.00000  0.10137
      18     H     0.44741  0.44741  0.00000  0.10519
      19     H     0.45552  0.45552  0.00000  0.08895
      20     H     0.45532  0.45532  0.00000  0.08935

   Total alpha = 32.00000, Total beta = 32.00000, Total charge =  0.00000

*** Psi4 exiting successfully. Buy a developer a beer!
