  ==> Input File <==

--------------------------------------------------------------------------
set {
	reference rhf
	basis 6-31G*
}

set_num_threads( 1 )
memory 2 gb

molecule MOL {
0 1

O	 3.225979	 0.970355	 -0.599647
C	 2.701189	 0.057885	 -0.047330
C	 1.245376	 -0.013843	 0.345420
O	 3.347903	 -1.046386	 0.304773
C	 0.455112	 1.231400	 -0.050772
H	 0.838542	 -0.913825	 -0.103701
H	 1.208210	 -0.175333	 1.419774
C	 -0.998893	 1.219485	 0.433193
H	 0.482531	 1.345121	 -1.130325
H	 0.957290	 2.103070	 0.354729
C	 -1.301587	 2.175131	 1.590874
H	 -1.241297	 0.206643	 0.746429
H	 -1.660886	 1.443117	 -0.402131
C	 -2.735417	 2.046529	 2.109133
H	 -0.605986	 1.981222	 2.405955
H	 -1.130961	 3.203906	 1.281873
C	 -3.050811	 3.000451	 3.262688
H	 -2.910301	 1.021994	 2.433137
H	 -3.431453	 2.229771	 1.292031
C	 -4.483417	 2.863004	 3.776935
H	 -2.355551	 2.819378	 4.079675
H	 -2.880774	 4.025317	 2.939396
H	 -4.676387	 3.551696	 4.593680
H	 -4.674674	 1.857241	 4.140330
H	 -5.203848	 3.071886	 2.991045
C	 4.728119	 -1.109107	 -0.004993
H	 4.882018	 -1.033965	 -1.071845
H	 5.068212	 -2.067527	 0.355250
H	 5.265056	 -0.311663	 0.488280

	symmetry c1
}
set optking {
	frozen_dihedral = ("
		21 17 14 11,
		17 14 11 15,
		15 11 8 5,
		6 3 5 9,
		2 4 26 27,
		1 2 4 26,
		6 3 2 1
	")
}

ee = energy('scf')
oeprop('DIPOLE', 'QUADRUPOLE', 'MULLIKEN_CHARGES')
f=open( 'psi4out.xyz', 'w' )
f.write( "29  " )
f.write( str(ee) + "\n" )
f.write( MOL.save_string_xyz() )
f.close()
--------------------------------------------------------------------------

    Molecular point group: c1

    Geometry (in Angstrom), charge = 0, multiplicity = 1:

       Center              X                  Y                   Z               Mass
    ------------   -----------------  -----------------  -----------------  -----------------
           O          2.899034069356    -0.047687560420    -1.606970125851    15.994914619560
           C          2.374244069356    -0.960157560420    -1.054653125851    12.000000000000
           C          0.918431069356    -1.031885560420    -0.661903125851    12.000000000000
           O          3.020958069356    -2.064428560420    -0.702550125851    15.994914619560
           C          0.128167069356     0.213357439580    -1.058095125851    12.000000000000
           H          0.511597069356    -1.931867560420    -1.111024125851     1.007825032070
           H          0.881265069356    -1.193375560420     0.412450874149     1.007825032070
           C         -1.325837930644     0.201442439580    -0.574130125851    12.000000000000
           H          0.155586069356     0.327078439580    -2.137648125851     1.007825032070
           H          0.630345069356     1.085027439580    -0.652594125851     1.007825032070
           C         -1.628531930644     1.157088439580     0.583550874149    12.000000000000
           H         -1.568241930644    -0.811399560420    -0.260894125851     1.007825032070
           H         -1.987830930644     0.425074439580    -1.409454125851     1.007825032070
           C         -3.062361930644     1.028486439580     1.101809874149    12.000000000000
           H         -0.932930930644     0.963179439580     1.398631874149     1.007825032070
           H         -1.457905930644     2.185863439580     0.274549874149     1.007825032070
           C         -3.377755930644     1.982408439580     2.255364874149    12.000000000000
           H         -3.237245930644     0.003951439580     1.425813874149     1.007825032070
           H         -3.758397930644     1.211728439580     0.284707874149     1.007825032070
           C         -4.810361930644     1.844961439580     2.769611874149    12.000000000000
           H         -2.682495930644     1.801335439580     3.072351874149     1.007825032070
           H         -3.207718930644     3.007274439580     1.932072874149     1.007825032070
           H         -5.003331930644     2.533653439580     3.586356874149     1.007825032070
           H         -5.001618930644     0.839198439580     3.133006874149     1.007825032070
           H         -5.530792930644     2.053843439580     1.983721874149     1.007825032070
           C          4.401174069356    -2.127149560420    -1.012316125851    12.000000000000
           H          4.555073069356    -2.052007560420    -2.079168125851     1.007825032070
           H          4.741267069356    -3.085569560420    -0.652073125851     1.007825032070
           H          4.938111069356    -1.329705560420    -0.519043125851     1.007825032070

  Charge       = 0
  Multiplicity = 1
  Basis Set: 6-31G*
  Basis Set:

    Orbital Energies (a.u.)
    -----------------------

    Doubly Occupied:

       1A    -20.603469     2A    -20.545363     3A    -11.371953
       4A    -11.280750     5A    -11.235995     6A    -11.217609
       7A    -11.216240     8A    -11.215447     9A    -11.215132
      10A    -11.213495    11A    -11.208555    12A     -1.469189
      13A     -1.362618    14A     -1.096905    15A     -1.067054
      16A     -1.019922    17A     -0.977382    18A     -0.927564
      19A     -0.858091    20A     -0.799990    21A     -0.790305
      22A     -0.766631    23A     -0.699788    24A     -0.682489
      25A     -0.672391    26A     -0.650561    27A     -0.628588
      28A     -0.601960    29A     -0.595816    30A     -0.581915
      31A     -0.566008    32A     -0.548312    33A     -0.532760
      34A     -0.529582    35A     -0.515096    36A     -0.506712
      37A     -0.499983    38A     -0.475931    39A     -0.468742
      40A     -0.461581    41A     -0.460040    42A     -0.456088
      43A     -0.441552    44A     -0.432963

  @DF-RHF Final Energy:  -501.04008354581219

   => Energetics <=

    Nuclear Repulsion Energy =            606.1952714158555864
    One-Electron Energy =               -1883.5337590775500303
    Two-Electron Energy =                 776.2984041158831587
    DFT Exchange-Correlation Energy =       0.0000000000000000
    Empirical Dispersion Energy =           0.0000000000000000
    PCM Polarization Energy =               0.0000000000000000
    EFP Energy =                            0.0000000000000000
    Total Energy =                       -501.0400835458112851

  Mulliken Charges: (a.u.)
   Center  Symbol    Alpha    Beta     Spin     Total
       1     O     4.28569  4.28569  0.00000 -0.57137
       2     C     2.60580  2.60580  0.00000  0.78839
       3     C     3.21010  3.21010  0.00000 -0.42019
       4     O     4.30756  4.30756  0.00000 -0.61511
       5     C     3.15546  3.15546  0.00000 -0.31092
       6     H     0.39983  0.39983  0.00000  0.20033
       7     H     0.40075  0.40075  0.00000  0.19849
       8     C     3.15799  3.15799  0.00000 -0.31599
       9     H     0.41041  0.41041  0.00000  0.17919
      10     H     0.40818  0.40818  0.00000  0.18363
      11     C     3.15359  3.15359  0.00000 -0.30719
      12     H     0.42294  0.42294  0.00000  0.15412
      13     H     0.41831  0.41831  0.00000  0.16339
      14     C     3.15150  3.15150  0.00000 -0.30299
      15     H     0.42469  0.42469  0.00000  0.15062
      16     H     0.42064  0.42064  0.00000  0.15872
      17     C     3.15147  3.15147  0.00000 -0.30294
      18     H     0.42429  0.42429  0.00000  0.15143
      19     H     0.42358  0.42358  0.00000  0.15285
      20     C     3.23926  3.23926  0.00000 -0.47852
      21     H     0.42322  0.42322  0.00000  0.15356
      22     H     0.42268  0.42268  0.00000  0.15464
      23     H     0.41924  0.41924  0.00000  0.16152
      24     H     0.42200  0.42200  0.00000  0.15600
      25     H     0.42172  0.42172  0.00000  0.15657
      26     C     3.09242  3.09242  0.00000 -0.18485
      27     H     0.40906  0.40906  0.00000  0.18188
      28     H     0.40851  0.40851  0.00000  0.18298
      29     H     0.40912  0.40912  0.00000  0.18176

   Total alpha = 44.00000, Total beta = 44.00000, Total charge = -0.00000
