  ==> Input File <==

--------------------------------------------------------------------------
set {
	reference rhf
	basis 6-31G*
}

set_num_threads( 1 )
memory 2 gb

molecule MOL {
0 1

H	 3.893188	 0.355400	 -0.101367
N	 3.092854	 -0.246221	 -0.068770
C	 1.865559	 0.531981	 0.018834
H	 3.199514	 -0.826043	 0.741946
C	 0.645745	 -0.382037	 -0.029944
H	 1.841966	 1.207024	 -0.831236
H	 1.815756	 1.155410	 0.915079
C	 -0.679275	 0.379305	 0.025956
H	 0.698998	 -0.976915	 -0.937203
H	 0.693479	 -1.083846	 0.802235
C	 -0.521049	 1.882481	 -0.210267
H	 -1.147583	 0.217690	 0.995707
H	 -1.365439	 -0.028381	 -0.714866
C	 -1.847035	 2.639829	 -0.149473
H	 0.163061	 2.292230	 0.529539
H	 -0.055677	 2.047175	 -1.179783
H	 -2.321287	 2.522666	 0.820926
H	 -1.701947	 3.702107	 -0.320115
H	 -2.541509	 2.275952	 -0.901597

	symmetry c1
}
set optking {
	frozen_dihedral = ("
		6 3 5 9,
		12 8 11 15,
		1 2 3 6
	")
}

ee = energy('scf')
oeprop('DIPOLE', 'QUADRUPOLE', 'MULLIKEN_CHARGES')
f=open( 'psi4out.xyz', 'w' )
f.write( "19  " )
f.write( str(ee) + "\n" )
f.write( MOL.save_string_xyz() )
f.close()
--------------------------------------------------------------------------

    Molecular point group: c1

    Geometry (in Angstrom), charge = 0, multiplicity = 1:

       Center              X                  Y                   Z               Mass
    ------------   -----------------  -----------------  -----------------  -----------------
           H          3.433119797274    -0.449744609292    -0.040705949271     1.007825032070
           N          2.632785797274    -1.051365609292    -0.008108949271    14.003074004780
           C          1.405490797274    -0.273163609292     0.079495050729    12.000000000000
           H          2.739445797274    -1.631187609292     0.802607050729     1.007825032070
           C          0.185676797274    -1.187181609292     0.030717050729    12.000000000000
           H          1.381897797274     0.401879390708    -0.770574949271     1.007825032070
           H          1.355687797274     0.350265390708     0.975740050729     1.007825032070
           C         -1.139343202726    -0.425839609292     0.086617050729    12.000000000000
           H          0.238929797274    -1.782059609292    -0.876541949271     1.007825032070
           H          0.233410797274    -1.888990609292     0.862896050729     1.007825032070
           C         -0.981117202726     1.077336390708    -0.149605949271    12.000000000000
           H         -1.607651202726    -0.587454609292     1.056368050729     1.007825032070
           H         -1.825507202726    -0.833525609292    -0.654204949271     1.007825032070
           C         -2.307103202726     1.834684390708    -0.088811949271    12.000000000000
           H         -0.297007202726     1.487085390708     0.590200050729     1.007825032070
           H         -0.515745202726     1.242030390708    -1.119121949271     1.007825032070
           H         -2.781355202726     1.717521390708     0.881587050729     1.007825032070
           H         -2.162015202726     2.896962390708    -0.259453949271     1.007825032070
           H         -3.001577202726     1.470807390708    -0.840935949271     1.007825032070

  Charge       = 0
  Multiplicity = 1
  Basis Set: 6-31G*
  Basis Set:

    Orbital Energies (a.u.)
    -----------------------

    Doubly Occupied:

       1A    -15.531229     2A    -11.238012     3A    -11.213408
       4A    -11.211471     5A    -11.208106     6A    -11.207242
       7A     -1.175932     8A     -1.075456     9A     -0.994552
      10A     -0.896973    11A     -0.841719    12A     -0.762424
      13A     -0.666173    14A     -0.643220    15A     -0.614177
      16A     -0.589721    17A     -0.572599    18A     -0.551879
      19A     -0.520788    20A     -0.503677    21A     -0.493951
      22A     -0.461270    23A     -0.451412    24A     -0.443672
      25A     -0.378403

  @DF-RHF Final Energy:  -251.33872083873968

   => Energetics <=

    Nuclear Repulsion Energy =            252.4509914748348933
    One-Electron Energy =                -839.0845071442786320
    Two-Electron Energy =                 335.2947948307043475
    DFT Exchange-Correlation Energy =       0.0000000000000000
    Empirical Dispersion Energy =           0.0000000000000000
    PCM Polarization Energy =               0.0000000000000000
    EFP Energy =                            0.0000000000000000
    Total Energy =                       -251.3387208387394480

  Mulliken Charges: (a.u.)
   Center  Symbol    Alpha    Beta     Spin     Total
       1     H     0.33291  0.33291  0.00000  0.33417
       2     N     3.92246  3.92246  0.00000 -0.84492
       3     C     3.06539  3.06539  0.00000 -0.13079
       4     H     0.33589  0.33589  0.00000  0.32822
       5     C     3.15463  3.15463  0.00000 -0.30927
       6     H     0.41792  0.41792  0.00000  0.16416
       7     H     0.43296  0.43296  0.00000  0.13408
       8     C     3.15565  3.15565  0.00000 -0.31129
       9     H     0.41126  0.41126  0.00000  0.17749
      10     H     0.42493  0.42493  0.00000  0.15015
      11     C     3.16134  3.16134  0.00000 -0.32268
      12     H     0.42251  0.42251  0.00000  0.15498
      13     H     0.41965  0.41965  0.00000  0.16070
      14     C     3.23646  3.23646  0.00000 -0.47292
      15     H     0.42071  0.42071  0.00000  0.15858
      16     H     0.42082  0.42082  0.00000  0.15836
      17     H     0.42244  0.42244  0.00000  0.15511
      18     H     0.42013  0.42013  0.00000  0.15974
      19     H     0.42194  0.42194  0.00000  0.15611

   Total alpha = 25.00000, Total beta = 25.00000, Total charge =  0.00000
