                              Psi4 1.0.54 Driver

  ==> Input File <==

--------------------------------------------------------------------------
set {
	reference rhf
	basis cc-pvtz
}

set_num_threads( 4 )
memory 2 gb

molecule MOL {
0 1

O	 -1.278239	 1.034789	 -0.784693
C	 -1.204115	 0.062668	 -0.112312
C	 -2.386398	 -0.667698	 0.460323
O	 -0.068058	 -0.518372	 0.226882
H	 -2.382952	 -1.693172	 0.114333
H	 -3.296656	 -0.175702	 0.158400
H	 -2.312537	 -0.685191	 1.540100
C	 1.169086	 0.037484	 -0.230612
C	 1.091915	 0.055554	 -1.744161
C	 2.330407	 -0.786988	 0.294921
H	 1.240093	 1.045399	 0.149063
H	 0.249386	 0.647963	 -2.077245
H	 1.996976	 0.484964	 -2.156695
H	 0.979798	 -0.948718	 -2.135063
H	 3.267461	 -0.374636	 -0.060601
H	 2.347407	 -0.781137	 1.375812
H	 2.255516	 -1.811951	 -0.050227

	symmetry c1
}
set optking {
	frozen_dihedral = ("
		11 8 4 2
	")
}

ee,wfn = optimize('scf', return_wfn=True)
oeprop( wfn, 'DIPOLE', 'QUADRUPOLE', 'MULLIKEN_CHARGES')
f=open( 'psi4out.xyz', 'w' )
f.write( "17  " )
f.write( str(ee) + "\n" )
f.write( MOL.save_string_xyz() )
f.close()
--------------------------------------------------------------------------

    Molecular point group: c1
  Charge       = 0
  Multiplicity = 1
  Basis Set: CC-PVTZ
  Basis Set:
  @DF-RHF Final Energy:  -345.03410285767256
    Total Energy =                       -345.0341028576729627
    Molecular point group: c1
  Basis Set: CC-PVTZ
  Basis Set:
  Basis Set: CC-PVTZ
  Basis Set:
  @DF-RHF Final Energy:  -345.04049248265846
    Total Energy =                       -345.0404924826585216
  Basis Set: CC-PVTZ
  Basis Set:
  Basis Set: CC-PVTZ
  Basis Set:
  @DF-RHF Final Energy:  -345.04124694837765
    Total Energy =                       -345.0412469483775908
  Basis Set: CC-PVTZ
  Basis Set:
  Basis Set: CC-PVTZ
  Basis Set:
  @DF-RHF Final Energy:  -345.03989205044383
    Total Energy =                       -345.0398920504442231
  Basis Set: CC-PVTZ
  Basis Set:
  @DF-RHF Final Energy:  -345.04134266885836
    Total Energy =                       -345.0413426688584195
  Basis Set: CC-PVTZ
  Basis Set:
  @DF-RHF Final Energy:  -345.04135280435997
    Total Energy =                       -345.0413528043599172
  Basis Set: CC-PVTZ
  Basis Set:
  Basis Set: CC-PVTZ
  Basis Set:
  @DF-RHF Final Energy:  -345.04135467754043
    Total Energy =                       -345.0413546775403120
  Basis Set: CC-PVTZ
  Basis Set:
  Basis Set: CC-PVTZ
  Basis Set:
  @DF-RHF Final Energy:  -345.04135641194381
    Total Energy =                       -345.0413564119437524
  Basis Set: CC-PVTZ
  Basis Set:
  Charge       = 0
  Multiplicity = 1
  Basis Set: CC-PVTZ
  Basis Set:

    Orbital Energies (a.u.)
    -----------------------

    Doubly Occupied:

       1A    -20.591173     2A    -20.531350     3A    -11.366585
       4A    -11.290774     5A    -11.230317     6A    -11.217195
       7A    -11.212283     8A     -1.467724     9A     -1.364730
      10A     -1.079930    11A     -1.005432    12A     -0.947761
      13A     -0.852810    14A     -0.760909    15A     -0.694457
      16A     -0.677488    17A     -0.661414    18A     -0.616421
      19A     -0.586519    20A     -0.579047    21A     -0.557523
      22A     -0.549870    23A     -0.540487    24A     -0.520785
      25A     -0.503385    26A     -0.483924    27A     -0.451803
      28A     -0.436717

  @DF-RHF Final Energy:  -345.04135735160611

   => Energetics <=

    Nuclear Repulsion Energy =            324.3158989676317674
    One-Electron Energy =               -1113.1568843997315525
    Two-Electron Energy =                 443.7996280804935054
    DFT Exchange-Correlation Energy =       0.0000000000000000
    Empirical Dispersion Energy =           0.0000000000000000
    PCM Polarization Energy =               0.0000000000000000
    EFP Energy =                            0.0000000000000000
    Total Energy =                       -345.0413573516063366
    Molecular point group: c1
  Basis Set: CC-PVTZ
  Basis Set:

  -Total Gradient:
     Atom            X                  Y                   Z
    ------   -----------------  -----------------  -----------------
       1       -0.000021899534    -0.000080092321     0.000066817795
       2       -0.000597948182    -0.002386696605    -0.003614014890
       3        0.000029414519     0.000015692741    -0.000097101437
       4        0.001538439124     0.003320509729     0.006257497431
       5        0.000021303309    -0.000072917250    -0.000023925505
       6       -0.000081529489     0.000027466565     0.000004842634
       7        0.000026374992     0.000019388238     0.000084605951
       8       -0.003487749816     0.000803901640    -0.006516178057
       9        0.000135976435     0.000017454258    -0.000052327650
      10       -0.000079337426    -0.000069745436     0.000027194828
      11        0.002486384393    -0.001612061167     0.003892813441
      12        0.000010377701     0.000008013888    -0.000012008816
      13        0.000007958910     0.000012460733    -0.000017987864
      14       -0.000004734843    -0.000017040652    -0.000001385686
      15        0.000008801706     0.000004842058    -0.000014911414
      16        0.000009695962     0.000001826791     0.000009154251
      17       -0.000001527759     0.000006996792     0.000006914985

  **** Optimization is complete! (in 9 steps) ****
    Final optimized geometry and variables:
    Molecular point group: c1

    Geometry (in Angstrom), charge = 0, multiplicity = 1:

    O           -1.292972467864     1.218612609549    -0.355984337513
    C           -1.165704621646     0.190672002421     0.217536093386
    C           -2.304957320854    -0.625665594983     0.761304900006
    O           -0.001887423867    -0.375062749416     0.479778028615
    H           -2.311033885823    -1.598692141226     0.286556199942
    H           -3.236630618569    -0.116528335812     0.574757553388
    H           -2.168361554328    -0.779684846078     1.823817853261
    C            1.209289483121     0.165448355377    -0.059677320636
    C            1.236633011609     0.120544934843    -1.577075155588
    C            2.317756136547    -0.670288317060     0.555575917859
    H            1.306914356659     1.179887758850     0.303817028342
    H            0.475494361095     0.748267603610    -2.011136869663
    H            2.203792102327     0.463603713923    -1.925238506579
    H            1.096773797720    -0.897939938590    -1.923159113569
    H            3.284155060265    -0.290216852197     0.247323094158
    H            2.264916500724    -0.637274981231     1.636104960166
    H            2.238617819941    -1.704041176896     0.240954128291

  Mulliken Charges: (a.u.)
   Center  Symbol    Alpha    Beta     Spin     Total
       1     O     4.19944  4.19944  0.00000 -0.39888
       2     C     2.80652  2.80652  0.00000  0.38695
       3     C     3.13801  3.13801  0.00000 -0.27603
       4     O     4.16163  4.16163  0.00000 -0.32326
       5     H     0.44696  0.44696  0.00000  0.10607
       6     H     0.43844  0.43844  0.00000  0.12313
       7     H     0.44521  0.44521  0.00000  0.10958
       8     C     2.92791  2.92791  0.00000  0.14419
       9     C     3.16207  3.16207  0.00000 -0.32414
      10     C     3.13908  3.13908  0.00000 -0.27816
      11     H     0.44709  0.44709  0.00000  0.10582
      12     H     0.43049  0.43049  0.00000  0.13901
      13     H     0.44913  0.44913  0.00000  0.10173
      14     H     0.45405  0.45405  0.00000  0.09191
      15     H     0.45479  0.45479  0.00000  0.09042
      16     H     0.44640  0.44640  0.00000  0.10721
      17     H     0.45278  0.45278  0.00000  0.09445

   Total alpha = 28.00000, Total beta = 28.00000, Total charge = -0.00000

*** Psi4 exiting successfully. Buy a developer a beer!
