                              Psi4 1.0.54 Driver

  ==> Input File <==

--------------------------------------------------------------------------
set {
	reference rhf
	basis cc-pvtz
}

set_num_threads( 4 )
memory 2 gb

molecule MOL {
0 1

O	 -1.278239	 1.034789	 -0.784693
C	 -1.204115	 0.062668	 -0.112312
C	 -2.386398	 -0.667698	 0.460323
O	 -0.068058	 -0.518372	 0.226882
H	 -2.382952	 -1.693172	 0.114333
H	 -3.296656	 -0.175702	 0.158400
H	 -2.312537	 -0.685191	 1.540100
C	 0.801811	 -1.011450	 -0.797328
C	 1.599956	 -2.136998	 -0.170257
C	 1.674252	 0.115797	 -1.319600
H	 0.187441	 -1.394011	 -1.598130
H	 0.942189	 -2.915953	 0.193504
H	 2.270425	 -2.569463	 -0.903166
H	 2.190602	 -1.771981	 0.661510
H	 2.342085	 -0.258451	 -2.086697
H	 1.069524	 0.900670	 -1.751952
H	 2.273896	 0.534148	 -0.519167

	symmetry c1
}
set optking {
	frozen_dihedral = ("
		8 4 2 1
	")
}

ee,wfn = optimize('scf', return_wfn=True)
oeprop( wfn, 'DIPOLE', 'QUADRUPOLE', 'MULLIKEN_CHARGES')
f=open( 'psi4out.xyz', 'w' )
f.write( "17  " )
f.write( str(ee) + "\n" )
f.write( MOL.save_string_xyz() )
f.close()
--------------------------------------------------------------------------

    Molecular point group: c1
  Charge       = 0
  Multiplicity = 1
  Basis Set: CC-PVTZ
  Basis Set:
  @DF-RHF Final Energy:  -345.02846522703106
    Total Energy =                       -345.0284652270315746
    Molecular point group: c1
  Basis Set: CC-PVTZ
  Basis Set:
  Basis Set: CC-PVTZ
  Basis Set:
  @DF-RHF Final Energy:  -344.98581762906008
    Total Energy =                       -344.9858176290598522
  Basis Set: CC-PVTZ
  Basis Set:
  Basis Set: CC-PVTZ
  Basis Set:
  @DF-RHF Final Energy:  -345.02643578225803
    Total Energy =                       -345.0264357822580337
  Basis Set: CC-PVTZ
  Basis Set:
  Basis Set: CC-PVTZ
  Basis Set:
  @DF-RHF Final Energy:  -345.02940064349292
    Total Energy =                       -345.0294006434929202
  Basis Set: CC-PVTZ
  Basis Set:
  @DF-RHF Final Energy:  -345.02974928705822
    Total Energy =                       -345.0297492870580527
  @DF-RHF Final Energy:  -345.02982271428300
    Total Energy =                       -345.0298227142830001
  Basis Set: CC-PVTZ
  Basis Set:
  @DF-RHF Final Energy:  -345.02984728552622
    Total Energy =                       -345.0298472855263299
  Basis Set: CC-PVTZ
  Basis Set:
  Basis Set: CC-PVTZ
  Basis Set:
  @DF-RHF Final Energy:  -345.02985607330749
    Total Energy =                       -345.0298560733075419
  Basis Set: CC-PVTZ
  Basis Set:
  Basis Set: CC-PVTZ
  Basis Set:
  @DF-RHF Final Energy:  -345.02985761388049
    Total Energy =                       -345.0298576138804378
  Basis Set: CC-PVTZ
  Basis Set:
  Charge       = 0
  Multiplicity = 1
  Basis Set: CC-PVTZ
  Basis Set:

    Orbital Energies (a.u.)
    -----------------------

    Doubly Occupied:

       1A    -20.576905     2A    -20.539864     3A    -11.368691
       4A    -11.296082     5A    -11.232813     6A    -11.220196
       7A    -11.211117     8A     -1.460894     9A     -1.365884
      10A     -1.076168    11A     -1.008448    12A     -0.948260
      13A     -0.845634    14A     -0.772452    15A     -0.694457
      16A     -0.675368    17A     -0.653319    18A     -0.610814
      19A     -0.592271    20A     -0.583677    21A     -0.562999
      22A     -0.551074    23A     -0.548188    24A     -0.515657
      25A     -0.497935    26A     -0.489910    27A     -0.446423
      28A     -0.438720

  @DF-RHF Final Energy:  -345.02985787558487

   => Energetics <=

    Nuclear Repulsion Energy =            322.3738010308322828
    One-Electron Energy =               -1109.2388750500765582
    Two-Electron Energy =                 441.8352161436594088
    DFT Exchange-Correlation Energy =       0.0000000000000000
    Empirical Dispersion Energy =           0.0000000000000000
    PCM Polarization Energy =               0.0000000000000000
    EFP Energy =                            0.0000000000000000
    Total Energy =                       -345.0298578755848666
    Molecular point group: c1
  Basis Set: CC-PVTZ
  Basis Set:

  -Total Gradient:
     Atom            X                  Y                   Z
    ------   -----------------  -----------------  -----------------
       1       -0.000267186334     0.007785914154     0.004580118396
       2       -0.000369524383    -0.014670982857    -0.005081582293
       3       -0.000005499734     0.000025983663     0.000049831503
       4        0.002105691304     0.012949412687    -0.002911226000
       5       -0.000000682828    -0.000017286980    -0.000018443024
       6       -0.000025097848    -0.000004189440    -0.000000009985
       7       -0.000002385165    -0.000000311536    -0.000011355426
       8       -0.001417162715    -0.006091044731     0.003373925929
       9       -0.000013679817     0.000012691286     0.000013990807
      10       -0.000017969747     0.000014120940     0.000016205588
      11       -0.000013755403    -0.000004495798     0.000001224144
      12       -0.000000159095    -0.000003275931     0.000000221577
      13        0.000004654876    -0.000004822767    -0.000007296599
      14        0.000010805879     0.000001599031     0.000005048645
      15        0.000003350344    -0.000005470574    -0.000004419777
      16        0.000001653570     0.000004463704    -0.000005209321
      17        0.000006947095     0.000007695150    -0.000001024165

  **** Optimization is complete! (in 10 steps) ****
    Final optimized geometry and variables:
    Molecular point group: c1

    Geometry (in Angstrom), charge = 0, multiplicity = 1:

    O           -1.543448585777     0.901686831039    -0.762570411508
    C           -1.162830150259     0.352052170693     0.209559305717
    C           -2.062491126936    -0.178117695406     1.289397174874
    O            0.132634355253     0.221058310108     0.514446274283
    H           -1.931624382239    -1.250977218693     1.370184470817
    H           -3.091233664984     0.052789711921     1.064446238022
    H           -1.776053285683     0.255388201065     2.238790244433
    C            0.985922543067    -0.479272939518    -0.400555095796
    C            1.922131658397    -1.328468275977     0.435670107782
    C            1.715860395971     0.508772405808    -1.292019227477
    H            0.362904849017    -1.119346409792    -1.014512852213
    H            1.366555642105    -2.026857561203     1.048439207444
    H            2.590618105771    -1.889906971342    -0.206247634871
    H            2.518038166801    -0.701586458320     1.087790884466
    H            2.364171709744    -0.018289485031    -1.983151230691
    H            1.010564928042     1.099785450051    -1.858002534177
    H            2.323892510247     1.175811678249    -0.691901529270

  Mulliken Charges: (a.u.)
   Center  Symbol    Alpha    Beta     Spin     Total
       1     O     4.18180  4.18180  0.00000 -0.36360
       2     C     2.81242  2.81242  0.00000  0.37516
       3     C     3.13448  3.13448  0.00000 -0.26897
       4     O     4.17732  4.17732  0.00000 -0.35465
       5     H     0.45097  0.45097  0.00000  0.09806
       6     H     0.43783  0.43783  0.00000  0.12434
       7     H     0.44310  0.44310  0.00000  0.11380
       8     C     2.92881  2.92881  0.00000  0.14238
       9     C     3.13592  3.13592  0.00000 -0.27183
      10     C     3.14312  3.14312  0.00000 -0.28625
      11     H     0.45765  0.45765  0.00000  0.08471
      12     H     0.44914  0.44914  0.00000  0.10171
      13     H     0.45357  0.45357  0.00000  0.09286
      14     H     0.44996  0.44996  0.00000  0.10007
      15     H     0.45333  0.45333  0.00000  0.09333
      16     H     0.43662  0.43662  0.00000  0.12676
      17     H     0.45395  0.45395  0.00000  0.09211

   Total alpha = 28.00000, Total beta = 28.00000, Total charge = -0.00000

*** Psi4 exiting successfully. Buy a developer a beer!
