  ==> Input File <==

--------------------------------------------------------------------------
set {
	reference rhf
	basis cc-pvtz
}

set_num_threads( 4 )
memory 2 gb

molecule MOL {
0 1

H	 -2.416235	 -0.644417	 2.201354
C	 -2.336850	 -1.545698	 1.597803
O	 -1.129279	 -1.595206	 0.914529
H	 -2.383425	 -2.405772	 2.249717
H	 -3.184260	 -1.578220	 0.915364
C	 -0.931346	 -0.547671	 0.022828
C	 0.447117	 -0.645061	 -0.581077
H	 -1.670695	 -0.588155	 -0.776980
H	 -1.034173	 0.411125	 0.526382
O	 1.401606	 -0.295166	 0.366636
H	 0.611101	 -1.660252	 -0.935941
H	 0.504488	 0.024290	 -1.439359
C	 2.714315	 -0.441627	 -0.061017
H	 2.765292	 -0.641548	 -1.128869
H	 3.305661	 0.447341	 0.150952
H	 3.143725	 -1.278506	 0.470147

	symmetry c1
}
set optking {
	frozen_dihedral = ("
		7 10 13 14
	")
}

ee = optimize('scf')
oeprop('DIPOLE', 'QUADRUPOLE', 'MULLIKEN_CHARGES')
f=open( 'psi4out.xyz', 'w' )
f.write( "16  " )
f.write( str(ee) + "\n" )
f.write( MOL.save_string_xyz() )
f.close()
--------------------------------------------------------------------------

    Molecular point group: c1
  Charge       = 0
  Multiplicity = 1
  Basis Set: CC-PVTZ
  Basis Set:
  @DF-RHF Final Energy:  -307.09392132696252
    Total Energy =                       -307.0939213269625725
    Molecular point group: c1
  Basis Set: CC-PVTZ
  Basis Set:
  Basis Set: CC-PVTZ
  Basis Set:
  @DF-RHF Final Energy:  -307.09441646207085
    Total Energy =                       -307.0944164620708534
  Basis Set: CC-PVTZ
  Basis Set:
  Basis Set: CC-PVTZ
  Basis Set:
  @DF-RHF Final Energy:  -307.09452845307993
    Total Energy =                       -307.0945284530801018
  Basis Set: CC-PVTZ
  Basis Set:
  Charge       = 0
  Multiplicity = 1
  Basis Set: CC-PVTZ
  Basis Set:

    Orbital Energies (a.u.)
    -----------------------

    Doubly Occupied:

       1A    -20.547444     2A    -20.544292     3A    -11.267795
       4A    -11.266579     5A    -11.261331     6A    -11.261110
       7A     -1.389578     8A     -1.371606     9A     -1.031704
      10A     -0.937202    11A     -0.892203    12A     -0.823994
      13A     -0.684923    14A     -0.681133    15A     -0.658739
      16A     -0.635973    17A     -0.630718    18A     -0.597292
      19A     -0.554201    20A     -0.538544    21A     -0.508649
      22A     -0.479255    23A     -0.463959    24A     -0.420883
      25A     -0.410311

  @DF-RHF Final Energy:  -307.09452923176775

   => Energetics <=

    Nuclear Repulsion Energy =            258.6285082316197759
    One-Electron Energy =                -931.7272361601304738
    Two-Electron Energy =                 366.0041986967431740
    DFT Exchange-Correlation Energy =       0.0000000000000000
    Empirical Dispersion Energy =           0.0000000000000000
    PCM Polarization Energy =               0.0000000000000000
    EFP Energy =                            0.0000000000000000
    Total Energy =                       -307.0945292317675239
    Molecular point group: c1
  Basis Set: CC-PVTZ
  Basis Set:

  -Total Gradient:
     Atom            X                  Y                   Z
    ------   -----------------  -----------------  -----------------
       1       -0.000000167429     0.000000136567    -0.000000208382
       2       -0.000003850402     0.000000825663     0.000002883548
       3       -0.000000089835     0.000008691037     0.000017256656
       4        0.000000500273    -0.000000002863     0.000000648854
       5        0.000003927352     0.000000709487    -0.000001558116
       6       -0.000019508770    -0.000036698340    -0.000028312798
       7       -0.000046237309     0.001178732767    -0.000443458868
       8       -0.000033833988     0.000002641442    -0.000004168468
       9        0.000019086147    -0.000024176870    -0.000007280375
      10        0.000132165916    -0.002007485987     0.000614863621
      11        0.000014480891     0.000023191086     0.000039753706
      12        0.000003419317    -0.000014977530    -0.000007330020
      13        0.000060865485     0.002246379683    -0.000423613141
      14       -0.000120022911    -0.001401855987     0.000245762996
      15       -0.000028532081     0.000022745631    -0.000006375456
      16        0.000017797345     0.000001144213     0.000001136244

  **** Optimization is complete! (in 4 steps) ****
    Final optimized geometry and variables:
    Molecular point group: c1

    Geometry (in Angstrom), charge = 0, multiplicity = 1:

    H           -2.431071508706     0.208967069208     1.831622804975
    C           -2.362772349103    -0.690693507558     1.224326460106
    O           -1.161805610689    -0.745350280484     0.530003944011
    H           -2.408915333457    -1.552721380225     1.873699192289
    H           -3.216519220648    -0.715560645834     0.549463627603
    C           -0.965354063206     0.304007121168    -0.359894013958
    C            0.407682863568     0.201781450052    -0.975150034325
    H           -1.711040132858     0.269729987234    -1.154280224517
    H           -1.059295660785     1.261587362282     0.147514290329
    O            1.368890560104     0.542319301811    -0.029186505832
    H            0.559295765646    -0.812642886399    -1.336039397018
    H            0.460530898181     0.875767803291    -1.829286363604
    C            2.696853238498     0.402479860159    -0.429774654762
    H            2.781766288011     0.207830799369    -1.494253981826
    H            3.238434297993     1.311552393071    -0.199857169429
    H            3.162477700954    -0.422888878299     0.098629584582

  Mulliken Charges: (a.u.)
   Center  Symbol    Alpha    Beta     Spin     Total
       1     H     0.47016  0.47016  0.00000  0.05968
       2     C     3.03201  3.03201  0.00000 -0.06401
       3     O     4.17039  4.17039  0.00000 -0.34078
       4     H     0.44645  0.44645  0.00000  0.10711
       5     H     0.47374  0.47374  0.00000  0.05252
       6     C     2.96334  2.96334  0.00000  0.07332
       7     C     2.95859  2.95859  0.00000  0.08282
       8     H     0.47616  0.47616  0.00000  0.04768
       9     H     0.47118  0.47118  0.00000  0.05764
      10     O     4.17502  4.17502  0.00000 -0.35004
      11     H     0.47091  0.47091  0.00000  0.05817
      12     H     0.47592  0.47592  0.00000  0.04817
      13     C     3.02749  3.02749  0.00000 -0.05498
      14     H     0.47394  0.47394  0.00000  0.05212
      15     H     0.45628  0.45628  0.00000  0.08743
      16     H     0.45843  0.45843  0.00000  0.08314

   Total alpha = 25.00000, Total beta = 25.00000, Total charge = -0.00000
