  ==> Input File <==

--------------------------------------------------------------------------
set {
	reference rhf
	basis 6-31G*
}

set_num_threads( 1 )
memory 2 gb

molecule MOL {
0 1

H	 -1.099389	 -0.821131	 0.860622
N	 -0.626943	 -0.667432	 -0.000092
C	 -1.146847	 -1.304664	 -1.188516
C	 0.469286	 0.129090	 0.000148
H	 -1.145508	 -2.384373	 -1.082533
H	 -0.516038	 -1.033799	 -2.019442
H	 -2.160265	 -0.976420	 -1.394118
C	 1.788933	 -0.616240	 -0.000037
O	 0.411098	 1.327768	 -0.000049
H	 1.872803	 -1.245775	 -0.880381
H	 2.595421	 0.101576	 0.003713
H	 1.870096	 -1.252171	 0.875943

	symmetry c1
}
set optking {
	frozen_dihedral = ("
		4 2 3 5
	")
}

ee = energy('scf')
oeprop('DIPOLE', 'QUADRUPOLE', 'MULLIKEN_CHARGES')
f=open( 'psi4out.xyz', 'w' )
f.write( "12  " )
f.write( str(ee) + "\n" )
f.write( MOL.save_string_xyz() )
f.close()
--------------------------------------------------------------------------

    Molecular point group: c1

    Geometry (in Angstrom), charge = 0, multiplicity = 1:

       Center              X                  Y                   Z               Mass
    ------------   -----------------  -----------------  -----------------  -----------------
           H         -1.271333503290    -0.584562404154     1.106027929077     1.007825032070
           N         -0.798887503290    -0.430863404154     0.245313929077    14.003074004780
           C         -1.318791503290    -1.068095404154    -0.943110070923    12.000000000000
           C          0.297341496710     0.365658595846     0.245553929077    12.000000000000
           H         -1.317452503290    -2.147804404154    -0.837127070923     1.007825032070
           H         -0.687982503290    -0.797230404154    -1.774036070923     1.007825032070
           H         -2.332209503290    -0.739851404154    -1.148712070923     1.007825032070
           C          1.616988496710    -0.379671404154     0.245368929077    12.000000000000
           O          0.239153496710     1.564336595846     0.245356929077    15.994914619560
           H          1.700858496710    -1.009206404154    -0.634975070923     1.007825032070
           H          2.423476496710     0.338144595846     0.249118929077     1.007825032070
           H          1.698151496710    -1.015602404154     1.121348929077     1.007825032070

  Charge       = 0
  Multiplicity = 1
  Basis Set: 6-31G*
  Basis Set:

    Orbital Energies (a.u.)
    -----------------------

    Doubly Occupied:

       1A    -20.546993     2A    -15.544706     3A    -11.347894
       4A    -11.263198     5A    -11.223831     6A     -1.397529
       7A     -1.219788     8A     -1.003438     9A     -0.940249
      10A     -0.781768    11A     -0.682136    12A     -0.649830
      13A     -0.642181    14A     -0.591233    15A     -0.579315
      16A     -0.567055    17A     -0.550725    18A     -0.486643
      19A     -0.425694    20A     -0.369131

  @DF-RHF Final Energy:  -246.96418117324629

   => Energetics <=

    Nuclear Repulsion Energy =            181.0960567638005614
    One-Electron Energy =                -694.4937886050980751
    Two-Electron Energy =                 266.4335506680515095
    DFT Exchange-Correlation Energy =       0.0000000000000000
    Empirical Dispersion Energy =           0.0000000000000000
    PCM Polarization Energy =               0.0000000000000000
    EFP Energy =                            0.0000000000000000
    Total Energy =                       -246.9641811732460042

  Mulliken Charges: (a.u.)
   Center  Symbol    Alpha    Beta     Spin     Total
       1     H     0.30847  0.30847  0.00000  0.38307
       2     N     3.90478  3.90478  0.00000 -0.80957
       3     C     3.13105  3.13105  0.00000 -0.26210
       4     C     2.66479  2.66479  0.00000  0.67042
       5     H     0.41952  0.41952  0.00000  0.16096
       6     H     0.41257  0.41257  0.00000  0.17485
       7     H     0.41102  0.41102  0.00000  0.17796
       8     C     3.27714  3.27714  0.00000 -0.55429
       9     O     4.24943  4.24943  0.00000 -0.49885
      10     H     0.41027  0.41027  0.00000  0.17946
      11     H     0.40224  0.40224  0.00000  0.19553
      12     H     0.40872  0.40872  0.00000  0.18257

   Total alpha = 20.00000, Total beta = 20.00000, Total charge =  0.00000
