  ==> Input File <==

--------------------------------------------------------------------------
set {
	reference rhf
	basis 6-31G*
}

set_num_threads( 4 )
memory 2 gb

molecule MOL {
0 1

O	 -2.439739	 -0.935931	 -0.423848
C	 -1.921153	 0.064240	 -0.045697
C	 -2.624470	 1.379923	 0.150949
O	 -0.632575	 0.154573	 0.251549
H	 -2.168117	 2.136577	 -0.476876
H	 -3.669540	 1.273223	 -0.098610
H	 -2.519365	 1.700893	 1.180846
C	 0.160891	 -1.019931	 0.106212
C	 1.589627	 -0.672828	 0.480843
H	 0.089836	 -1.367806	 -0.916050
H	 -0.238459	 -1.792301	 0.749618
C	 1.751280	 -0.174084	 1.918035
H	 1.932259	 0.092934	 -0.212082
H	 2.217068	 -1.545281	 0.318356
C	 3.196814	 0.191310	 2.252578
H	 1.114235	 0.695010	 2.069532
H	 1.401020	 -0.937882	 2.604540
H	 3.285289	 0.540816	 3.276321
H	 3.564959	 0.979027	 1.601234
H	 3.854229	 -0.665884	 2.138111

	symmetry c1
}
set optking {
	frozen_dihedral = ("
		12 9 8 10
	")
}

ee = optimize('scf')
oeprop('DIPOLE', 'QUADRUPOLE', 'MULLIKEN_CHARGES')
f=open( 'psi4out.xyz', 'w' )
f.write( "20  " )
f.write( str(ee) + "\n" )
f.write( MOL.save_string_xyz() )
f.close()
--------------------------------------------------------------------------

    Molecular point group: c1
  Charge       = 0
  Multiplicity = 1
  Basis Set: 6-31G*
  Basis Set:
  @DF-RHF Final Energy:  -383.94544586806234
    Total Energy =                       -383.9454458680619382
    Molecular point group: c1
  Basis Set: 6-31G*
  Basis Set:
  Basis Set: 6-31G*
  Basis Set:
  @DF-RHF Final Energy:  -383.94550745968843
    Total Energy =                       -383.9455074596885424
  Basis Set: 6-31G*
  Basis Set:
  Basis Set: 6-31G*
  Basis Set:
  @DF-RHF Final Energy:  -383.94538248493524
    Total Energy =                       -383.9453824849349530
  Basis Set: 6-31G*
  Basis Set:
  Basis Set: 6-31G*
  Basis Set:
  @DF-RHF Final Energy:  -383.94561715498253
    Total Energy =                       -383.9456171549821875
  Basis Set: 6-31G*
  Basis Set:
  Charge       = 0
  Multiplicity = 1
  Basis Set: 6-31G*
  Basis Set:

    Orbital Energies (a.u.)
    -----------------------

    Doubly Occupied:

       1A    -20.601755     2A    -20.544088     3A    -11.374568
       4A    -11.282507     5A    -11.233469     6A    -11.225621
       7A    -11.220342     8A    -11.213332     9A     -1.467936
      10A     -1.362189    11A     -1.085943    12A     -1.028186
      13A     -0.981441    14A     -0.880152    15A     -0.812141
      16A     -0.773787    17A     -0.689618    18A     -0.684295
      19A     -0.666813    20A     -0.631797    21A     -0.600531
      22A     -0.592626    23A     -0.572358    24A     -0.550427
      25A     -0.544976    26A     -0.531630    27A     -0.511720
      28A     -0.483797    29A     -0.474171    30A     -0.471587
      31A     -0.449268    32A     -0.438805

  @DF-RHF Final Energy:  -383.94561704008208

   => Energetics <=

    Nuclear Repulsion Energy =            385.3661919300560612
    One-Electron Energy =               -1286.6598573757144095
    Two-Electron Energy =                 517.3480484055760371
    DFT Exchange-Correlation Energy =       0.0000000000000000
    Empirical Dispersion Energy =           0.0000000000000000
    PCM Polarization Energy =               0.0000000000000000
    EFP Energy =                            0.0000000000000000
    Total Energy =                       -383.9456170400823112
    Molecular point group: c1
  Basis Set: 6-31G*
  Basis Set:

  -Total Gradient:
     Atom            X                  Y                   Z
    ------   -----------------  -----------------  -----------------
       1        0.000040975168     0.000043363856    -0.000157331406
       2       -0.000091863499     0.000003288067     0.000212806458
       3        0.000003243595    -0.000006559110    -0.000017784534
       4       -0.000139379048     0.000083731850    -0.000154562658
       5        0.000004029070     0.000002048513    -0.000007840504
       6       -0.000003702577     0.000002544762     0.000002238285
       7        0.000000810827    -0.000000561737    -0.000010010889
       8        0.000107603283    -0.000826188653     0.000791431560
       9        0.000214177630    -0.001161617621     0.000278660780
      10       -0.000197560666     0.000925711682    -0.000505500958
      11        0.000232430396     0.000102378705    -0.000125040526
      12       -0.000167402154     0.000676061494    -0.000226710902
      13       -0.000152304105    -0.000023831747     0.000023300921
      14        0.000168039465     0.000016218074    -0.000025426315
      15        0.000003912706    -0.000005927632    -0.000014935553
      16       -0.000005912218     0.000106114583     0.000014969781
      17       -0.000006608544     0.000051896731    -0.000073898912
      18       -0.000000990408    -0.000030244208     0.000009584120
      19        0.000011910497     0.000029906780     0.000017164852
      20       -0.000021409414     0.000011665613    -0.000031113599

  **** Optimization is complete! (in 5 steps) ****
    Final optimized geometry and variables:
    Molecular point group: c1

    Geometry (in Angstrom), charge = 0, multiplicity = 1:

    O           -2.314224008018    -0.829180993040    -1.002586850189
    C           -1.804006420822     0.178366319310    -0.632563102482
    C           -2.520136010259     1.487725664520    -0.439395062871
    O           -0.515737005243     0.283000114447    -0.339341586064
    H           -2.072748165203     2.246126241994    -1.071499463969
    H           -3.564636074148     1.369381093833    -0.686117754996
    H           -2.416008353039     1.813999198404     0.588976414887
    C            0.288271368941    -0.886224490314    -0.474702317614
    C            1.715315089880    -0.524065356448    -0.107300669735
    H            0.222439770306    -1.231780453625    -1.497683958156
    H           -0.106102397393    -1.660698705680     0.169552710870
    C            1.882588047696    -0.026064734834     1.329454871100
    H            2.073808274845     0.231933680537    -0.801078340543
    H            2.328753641013    -1.408943571534    -0.264455114995
    C            3.338348568336     0.284965845208     1.674841210853
    H            1.276304971717     0.861742512864     1.474507179959
    H            1.500679458540    -0.778204601460     2.016827757528
    H            3.431986139618     0.631755075233     2.699065778825
    H            3.738385471852     1.059191789874     1.026201182296
    H            3.966336751556    -0.594698753700     1.564875036894

  Mulliken Charges: (a.u.)
   Center  Symbol    Alpha    Beta     Spin     Total
       1     O     4.28335  4.28335  0.00000 -0.56670
       2     C     2.61914  2.61914  0.00000  0.76171
       3     C     3.28169  3.28169  0.00000 -0.56337
       4     O     4.30881  4.30881  0.00000 -0.61762
       5     H     0.40059  0.40059  0.00000  0.19881
       6     H     0.39685  0.39685  0.00000  0.20630
       7     H     0.40078  0.40078  0.00000  0.19844
       8     C     3.00232  3.00232  0.00000 -0.00464
       9     C     3.16507  3.16507  0.00000 -0.33013
      10     H     0.40794  0.40794  0.00000  0.18412
      11     H     0.41084  0.41084  0.00000  0.17832
      12     C     3.15477  3.15477  0.00000 -0.30954
      13     H     0.41512  0.41512  0.00000  0.16976
      14     H     0.41809  0.41809  0.00000  0.16381
      15     C     3.24044  3.24044  0.00000 -0.48088
      16     H     0.41122  0.41122  0.00000  0.17757
      17     H     0.42300  0.42300  0.00000  0.15401
      18     H     0.41759  0.41759  0.00000  0.16483
      19     H     0.42067  0.42067  0.00000  0.15867
      20     H     0.42173  0.42173  0.00000  0.15655

   Total alpha = 32.00000, Total beta = 32.00000, Total charge =  0.00000
