                              Psi4 1.0.54 Driver

  ==> Input File <==

--------------------------------------------------------------------------
set {
	reference rhf
	basis cc-pvtz
}

set_num_threads( 4 )
memory 2 gb

molecule MOL {
0 1

O	 -2.071633	 -1.227563	 -0.223463
C	 -1.652164	 -0.152425	 0.058082
C	 -0.327811	 0.006324	 0.778296
C	 -2.402515	 1.108629	 -0.298924
C	 0.188578	 -1.344535	 1.288146
H	 0.407037	 0.455628	 0.118561
H	 -0.488030	 0.673914	 1.615249
C	 1.513195	 -1.224643	 2.035973
H	 0.310238	 -2.030561	 0.453724
H	 -0.561313	 -1.779148	 1.940173
C	 2.024345	 -2.563920	 2.555805
H	 2.258649	 -0.783252	 1.380232
H	 1.391788	 -0.536809	 2.867649
H	 2.189117	 -3.262993	 1.742675
H	 1.313316	 -3.014830	 3.239536
H	 2.962716	 -2.445373	 3.084773
H	 -3.240910	 0.874416	 -0.936711
H	 -1.747554	 1.818823	 -0.790984
H	 -2.760419	 1.579708	 0.610998

	symmetry c1
}
set optking {
	frozen_dihedral = ("
		5 3 2 4
	")
}

ee,wfn = optimize('scf', return_wfn=True)
oeprop( wfn, 'DIPOLE', 'QUADRUPOLE', 'MULLIKEN_CHARGES')
f=open( 'psi4out.xyz', 'w' )
f.write( "19  " )
f.write( str(ee) + "\n" )
f.write( MOL.save_string_xyz() )
f.close()
--------------------------------------------------------------------------

    Molecular point group: c1
  Charge       = 0
  Multiplicity = 1
  Basis Set: CC-PVTZ
  Basis Set:
  @DF-RHF Final Energy:  -309.17779434566108
    Total Energy =                       -309.1777943456610274
    Molecular point group: c1
  Basis Set: CC-PVTZ
  Basis Set:
  Basis Set: CC-PVTZ
  Basis Set:
  @DF-RHF Final Energy:  -309.17830815722203
    Total Energy =                       -309.1783081572219771
  Basis Set: CC-PVTZ
  Basis Set:
  Basis Set: CC-PVTZ
  Basis Set:
  @DF-RHF Final Energy:  -309.17886791497909
    Total Energy =                       -309.1788679149790369
  Basis Set: CC-PVTZ
  Basis Set:
  Basis Set: CC-PVTZ
  Basis Set:
  @DF-RHF Final Energy:  -309.17898519296546
    Total Energy =                       -309.1789851929657402
  Basis Set: CC-PVTZ
  Basis Set:
  @DF-RHF Final Energy:  -309.17900830895837
    Total Energy =                       -309.1790083089584300
  Basis Set: CC-PVTZ
  Basis Set:
  @DF-RHF Final Energy:  -309.17901669801876
    Total Energy =                       -309.1790166980185290
  Basis Set: CC-PVTZ
  Basis Set:
  Basis Set: CC-PVTZ
  Basis Set:
  @DF-RHF Final Energy:  -309.17901558019560
    Total Energy =                       -309.1790155801956530
  Basis Set: CC-PVTZ
  Basis Set:
  Basis Set: CC-PVTZ
  Basis Set:
  @DF-RHF Final Energy:  -309.17901703504697
    Total Energy =                       -309.1790170350467974
  Basis Set: CC-PVTZ
  Basis Set:
  Charge       = 0
  Multiplicity = 1
  Basis Set: CC-PVTZ
  Basis Set:

    Orbital Energies (a.u.)
    -----------------------

    Doubly Occupied:

       1A    -20.538817     2A    -11.320833     3A    -11.230567
       4A    -11.226917     5A    -11.217882     6A    -11.215572
       7A    -11.208335     8A     -1.399048     9A     -1.087401
      10A     -1.030923    11A     -0.984577    12A     -0.887227
      13A     -0.802050    14A     -0.732025    15A     -0.658022
      16A     -0.653110    17A     -0.628502    18A     -0.612731
      19A     -0.582431    20A     -0.570503    21A     -0.555806
      22A     -0.530689    23A     -0.512420    24A     -0.490281
      25A     -0.477709    26A     -0.474414    27A     -0.469338
      28A     -0.402370

  @DF-RHF Final Energy:  -309.17901712029590

   => Energetics <=

    Nuclear Repulsion Energy =            301.3602629302544642
    One-Electron Energy =               -1016.0775591123767754
    Two-Electron Energy =                 405.5382790618262447
    DFT Exchange-Correlation Energy =       0.0000000000000000
    Empirical Dispersion Energy =           0.0000000000000000
    PCM Polarization Energy =               0.0000000000000000
    EFP Energy =                            0.0000000000000000
    Total Energy =                       -309.1790171202960096
    Molecular point group: c1
  Basis Set: CC-PVTZ
  Basis Set:

  -Total Gradient:
     Atom            X                  Y                   Z
    ------   -----------------  -----------------  -----------------
       1        0.000010477184     0.000009467909    -0.000000873230
       2        0.000134610717    -0.000001246687    -0.000329011558
       3        0.000157074614    -0.000059494269    -0.000238251800
       4       -0.000169768553    -0.000007460155     0.000317602083
       5       -0.000146320796     0.000049354026     0.000263923780
       6        0.000003422877     0.000000324275    -0.000005527015
       7        0.000005532978     0.000002102776    -0.000004169518
       8       -0.000003944031    -0.000002710420     0.000008534213
       9        0.000001427453    -0.000002468194     0.000000850384
      10       -0.000003506177    -0.000002360789     0.000004209969
      11       -0.000002368872     0.000000366695    -0.000004524916
      12        0.000000315049     0.000001190347    -0.000001957266
      13       -0.000000170700     0.000003529173     0.000003480413
      14        0.000000133751    -0.000003087644    -0.000001566297
      15       -0.000001091337    -0.000000490212     0.000002239287
      16        0.000002799429     0.000001097189     0.000000529620
      17       -0.000002919141    -0.000004549651    -0.000009598065
      18        0.000010796208     0.000002667914    -0.000011307861
      19        0.000003499343     0.000013767713     0.000005417774

  **** Optimization is complete! (in 9 steps) ****
    Final optimized geometry and variables:
    Molecular point group: c1

    Geometry (in Angstrom), charge = 0, multiplicity = 1:

    O           -1.763326579678    -0.440179962828    -1.120880512268
    C           -1.286133284897     0.609568696358    -0.837713669086
    C            0.038924804605     0.728243397775    -0.112384189347
    C           -1.978209178565     1.908763318775    -1.181988608445
    C            0.583300363132    -0.587723632629     0.425040615366
    H            0.742096152110     1.177137395773    -0.811426985523
    H           -0.077081670625     1.455301037293     0.687387125630
    C            1.925119929182    -0.423672031648     1.133178794010
    H            0.681611220541    -1.292575156641    -0.391983195867
    H           -0.140474241425    -1.020278229938     1.107778057207
    C            2.473377335618    -1.739112693545     1.675659693731
    H            2.646494259057     0.009530370592     0.445094312233
    H            1.820578393502     0.285881326617     1.949987418268
    H            2.621857968988    -2.458738123567     0.877789149282
    H            1.790429505932    -2.180397594596     2.393657067384
    H            3.426025470926    -1.592596201540     2.171471311733
    H           -2.818336377519     1.717057419854    -1.831674953731
    H           -1.290802421851     2.598918999834    -1.657562600088
    H           -2.330041220811     2.380148756578    -0.270185738403

  Mulliken Charges: (a.u.)
   Center  Symbol    Alpha    Beta     Spin     Total
       1     O     4.17120  4.17120  0.00000 -0.34240
       2     C     2.86210  2.86210  0.00000  0.27581
       3     C     3.11248  3.11248  0.00000 -0.22496
       4     C     3.15156  3.15156  0.00000 -0.30311
       5     C     3.08084  3.08084  0.00000 -0.16169
       6     H     0.44466  0.44466  0.00000  0.11067
       7     H     0.44607  0.44607  0.00000  0.10786
       8     C     3.08502  3.08502  0.00000 -0.17003
       9     H     0.44414  0.44414  0.00000  0.11171
      10     H     0.44883  0.44883  0.00000  0.10234
      11     C     3.14958  3.14958  0.00000 -0.29916
      12     H     0.45559  0.45559  0.00000  0.08883
      13     H     0.45611  0.45611  0.00000  0.08777
      14     H     0.45356  0.45356  0.00000  0.09287
      15     H     0.45407  0.45407  0.00000  0.09187
      16     H     0.44870  0.44870  0.00000  0.10261
      17     H     0.43557  0.43557  0.00000  0.12886
      18     H     0.45103  0.45103  0.00000  0.09794
      19     H     0.44889  0.44889  0.00000  0.10221

   Total alpha = 28.00000, Total beta = 28.00000, Total charge = -0.00000

*** Psi4 exiting successfully. Buy a developer a beer!
