  ==> Input File <==

--------------------------------------------------------------------------
set {
	reference rhf
	basis 6-31G*
}

set_num_threads( 4 )
memory 2 gb

molecule MOL {
0 1

H	 3.089270	 -1.380733	 0.000000
O	 2.178328	 -1.639175	 0.000000
C	 1.368216	 -0.558384	 0.000000
C	 0.921880	 0.037086	 1.172819
C	 0.983515	 -0.045144	 -1.226385
H	 1.222442	 -0.363902	 2.126185
C	 0.091952	 1.144313	 1.118618
H	 1.327557	 -0.504139	 -2.133046
C	 0.152448	 1.063603	 -1.271823
H	 -0.247020	 1.596545	 2.032927
C	 -0.297502	 1.663894	 -0.102650
C	 -0.264684	 1.620110	 -2.586042
H	 -0.942091	 2.523857	 -0.147081
O	 0.065513	 1.179585	 -3.640297
H	 -0.920061	 2.494465	 -2.529189

	symmetry c1
}
set optking {
	frozen_dihedral = ("
		4 3 2 1
	")
}

ee = optimize('scf')
oeprop('DIPOLE', 'QUADRUPOLE', 'MULLIKEN_CHARGES')
f=open( 'psi4out.xyz', 'w' )
f.write( "15  " )
f.write( str(ee) + "\n" )
f.write( MOL.save_string_xyz() )
f.close()
--------------------------------------------------------------------------

    Molecular point group: c1
  Charge       = 0
  Multiplicity = 1
  Basis Set: 6-31G*
  Basis Set:
  @DF-RHF Final Energy:  -418.28181698551685
    Total Energy =                       -418.2818169855175938
    Molecular point group: c1
  Basis Set: 6-31G*
  Basis Set:
  Basis Set: 6-31G*
  Basis Set:
  @DF-RHF Final Energy:  -418.28266972496397
    Total Energy =                       -418.2826697249641938
  Basis Set: 6-31G*
  Basis Set:
  Basis Set: 6-31G*
  Basis Set:
  @DF-RHF Final Energy:  -418.28108578187528
    Total Energy =                       -418.2810857818755039
  Basis Set: 6-31G*
  Basis Set:
  Basis Set: 6-31G*
  Basis Set:
  @DF-RHF Final Energy:  -418.28277687828904
    Total Energy =                       -418.2827768782888143
  Basis Set: 6-31G*
  Basis Set:
  Basis Set: 6-31G*
  Basis Set:
  @DF-RHF Final Energy:  -418.28278735307111
    Total Energy =                       -418.2827873530715124
  Basis Set: 6-31G*
  Basis Set:
  Charge       = 0
  Multiplicity = 1
  Basis Set: 6-31G*
  Basis Set:

    Orbital Energies (a.u.)
    -----------------------

    Doubly Occupied:

       1A    -20.587023     2A    -20.565108     3A    -11.333922
       4A    -11.303050     5A    -11.253824     6A    -11.251407
       7A    -11.250874     8A    -11.249119     9A    -11.244577
      10A     -1.405897    11A     -1.402828    12A     -1.170285
      13A     -1.048937    14A     -1.026216    15A     -0.897551
      16A     -0.845862    17A     -0.800993    18A     -0.741507
      19A     -0.698058    20A     -0.679520    21A     -0.651869
      22A     -0.633928    23A     -0.618316    24A     -0.605801
      25A     -0.556011    26A     -0.545180    27A     -0.531483
      28A     -0.496867    29A     -0.486182    30A     -0.424041
      31A     -0.352099    32A     -0.342472

  @DF-RHF Final Energy:  -418.28278883871138

   => Energetics <=

    Nuclear Repulsion Energy =            402.5695590000553352
    One-Electron Energy =               -1367.7030897127119715
    Two-Electron Energy =                 546.8507418739450259
    DFT Exchange-Correlation Energy =       0.0000000000000000
    Empirical Dispersion Energy =           0.0000000000000000
    PCM Polarization Energy =               0.0000000000000000
    EFP Energy =                            0.0000000000000000
    Total Energy =                       -418.2827888387116673
    Molecular point group: c1
  Basis Set: 6-31G*
  Basis Set:

  -Total Gradient:
     Atom            X                  Y                   Z
    ------   -----------------  -----------------  -----------------
       1        0.000000482585     0.000015807228     0.000281812696
       2        0.000159907249    -0.000035933398    -0.000395746789
       3       -0.000392096499    -0.000027277371     0.000278930493
       4        0.000257046897    -0.000027126828    -0.000056289174
       5       -0.000006022478     0.000011694871    -0.000086727132
       6        0.000002639182    -0.000016038518     0.000000875289
       7       -0.000060491839     0.000182752904    -0.000106432717
       8       -0.000015231602     0.000005837013     0.000009881575
       9        0.000092194772    -0.000073567319    -0.000075904044
      10        0.000009085365    -0.000013125107    -0.000004003251
      11       -0.000029032631    -0.000053590106     0.000195695614
      12       -0.000003325468     0.000031985116     0.000014068431
      13       -0.000006731884     0.000003177974    -0.000034370756
      14       -0.000007018840     0.000000899139    -0.000009488450
      15       -0.000001404811    -0.000005495595    -0.000012301786

  **** Optimization is complete! (in 6 steps) ****
    Final optimized geometry and variables:
    Molecular point group: c1

    Geometry (in Angstrom), charge = 0, multiplicity = 1:

    H            2.474804598556    -1.872757721417     0.836814071490
    O            1.560310375923    -2.121617866725     0.807710351529
    C            0.764818724580    -1.009065103180     0.752101819477
    C            0.319409848936    -0.422777792386     1.930139235753
    C            0.371939243604    -0.500881940310    -0.468549111695
    H            0.626789549610    -0.845389573950     2.869324754910
    C           -0.515327750309     0.679493558017     1.885000828596
    H            0.704707673374    -0.960626518933    -1.379585495811
    C           -0.467274724566     0.607930808222    -0.512808828159
    H           -0.858269972698     1.128891532506     2.799025900004
    C           -0.910175161205     1.197738546625     0.661613583652
    C           -0.892463046452     1.164689062486    -1.821789629446
    H           -1.560862065060     2.053962604339     0.622474993046
    O           -0.552120812064     0.736864047965    -2.878754255861
    H           -1.562826870771     2.027428994422    -1.761572922670

  Mulliken Charges: (a.u.)
   Center  Symbol    Alpha    Beta     Spin     Total
       1     H     0.26942  0.26942  0.00000  0.46116
       2     O     4.38660  4.38660  0.00000 -0.77320
       3     C     2.82097  2.82097  0.00000  0.35806
       4     C     3.10820  3.10820  0.00000 -0.21640
       5     C     3.10784  3.10784  0.00000 -0.21568
       6     H     0.38858  0.38858  0.00000  0.22284
       7     C     3.10186  3.10186  0.00000 -0.20372
       8     H     0.37238  0.37238  0.00000  0.25524
       9     C     3.05190  3.05190  0.00000 -0.10379
      10     H     0.39262  0.39262  0.00000  0.21477
      11     C     3.10716  3.10716  0.00000 -0.21432
      12     C     2.83191  2.83191  0.00000  0.33618
      13     H     0.39196  0.39196  0.00000  0.21607
      14     O     4.24677  4.24677  0.00000 -0.49354
      15     H     0.42184  0.42184  0.00000  0.15632

   Total alpha = 32.00000, Total beta = 32.00000, Total charge = -0.00000
