  ==> Input File <==

--------------------------------------------------------------------------
set {
	reference rhf
	basis cc-pvtz
}

set_num_threads( 4 )
memory 2 gb

molecule MOL {
0 1

H	 1.166964	 -1.062386	 0.758429
O	 1.324748	 -0.612467	 -0.052206
C	 0.706474	 0.636793	 -0.025501
C	 1.384168	 1.688362	 -0.857704
H	 0.698279	 0.952841	 1.011007
H	 -0.334448	 0.561019	 -0.334434
C	 2.526410	 1.548294	 -1.493292
H	 0.856865	 2.626575	 -0.912092
H	 3.089263	 0.635478	 -1.449287
H	 2.942105	 2.352508	 -2.069917

	symmetry c1
}
set optking {
	frozen_dihedral = ("
		5 3 2 1
	")
}

ee = optimize('scf')
oeprop('DIPOLE', 'QUADRUPOLE', 'MULLIKEN_CHARGES')
f=open( 'psi4out.xyz', 'w' )
f.write( "10  " )
f.write( str(ee) + "\n" )
f.write( MOL.save_string_xyz() )
f.close()
--------------------------------------------------------------------------

    Molecular point group: c1
  Charge       = 0
  Multiplicity = 1
  Basis Set: CC-PVTZ
  Basis Set:
  @DF-RHF Final Energy:  -191.99579095194039
    Total Energy =                       -191.9957909519404780
    Molecular point group: c1
  Basis Set: CC-PVTZ
  Basis Set:
  Basis Set: CC-PVTZ
  Basis Set:
  @DF-RHF Final Energy:  -191.99693274852521
    Total Energy =                       -191.9969327485252393
  Basis Set: CC-PVTZ
  Basis Set:
  Basis Set: CC-PVTZ
  Basis Set:
  @DF-RHF Final Energy:  -191.99727898486503
    Total Energy =                       -191.9972789848650905
  Basis Set: CC-PVTZ
  Basis Set:
  Basis Set: CC-PVTZ
  Basis Set:
  @DF-RHF Final Energy:  -191.99728464259613
    Total Energy =                       -191.9972846425960711
  Basis Set: CC-PVTZ
  Basis Set:
  Charge       = 0
  Multiplicity = 1
  Basis Set: CC-PVTZ
  Basis Set:

    Orbital Energies (a.u.)
    -----------------------

    Doubly Occupied:

       1A    -20.553535     2A    -11.278211     3A    -11.223672
       4A    -11.207899     5A     -1.373667     6A     -1.058500
       7A     -0.926361     8A     -0.757217     9A     -0.713208
      10A     -0.644633    11A     -0.616802    12A     -0.590414
      13A     -0.517017    14A     -0.493209    15A     -0.456046
      16A     -0.360542

  @DF-RHF Final Energy:  -191.99728529064708

   => Energetics <=

    Nuclear Repulsion Energy =            119.5899414375393235
    One-Electron Energy =                -497.6325885636227326
    Two-Electron Energy =                 186.0453618354363812
    DFT Exchange-Correlation Energy =       0.0000000000000000
    Empirical Dispersion Energy =           0.0000000000000000
    PCM Polarization Energy =               0.0000000000000000
    EFP Energy =                            0.0000000000000000
    Total Energy =                       -191.9972852906470280
    Molecular point group: c1
  Basis Set: CC-PVTZ
  Basis Set:

  -Total Gradient:
     Atom            X                  Y                   Z
    ------   -----------------  -----------------  -----------------
       1        0.000786518051     0.000413752099     0.000400842866
       2       -0.001197109569    -0.000597814557    -0.000459148173
       3        0.001100843912     0.000612914724    -0.000078794208
       4        0.000022373163     0.000007623161     0.000052640369
       5       -0.000708449093    -0.000410172263     0.000080731916
       6        0.000034168450    -0.000014829764    -0.000000746950
       7        0.000009996699     0.000005926938     0.000068989821
       8       -0.000017866594     0.000010310874    -0.000017325308
       9       -0.000003347221    -0.000015939411    -0.000021726868
      10       -0.000027127797    -0.000011771802    -0.000025463463

  **** Optimization is complete! (in 5 steps) ****
    Final optimized geometry and variables:
    Molecular point group: c1

    Geometry (in Angstrom), charge = 0, multiplicity = 1:

    H           -0.248873185397    -1.804453112120     1.279443795339
    O           -0.104527917830    -1.320541666373     0.488785252282
    C           -0.777255806395    -0.096687523730     0.543481652409
    C           -0.085971880468     0.944789445243    -0.282124545190
    H           -0.853627999368     0.259166970427     1.568845877990
    H           -1.796393276870    -0.211212142558     0.178478333332
    C            1.041318935681     0.780639055246    -0.936058086680
    H           -0.595688562016     1.893105725278    -0.319859745248
    H            1.566542703293    -0.153817106090    -0.920566188598
    H            1.466472240628     1.582024423493    -1.510169754091

  Mulliken Charges: (a.u.)
   Center  Symbol    Alpha    Beta     Spin     Total
       1     H     0.39232  0.39232  0.00000  0.21536
       2     O     4.19432  4.19432  0.00000 -0.38865
       3     C     2.94009  2.94009  0.00000  0.11983
       4     C     3.08078  3.08078  0.00000 -0.16156
       5     H     0.47491  0.47491  0.00000  0.05018
       6     H     0.47217  0.47217  0.00000  0.05565
       7     C     3.17106  3.17106  0.00000 -0.34211
       8     H     0.42405  0.42405  0.00000  0.15191
       9     H     0.42011  0.42011  0.00000  0.15979
      10     H     0.43019  0.43019  0.00000  0.13961

   Total alpha = 16.00000, Total beta = 16.00000, Total charge =  0.00000
