                              Psi4 1.0.54 Driver

  ==> Input File <==

--------------------------------------------------------------------------
set {
	reference rhf
	basis cc-pvtz
}

set_num_threads( 4 )
memory 2 gb

molecule MOL {
0 1

H	 0.789710	 -0.405961	 2.315206
C	 -0.170628	 -0.447109	 1.822490
O	 0.000000	 0.000000	 0.518769
H	 -0.533533	 -1.472542	 1.847871
H	 -0.872155	 0.178996	 2.369945
C	 -1.165153	 0.000000	 -0.236961
H	 -1.229451	 0.882440	 -0.870223
H	 -2.002557	 0.000000	 0.445289
H	 -1.229451	 -0.882440	 -0.870223

	symmetry c1
}
set optking {
	frozen_dihedral = ("
		2 3 6 7
	")
}

ee,wfn = optimize('scf', return_wfn=True)
oeprop( wfn, 'DIPOLE', 'QUADRUPOLE', 'MULLIKEN_CHARGES')
f=open( 'psi4out.xyz', 'w' )
f.write( "9  " )
f.write( str(ee) + "\n" )
f.write( MOL.save_string_xyz() )
f.close()
--------------------------------------------------------------------------

    Molecular point group: c1
  Charge       = 0
  Multiplicity = 1
  Basis Set: CC-PVTZ
  Basis Set:
  @DF-RHF Final Energy:  -154.12338252605440
    Total Energy =                       -154.1233825260544563
    Molecular point group: c1
  Basis Set: CC-PVTZ
  Basis Set:
  Basis Set: CC-PVTZ
  Basis Set:
  @DF-RHF Final Energy:  -154.12417411973871
    Total Energy =                       -154.1241741197386830
  Basis Set: CC-PVTZ
  Basis Set:
  Basis Set: CC-PVTZ
  Basis Set:
  @DF-RHF Final Energy:  -154.12439938432382
    Total Energy =                       -154.1243993843237376
  Basis Set: CC-PVTZ
  Basis Set:
  Charge       = 0
  Multiplicity = 1
  Basis Set: CC-PVTZ
  Basis Set:

    Orbital Energies (a.u.)
    -----------------------

    Doubly Occupied:

       1A    -20.547568     2A    -11.263508     3A    -11.262735
       4A     -1.379068     5A     -0.975842     6A     -0.872675
       7A     -0.660808     8A     -0.654487     9A     -0.645312
      10A     -0.558268    11A     -0.527145    12A     -0.475310
      13A     -0.416630

  @DF-RHF Final Energy:  -154.12440107321973

   => Energetics <=

    Nuclear Repulsion Energy =             84.6556513126152197
    One-Electron Energy =                -377.0813978463974081
    Two-Electron Energy =                 138.3013454605624872
    DFT Exchange-Correlation Energy =       0.0000000000000000
    Empirical Dispersion Energy =           0.0000000000000000
    PCM Polarization Energy =               0.0000000000000000
    EFP Energy =                            0.0000000000000000
    Total Energy =                       -154.1244010732197296
    Molecular point group: c1
  Basis Set: CC-PVTZ
  Basis Set:

  -Total Gradient:
     Atom            X                  Y                   Z
    ------   -----------------  -----------------  -----------------
       1        0.000010643783     0.000014905847    -0.000043463396
       2       -0.000482010666     0.001936808137     0.000648869595
       3        0.000168663111    -0.002447146974    -0.000604421510
       4        0.000007959888     0.000025444798    -0.000024213347
       5       -0.000003541619     0.000008545891    -0.000022834969
       6        0.001404283137    -0.000804577029    -0.001883847746
       7       -0.001120859399     0.001271959528     0.001933344615
       8       -0.000020930543     0.000003761982     0.000007092248
       9        0.000035792308    -0.000009702181    -0.000010525489

  **** Optimization is complete! (in 4 steps) ****
    Final optimized geometry and variables:
    Molecular point group: c1

    Geometry (in Angstrom), charge = 0, multiplicity = 1:

    H            1.285377018748    -0.241027935881     1.585857438193
    C            0.311675698814    -0.289406623562     1.119936816752
    O            0.449258970860     0.148719631322    -0.191347557646
    H           -0.044989064207    -1.316234312474     1.168260566415
    H           -0.375400415328     0.340520592044     1.679917304618
    C           -0.721273107001     0.152121947858    -0.946705914659
    H           -0.736237128335     1.043850162694    -1.559546393352
    H           -1.605529741854     0.171982983575    -0.315776765074
    H           -0.776280387212    -0.724754847707    -1.584518227399

  Mulliken Charges: (a.u.)
   Center  Symbol    Alpha    Beta     Spin     Total
       1     H     0.44956  0.44956  0.00000  0.10087
       2     C     3.02099  3.02099  0.00000 -0.04198
       3     O     4.17158  4.17158  0.00000 -0.34315
       4     H     0.47348  0.47348  0.00000  0.05304
       5     H     0.47249  0.47249  0.00000  0.05502
       6     C     3.01731  3.01731  0.00000 -0.03462
       7     H     0.45457  0.45457  0.00000  0.09086
       8     H     0.47573  0.47573  0.00000  0.04855
       9     H     0.46430  0.46430  0.00000  0.07140

   Total alpha = 13.00000, Total beta = 13.00000, Total charge =  0.00000

*** Psi4 exiting successfully. Buy a developer a beer!
