  ==> Input File <==

--------------------------------------------------------------------------
set {
	reference rhf
	basis 6-31G*
}

set_num_threads( 4 )
memory 2 gb

molecule MOL {
0 1

H	 1.940639	 -1.343781	 1.020301
C	 1.119613	 -0.677528	 1.230251
O	 0.464886	 -0.454746	 -0.000158
H	 1.505648	 0.248586	 1.639291
H	 0.454062	 -1.144151	 1.946747
C	 -0.590998	 0.343045	 0.000118
O	 -1.699443	 -0.054298	 0.000227
H	 -0.340329	 1.404368	 0.000207

	symmetry c1
}
set optking {
	frozen_dihedral = ("
		2 3 6 7
	")
}

ee = optimize('scf')
oeprop('DIPOLE', 'QUADRUPOLE', 'MULLIKEN_CHARGES')
f=open( 'psi4out.xyz', 'w' )
f.write( "8  " )
f.write( str(ee) + "\n" )
f.write( MOL.save_string_xyz() )
f.close()
--------------------------------------------------------------------------

    Molecular point group: c1
  Charge       = 0
  Multiplicity = 1
  Basis Set: 6-31G*
  Basis Set:
  @DF-RHF Final Energy:  -227.76838846571496
    Total Energy =                       -227.7683884657149633
    Molecular point group: c1
  Basis Set: 6-31G*
  Basis Set:
  Basis Set: 6-31G*
  Basis Set:
  @DF-RHF Final Energy:  -227.76848630402222
    Total Energy =                       -227.7684863040221614
  Basis Set: 6-31G*
  Basis Set:
  Basis Set: 6-31G*
  Basis Set:
  @DF-RHF Final Energy:  -227.76854644078043
    Total Energy =                       -227.7685464407804830
  Basis Set: 6-31G*
  Basis Set:
  Basis Set: 6-31G*
  Basis Set:
  @DF-RHF Final Energy:  -227.76879550857251
    Total Energy =                       -227.7687955085725378
  Basis Set: 6-31G*
  Basis Set:
  Charge       = 0
  Multiplicity = 1
  Basis Set: 6-31G*
  Basis Set:

    Orbital Energies (a.u.)
    -----------------------

    Doubly Occupied:

       1A    -20.598102     2A    -20.574143     3A    -11.383971
       4A    -11.300555     5A     -1.470243     6A     -1.382810
       7A     -0.986173     8A     -0.837064     9A     -0.737569
      10A     -0.686672    11A     -0.667726    12A     -0.626232
      13A     -0.564282    14A     -0.510643    15A     -0.473561
      16A     -0.457535

  @DF-RHF Final Energy:  -227.76883767696535

   => Energetics <=

    Nuclear Repulsion Energy =            121.6401243399149621
    One-Electron Energy =                -552.3033596674017645
    Two-Electron Energy =                 202.8943976505215119
    DFT Exchange-Correlation Energy =       0.0000000000000000
    Empirical Dispersion Energy =           0.0000000000000000
    PCM Polarization Energy =               0.0000000000000000
    EFP Energy =                            0.0000000000000000
    Total Energy =                       -227.7688376769652905
    Molecular point group: c1
  Basis Set: 6-31G*
  Basis Set:

  -Total Gradient:
     Atom            X                  Y                   Z
    ------   -----------------  -----------------  -----------------
       1       -0.000047700117     0.000034214822    -0.000018013266
       2       -0.000907137778    -0.001263255461     0.000361801395
       3        0.001262647107     0.001669207127     0.000458165796
       4        0.000024371284     0.000036540728     0.000007064906
       5        0.000074161722    -0.000009681263     0.000077001669
       6       -0.000196484448    -0.000481559619    -0.002845450835
       7       -0.000153469706    -0.000058951701     0.001930697887
       8       -0.000056388063     0.000073485365     0.000028732448

  **** Optimization is complete! (in 5 steps) ****
    Final optimized geometry and variables:
    Molecular point group: c1

    Geometry (in Angstrom), charge = 0, multiplicity = 1:

    H            2.133973893627    -1.096368176159     0.700159081754
    C            1.282988790495    -0.464615608970     0.897403813885
    O            0.632562862865    -0.267811211988    -0.342889276054
    H            1.625113467382     0.478364841214     1.313169282292
    H            0.619019469169    -0.952733563579     1.599541657656
    C           -0.424419185385     0.557229537265    -0.322713115980
    O           -1.543451137403     0.195882880693    -0.294172103728
    H           -0.144490098996     1.609553535356    -0.344987306576

  Mulliken Charges: (a.u.)
   Center  Symbol    Alpha    Beta     Spin     Total
       1     H     0.39958  0.39958  0.00000  0.20084
       2     C     3.09451  3.09451  0.00000 -0.18903
       3     O     4.29461  4.29461  0.00000 -0.58922
       4     H     0.42004  0.42004  0.00000  0.15993
       5     H     0.40823  0.40823  0.00000  0.18353
       6     C     2.73458  2.73458  0.00000  0.53084
       7     O     4.22395  4.22395  0.00000 -0.44789
       8     H     0.42450  0.42450  0.00000  0.15100

   Total alpha = 16.00000, Total beta = 16.00000, Total charge =  0.00000
