                              Psi4 1.0.54 Driver

  ==> Input File <==

--------------------------------------------------------------------------
set {
	reference rhf
	basis cc-pvtz
}

set_num_threads( 4 )
memory 2 gb

molecule MOL {
0 1

H	 -3.401682	 -1.036167	 0.000000
O	 -3.113760	 -0.140926	 0.000000
C	 -1.775087	 -0.058754	 0.000000
C	 -1.074507	 0.573947	 -1.019467
C	 -1.098600	 -0.632490	 1.063661
H	 -1.606389	 1.016707	 -1.841351
C	 0.298137	 0.629619	 -0.970049
H	 -1.657934	 -1.115555	 1.839427
C	 0.276058	 -0.568070	 1.098170
H	 0.850240	 1.114853	 -1.750330
C	 0.990581	 0.059446	 0.089146
H	 0.801912	 -1.012843	 1.922896
C	 2.463075	 0.115964	 0.147697
O	 3.156780	 0.629062	 -0.665728
H	 2.905480	 -0.365275	 1.026610

	symmetry c1
}
set optking {
	frozen_dihedral = ("
		5 3 2 1
	")
}

ee,wfn = optimize('scf', return_wfn=True)
oeprop( wfn, 'DIPOLE', 'QUADRUPOLE', 'MULLIKEN_CHARGES')
f=open( 'psi4out.xyz', 'w' )
f.write( "15  " )
f.write( str(ee) + "\n" )
f.write( MOL.save_string_xyz() )
f.close()
--------------------------------------------------------------------------

    Molecular point group: c1
  Charge       = 0
  Multiplicity = 1
  Basis Set: CC-PVTZ
  Basis Set:
  @DF-RHF Final Energy:  -418.43663764649449
    Total Energy =                       -418.4366376464946597
    Molecular point group: c1
  Basis Set: CC-PVTZ
  Basis Set:
  Basis Set: CC-PVTZ
  Basis Set:
  @DF-RHF Final Energy:  -418.43806817443937
    Total Energy =                       -418.4380681744391950
  Basis Set: CC-PVTZ
  Basis Set:
  Basis Set: CC-PVTZ
  Basis Set:
  @DF-RHF Final Energy:  -418.43808452055140
    Total Energy =                       -418.4380845205508876
  Basis Set: CC-PVTZ
  Basis Set:
  Basis Set: CC-PVTZ
  Basis Set:
  @DF-RHF Final Energy:  -418.43773965416756
    Total Energy =                       -418.4377396541671033
  Basis Set: CC-PVTZ
  Basis Set:
  Basis Set: CC-PVTZ
  Basis Set:
  @DF-RHF Final Energy:  -418.43817625504096
    Total Energy =                       -418.4381762550409576
  Basis Set: CC-PVTZ
  Basis Set:
  Charge       = 0
  Multiplicity = 1
  Basis Set: CC-PVTZ
  Basis Set:

    Orbital Energies (a.u.)
    -----------------------

    Doubly Occupied:

       1A    -20.592058     2A    -20.549370     3A    -11.325401
       4A    -11.315077     5A    -11.258834     6A    -11.251539
       7A    -11.242278     8A    -11.241694     9A    -11.238552
      10A     -1.422129    11A     -1.405516    12A     -1.175585
      13A     -1.045695    14A     -1.040472    15A     -0.893065
      16A     -0.860166    17A     -0.802829    18A     -0.757889
      19A     -0.704504    20A     -0.684258    21A     -0.647139
      22A     -0.634696    23A     -0.623354    24A     -0.609974
      25A     -0.566327    26A     -0.558532    27A     -0.546151
      28A     -0.504969    29A     -0.489046    30A     -0.424259
      31A     -0.360212    32A     -0.342081

  @DF-RHF Final Energy:  -418.43817878852417

   => Energetics <=

    Nuclear Repulsion Energy =            401.8459597187700183
    One-Electron Energy =               -1366.3409717931313025
    Two-Electron Energy =                 546.0568332858370013
    DFT Exchange-Correlation Energy =       0.0000000000000000
    Empirical Dispersion Energy =           0.0000000000000000
    PCM Polarization Energy =               0.0000000000000000
    EFP Energy =                            0.0000000000000000
    Total Energy =                       -418.4381787885242829
    Molecular point group: c1
  Basis Set: CC-PVTZ
  Basis Set:

  -Total Gradient:
     Atom            X                  Y                   Z
    ------   -----------------  -----------------  -----------------
       1        0.000131894510    -0.000062616977    -0.002959464881
       2       -0.000219938009     0.001107071321     0.004245329866
       3        0.000253920923    -0.002817952481    -0.002550746667
       4       -0.000334810088    -0.000102654764     0.000112317485
       5        0.000156355230     0.001897928573     0.001145362970
       6        0.000013954150    -0.000000724019     0.000009256130
       7        0.000311519655    -0.000089346155     0.000147849343
       8       -0.000000017743     0.000002198898    -0.000006104284
       9       -0.000244275218    -0.000127024413     0.000111921919
      10       -0.000021027092     0.000007991218    -0.000002809115
      11        0.000009698543     0.000181553246    -0.000301561405
      12        0.000008818805     0.000014412762    -0.000006394106
      13       -0.000092384761    -0.000028020661     0.000173502332
      14        0.000026496517     0.000025404673    -0.000090078753
      15       -0.000000205425    -0.000008221222    -0.000028380832

  **** Optimization is complete! (in 6 steps) ****
    Final optimized geometry and variables:
    Molecular point group: c1

    Geometry (in Angstrom), charge = 0, multiplicity = 1:

    H           -3.454929503701    -1.045303917656     0.010491555360
    O           -3.120606336068    -0.165613639692    -0.004600955720
    C           -1.764475148390    -0.157286281115     0.041197665699
    C           -1.075452428913     0.490582133565    -0.973265770421
    C           -1.084262131158    -0.713987382819     1.107721303626
    H           -1.629583809572     0.926958353210    -1.780270703828
    C            0.296321772216     0.564045978753    -0.924914366670
    H           -1.631789198318    -1.186322273452     1.900334351404
    C            0.294199805964    -0.643903075270     1.140999480929
    H            0.843912133392     1.059450867010    -1.701891148372
    C            0.994562075500    -0.007882887631     0.131739383788
    H            0.826107075780    -1.079536472191     1.966603174982
    C            2.469829341637     0.061661391059     0.190615927728
    O            3.156744569659     0.580473571978    -0.623426607174
    H            2.916243528895    -0.416032565072     1.069395488791

  Mulliken Charges: (a.u.)
   Center  Symbol    Alpha    Beta     Spin     Total
       1     H     0.38423  0.38423  0.00000  0.23154
       2     O     4.18205  4.18205  0.00000 -0.36409
       3     C     2.86240  2.86240  0.00000  0.27520
       4     C     3.10580  3.10580  0.00000 -0.21160
       5     C     3.11957  3.11957  0.00000 -0.23914
       6     H     0.41263  0.41263  0.00000  0.17474
       7     C     3.06616  3.06616  0.00000 -0.13232
       8     H     0.41920  0.41920  0.00000  0.16161
       9     C     3.07709  3.07709  0.00000 -0.15417
      10     H     0.40698  0.40698  0.00000  0.18605
      11     C     2.99682  2.99682  0.00000  0.00635
      12     H     0.42113  0.42113  0.00000  0.15774
      13     C     2.91055  2.91055  0.00000  0.17890
      14     O     4.17574  4.17574  0.00000 -0.35148
      15     H     0.45967  0.45967  0.00000  0.08067

   Total alpha = 32.00000, Total beta = 32.00000, Total charge =  0.00000

*** Psi4 exiting successfully. Buy a developer a beer!
