  ==> Input File <==

--------------------------------------------------------------------------
set {
	reference rhf
	basis 6-31G*
}

set_num_threads( 4 )
memory 2 gb

molecule MOL {
0 1

O	 -2.042549	 -1.228399	 -0.269030
C	 -1.653912	 -0.146171	 0.050137
C	 -0.332303	 0.024011	 0.778412
C	 -2.438579	 1.106236	 -0.272369
C	 0.650782	 -1.095374	 0.401062
H	 0.105445	 0.992350	 0.552401
H	 -0.535769	 -0.015530	 1.842818
C	 1.986403	 -0.978941	 1.136990
H	 0.830646	 -1.080731	 -0.672492
H	 0.188977	 -2.052045	 0.626134
C	 2.962694	 -2.095926	 0.770377
H	 2.439009	 -0.015039	 0.914579
H	 1.806351	 -0.993079	 2.209347
H	 3.189260	 -2.086581	 -0.291995
H	 2.550387	 -3.071204	 1.011788
H	 3.899001	 -1.989676	 1.308955
H	 -3.277823	 0.863061	 -0.908988
H	 -1.806773	 1.843019	 -0.759671
H	 -2.802853	 1.554979	 0.648059

	symmetry c1
}
set optking {
	frozen_dihedral = ("
		5 3 2 4
	")
}

ee = optimize('scf')
oeprop('DIPOLE', 'QUADRUPOLE', 'MULLIKEN_CHARGES')
f=open( 'psi4out.xyz', 'w' )
f.write( "19  " )
f.write( str(ee) + "\n" )
f.write( MOL.save_string_xyz() )
f.close()
--------------------------------------------------------------------------

    Molecular point group: c1
  Charge       = 0
  Multiplicity = 1
  Basis Set: 6-31G*
  Basis Set:
  @DF-RHF Final Energy:  -309.06529207245615
    Total Energy =                       -309.0652920724560886
    Molecular point group: c1
  Basis Set: 6-31G*
  Basis Set:
  Basis Set: 6-31G*
  Basis Set:
  @DF-RHF Final Energy:  -309.06433243196494
    Total Energy =                       -309.0643324319653971
  Basis Set: 6-31G*
  Basis Set:
  Basis Set: 6-31G*
  Basis Set:
  @DF-RHF Final Energy:  -309.06579385353604
    Total Energy =                       -309.0657938535359790
  Basis Set: 6-31G*
  Basis Set:
  Basis Set: 6-31G*
  Basis Set:
  @DF-RHF Final Energy:  -309.06618819655239
    Total Energy =                       -309.0661881965523889
  Basis Set: 6-31G*
  Basis Set:
  Basis Set: 6-31G*
  Basis Set:
  @DF-RHF Final Energy:  -309.06565129467998
    Total Energy =                       -309.0656512946802650
  Basis Set: 6-31G*
  Basis Set:
  Basis Set: 6-31G*
  Basis Set:
  @DF-RHF Final Energy:  -309.06629368819318
    Total Energy =                       -309.0662936881933547
  Basis Set: 6-31G*
  Basis Set:
  Basis Set: 6-31G*
  Basis Set:
  @DF-RHF Final Energy:  -309.06632104804470
    Total Energy =                       -309.0663210480446423
  Basis Set: 6-31G*
  Basis Set:
  Charge       = 0
  Multiplicity = 1
  Basis Set: 6-31G*
  Basis Set:

    Orbital Energies (a.u.)
    -----------------------

    Doubly Occupied:

       1A    -20.549332     2A    -11.326442     3A    -11.231654
       4A    -11.228803     5A    -11.220291     6A    -11.219347
       7A    -11.210785     8A     -1.395132     9A     -1.086332
      10A     -1.029482    11A     -0.983939    12A     -0.886679
      13A     -0.802028    14A     -0.731269    15A     -0.658415
      16A     -0.648610    17A     -0.624438    18A     -0.611331
      19A     -0.581489    20A     -0.571969    21A     -0.553814
      22A     -0.531458    23A     -0.513142    24A     -0.488163
      25A     -0.475900    26A     -0.473162    27A     -0.468669
      28A     -0.399020

  @DF-RHF Final Energy:  -309.06632060573264

   => Energetics <=

    Nuclear Repulsion Energy =            300.7795610740925554
    One-Electron Energy =               -1014.6895738599383776
    Two-Electron Energy =                 404.8436921801131803
    DFT Exchange-Correlation Energy =       0.0000000000000000
    Empirical Dispersion Energy =           0.0000000000000000
    PCM Polarization Energy =               0.0000000000000000
    EFP Energy =                            0.0000000000000000
    Total Energy =                       -309.0663206057325851
    Molecular point group: c1
  Basis Set: 6-31G*
  Basis Set:

  -Total Gradient:
     Atom            X                  Y                   Z
    ------   -----------------  -----------------  -----------------
       1       -0.000000751340    -0.000037588065    -0.000000997563
       2       -0.000760898213     0.000090501929     0.001165751000
       3       -0.000169659424    -0.001000903442     0.000719445652
       4        0.000592290205     0.000133601376    -0.001096175293
       5        0.000513346946     0.000653183623    -0.000856748837
       6       -0.000022228354    -0.000071434747     0.000029995018
       7       -0.000046243902     0.000053438012     0.000074549266
       8       -0.000046442303     0.000076471623    -0.000028333246
       9       -0.000001632945     0.000014200243    -0.000054259688
      10        0.000053303665     0.000070946870     0.000001022656
      11       -0.000078055298    -0.000069904074     0.000012868590
      12        0.000001004656    -0.000001266535    -0.000041825135
      13       -0.000017820154     0.000055204836     0.000020067921
      14        0.000004799833     0.000010518099     0.000011534143
      15        0.000014622465    -0.000032491774    -0.000022258508
      16       -0.000025730572     0.000000810388     0.000022668404
      17        0.000037877048    -0.000000738538     0.000038711493
      18       -0.000027201280     0.000061354528    -0.000006367383
      19       -0.000020581035    -0.000005904352     0.000010351512

  **** Optimization is complete! (in 8 steps) ****
    Final optimized geometry and variables:
    Molecular point group: c1

    Geometry (in Angstrom), charge = 0, multiplicity = 1:

    O           -1.969913252607    -0.576028213073    -0.679743868328
    C           -1.545695411653     0.484905105770    -0.336569746742
    C           -0.217837273746     0.617478862105     0.391387232866
    C           -2.304861215179     1.765346012003    -0.607152181138
    C            0.793696997731    -0.466166709739     0.020171505162
    H            0.195881616561     1.606438727599     0.211259781109
    H           -0.440670746877     0.576932915599     1.457665772161
    C            2.101659954641    -0.343347457618     0.802778281723
    H            1.000788947481    -0.410737782686    -1.045996614363
    H            0.347809085336    -1.438948113220     0.192977597752
    C            3.109930272539    -1.433272874612     0.441046171009
    H            2.545817857445     0.633326354881     0.620963582915
    H            1.889882450407    -0.388115879787     1.869211596116
    H            3.371301943719    -1.391183795244    -0.612424522273
    H            2.706515972297    -2.421531111818     0.641333621850
    H            4.025818265003    -1.326544773681     1.013866010865
    H           -3.291585009920     1.537339293895    -0.985426890498
    H           -1.765747807153     2.356773368075    -1.342521840680
    H           -2.384116716019     2.367148052467     0.293491635456

  Mulliken Charges: (a.u.)
   Center  Symbol    Alpha    Beta     Spin     Total
       1     O     4.26260  4.26260  0.00000 -0.52520
       2     C     2.73390  2.73390  0.00000  0.53220
       3     C     3.21015  3.21015  0.00000 -0.42031
       4     C     3.28798  3.28798  0.00000 -0.57596
       5     C     3.15057  3.15057  0.00000 -0.30114
       6     H     0.41428  0.41428  0.00000  0.17143
       7     H     0.40464  0.40464  0.00000  0.19071
       8     C     3.15323  3.15323  0.00000 -0.30645
       9     H     0.41889  0.41889  0.00000  0.16222
      10     H     0.40484  0.40484  0.00000  0.19032
      11     C     3.23951  3.23951  0.00000 -0.47902
      12     H     0.42409  0.42409  0.00000  0.15182
      13     H     0.42281  0.42281  0.00000  0.15438
      14     H     0.42073  0.42073  0.00000  0.15854
      15     H     0.41927  0.41927  0.00000  0.16146
      16     H     0.41896  0.41896  0.00000  0.16209
      17     H     0.39706  0.39706  0.00000  0.20589
      18     H     0.40655  0.40655  0.00000  0.18691
      19     H     0.40995  0.40995  0.00000  0.18010

   Total alpha = 28.00000, Total beta = 28.00000, Total charge = -0.00000
