  ==> Input File <==

--------------------------------------------------------------------------
set {
	reference rhf
	basis 6-31G*
}

set_num_threads( 4 )
memory 2 gb

molecule MOL {
0 1

H	 2.652209	 0.763231	 0.000000
O	 2.263154	 -0.100023	 0.000000
C	 0.912879	 -0.015685	 0.000000
C	 0.225185	 -0.766644	 0.944308
C	 0.217939	 0.780641	 -0.895550
H	 0.783096	 -1.377501	 1.629434
C	 -1.154541	 -0.713625	 0.983748
H	 0.752111	 1.362891	 -1.627783
C	 -1.167705	 0.824394	 -0.844648
H	 -1.682496	 -1.297059	 1.716928
C	 -1.862540	 0.080883	 0.091330
H	 -1.699622	 1.445167	 -1.543501
H	 -2.935903	 0.117022	 0.128087

	symmetry c1
}
set optking {
	frozen_dihedral = ("
		4 3 2 1
	")
}

ee = optimize('scf')
oeprop('DIPOLE', 'QUADRUPOLE', 'MULLIKEN_CHARGES')
f=open( 'psi4out.xyz', 'w' )
f.write( "13  " )
f.write( str(ee) + "\n" )
f.write( MOL.save_string_xyz() )
f.close()
--------------------------------------------------------------------------

    Molecular point group: c1
  Charge       = 0
  Multiplicity = 1
  Basis Set: 6-31G*
  Basis Set:
  @DF-RHF Final Energy:  -305.55470357280484
    Total Energy =                       -305.5547035728048968
    Molecular point group: c1
  Basis Set: 6-31G*
  Basis Set:
  Basis Set: 6-31G*
  Basis Set:
  @DF-RHF Final Energy:  -305.55491987041751
    Total Energy =                       -305.5549198704173364
  Basis Set: 6-31G*
  Basis Set:
  Basis Set: 6-31G*
  Basis Set:
  @DF-RHF Final Energy:  -305.55494792027798
    Total Energy =                       -305.5549479202780958
  Basis Set: 6-31G*
  Basis Set:
  Charge       = 0
  Multiplicity = 1
  Basis Set: 6-31G*
  Basis Set:

    Orbital Energies (a.u.)
    -----------------------

    Doubly Occupied:

       1A    -20.581733     2A    -11.292357     3A    -11.235898
       4A    -11.234451     5A    -11.227926     6A    -11.225458
       7A    -11.224066     8A     -1.398095     9A     -1.147537
      10A     -1.018266    11A     -1.003748    12A     -0.839641
      13A     -0.822570    14A     -0.733661    15A     -0.681615
      16A     -0.646984    17A     -0.621379    18A     -0.592644
      19A     -0.588517    20A     -0.533104    21A     -0.513573
      22A     -0.491488    23A     -0.472204    24A     -0.337222
      25A     -0.317860

  @DF-RHF Final Energy:  -305.55495073757498

   => Energetics <=

    Nuclear Repulsion Energy =            272.8382867559010378
    One-Electron Energy =                -955.2224768524712317
    Two-Electron Energy =                 376.8292393589952667
    DFT Exchange-Correlation Energy =       0.0000000000000000
    Empirical Dispersion Energy =           0.0000000000000000
    PCM Polarization Energy =               0.0000000000000000
    EFP Energy =                            0.0000000000000000
    Total Energy =                       -305.5549507375748703
    Molecular point group: c1
  Basis Set: 6-31G*
  Basis Set:

  -Total Gradient:
     Atom            X                  Y                   Z
    ------   -----------------  -----------------  -----------------
       1       -0.000065178091    -0.000002650887     0.002407697022
       2        0.000197173849     0.000534576994    -0.002410891915
       3       -0.000401861093    -0.001743890416    -0.001163010470
       4       -0.000050316459     0.001343046400     0.001168194415
       5        0.000231757417    -0.000178274168     0.000029473898
       6        0.000040942031    -0.000020297496     0.000031229766
       7        0.000277620038    -0.000204532753     0.000059245912
       8       -0.000007014394     0.000010561968    -0.000003252940
       9       -0.000324671420    -0.000033745228     0.000128848597
      10        0.000022811402     0.000032841886    -0.000019782685
      11        0.000079144557     0.000277460694    -0.000232285747
      12        0.000018909721     0.000000700276     0.000003651751
      13       -0.000019317559    -0.000015797268     0.000000882395

  **** Optimization is complete! (in 4 steps) ****
    Final optimized geometry and variables:
    Molecular point group: c1

    Geometry (in Angstrom), charge = 0, multiplicity = 1:

    H            2.651027268015     0.751105029491    -0.057134790726
    O            2.269820472219    -0.115926650191    -0.055547770508
    C            0.908090784925    -0.033890597754    -0.029968154825
    C            0.221122881263    -0.782218788152     0.911897303634
    C            0.217223122248     0.763276788725    -0.928357444045
    H            0.778265606320    -1.389441207679     1.601016542039
    C           -1.162166040231    -0.739211576811     0.942960970309
    H            0.760336689174     1.331583475072    -1.663226064361
    C           -1.166962788568     0.811440351264    -0.879701819110
    H           -1.693425324119    -1.324445989689     1.672204859091
    C           -1.863029699470     0.059849506285     0.052216225458
    H           -1.699459116816     1.432673384464    -1.577639673059
    H           -2.936921947180     0.094800594736     0.084230785398

  Mulliken Charges: (a.u.)
   Center  Symbol    Alpha    Beta     Spin     Total
       1     H     0.27209  0.27209  0.00000  0.45582
       2     O     4.38483  4.38483  0.00000 -0.76966
       3     C     2.80827  2.80827  0.00000  0.38347
       4     C     3.11921  3.11921  0.00000 -0.23841
       5     C     3.13089  3.13089  0.00000 -0.26178
       6     H     0.39208  0.39208  0.00000  0.21583
       7     C     3.09458  3.09458  0.00000 -0.18916
       8     H     0.39941  0.39941  0.00000  0.20119
       9     C     3.09409  3.09409  0.00000 -0.18818
      10     H     0.39797  0.39797  0.00000  0.20405
      11     C     3.10846  3.10846  0.00000 -0.21692
      12     H     0.39820  0.39820  0.00000  0.20361
      13     H     0.39992  0.39992  0.00000  0.20016

   Total alpha = 25.00000, Total beta = 25.00000, Total charge =  0.00000
