  ==> Input File <==

--------------------------------------------------------------------------
set {
	reference rhf
	basis 6-31G*
}

set_num_threads( 4 )
memory 2 gb

molecule MOL {
0 1

H	 2.176868	 -0.646004	 -0.217325
O	 1.337496	 -0.537251	 0.205931
C	 0.702312	 0.627605	 -0.264544
C	 -0.714990	 0.596302	 0.266387
H	 0.682322	 0.642550	 -1.350929
H	 1.215941	 1.520383	 0.085680
O	 -1.405996	 -0.526611	 -0.195820
H	 -1.257453	 1.468809	 -0.075599
H	 -0.688972	 0.618407	 1.353696
H	 -2.142534	 -0.671418	 0.384316

	symmetry c1
}
set optking {
	frozen_dihedral = ("
		10 7 4 3
	")
}

ee = optimize('scf')
oeprop('DIPOLE', 'QUADRUPOLE', 'MULLIKEN_CHARGES')
f=open( 'psi4out.xyz', 'w' )
f.write( "10  " )
f.write( str(ee) + "\n" )
f.write( MOL.save_string_xyz() )
f.close()
--------------------------------------------------------------------------

    Molecular point group: c1
  Charge       = 0
  Multiplicity = 1
  Basis Set: 6-31G*
  Basis Set:
  @DF-RHF Final Energy:  -228.91732169787289
    Total Energy =                       -228.9173216978728647
    Molecular point group: c1
  Basis Set: 6-31G*
  Basis Set:
  Basis Set: 6-31G*
  Basis Set:
  @DF-RHF Final Energy:  -228.91928432091782
    Total Energy =                       -228.9192843209177965
  Basis Set: 6-31G*
  Basis Set:
  Basis Set: 6-31G*
  Basis Set:
  @DF-RHF Final Energy:  -228.91950150930361
    Total Energy =                       -228.9195015093035863
  Basis Set: 6-31G*
  Basis Set:
  Basis Set: 6-31G*
  Basis Set:
  @DF-RHF Final Energy:  -228.91955191445774
    Total Energy =                       -228.9195519144577702
  Basis Set: 6-31G*
  Basis Set:
  Basis Set: 6-31G*
  Basis Set:
  @DF-RHF Final Energy:  -228.91955880176957
    Total Energy =                       -228.9195588017695115
  Basis Set: 6-31G*
  Basis Set:
  Basis Set: 6-31G*
  Basis Set:
  @DF-RHF Final Energy:  -228.91956024744758
    Total Energy =                       -228.9195602474475777
  Basis Set: 6-31G*
  Basis Set:
  Charge       = 0
  Multiplicity = 1
  Basis Set: 6-31G*
  Basis Set:

    Orbital Energies (a.u.)
    -----------------------

    Doubly Occupied:

       1A    -20.552528     2A    -20.552109     3A    -11.269891
       4A    -11.269223     5A     -1.370632     6A     -1.349988
       7A     -1.001840     8A     -0.830418     9A     -0.713617
      10A     -0.708638    11A     -0.609267    12A     -0.599791
      13A     -0.589358    14A     -0.525360    15A     -0.471754
      16A     -0.440695    17A     -0.439562

  @DF-RHF Final Energy:  -228.91956053694418

   => Energetics <=

    Nuclear Repulsion Energy =            133.4437717417227418
    One-Electron Energy =                -578.1373245108377432
    Two-Electron Energy =                 215.7739922321708548
    DFT Exchange-Correlation Energy =       0.0000000000000000
    Empirical Dispersion Energy =           0.0000000000000000
    PCM Polarization Energy =               0.0000000000000000
    EFP Energy =                            0.0000000000000000
    Total Energy =                       -228.9195605369441466
    Molecular point group: c1
  Basis Set: 6-31G*
  Basis Set:

  -Total Gradient:
     Atom            X                  Y                   Z
    ------   -----------------  -----------------  -----------------
       1        0.000005895500     0.000007776155    -0.000006573064
       2       -0.000007494353    -0.000043724448     0.000025934120
       3        0.000039205253    -0.000038147701     0.000080307588
       4       -0.000011329123     0.000118003186    -0.000105461555
       5       -0.000011523983    -0.000008262233     0.000018270599
       6        0.000002091169     0.000009778900    -0.000001164001
       7       -0.000147558704     0.000121828698    -0.000115214566
       8        0.000003419675    -0.000012897985     0.000000341829
       9        0.000004416243    -0.000013393801    -0.000015559761
      10        0.000122878317    -0.000140960773     0.000119118812

  **** Optimization is complete! (in 7 steps) ****
    Final optimized geometry and variables:
    Molecular point group: c1

    Geometry (in Angstrom), charge = 0, multiplicity = 1:

    H            2.209777156984    -0.650206528941    -0.209556504791
    O            1.413777663672    -0.501949063418     0.279891323925
    C            0.699855735712     0.561546807189    -0.287671675197
    C           -0.700890626735     0.564176805099     0.277421808089
    H            0.639809266676     0.465946477571    -1.368435331371
    H            1.176504064970     1.513168905734    -0.056392480758
    O           -1.415894063898    -0.507254010730    -0.274095217754
    H           -1.180134647268     1.511188975852     0.034013409255
    H           -0.638745173477     0.483827577038     1.359084389010
    H           -2.161299590328    -0.710938456593     0.271341519270

  Mulliken Charges: (a.u.)
   Center  Symbol    Alpha    Beta     Spin     Total
       1     H     0.27963  0.27963  0.00000  0.44073
       2     O     4.36695  4.36695  0.00000 -0.73390
       3     C     3.00035  3.00035  0.00000 -0.00071
       4     C     3.00047  3.00047  0.00000 -0.00094
       5     H     0.42180  0.42180  0.00000  0.15640
       6     H     0.43163  0.43163  0.00000  0.13675
       7     O     4.36710  4.36710  0.00000 -0.73419
       8     H     0.43082  0.43082  0.00000  0.13836
       9     H     0.42192  0.42192  0.00000  0.15615
      10     H     0.27933  0.27933  0.00000  0.44134

   Total alpha = 17.00000, Total beta = 17.00000, Total charge = -0.00000
