                              Psi4 1.0.54 Driver

  ==> Input File <==

--------------------------------------------------------------------------
set {
	reference rhf
	basis cc-pvtz
}

set_num_threads( 4 )
memory 2 gb

molecule MOL {
0 1

H	 4.379745	 3.385746	 -1.498212
C	 3.512836	 3.191945	 -2.119320
C	 2.530344	 2.259393	 -1.419049
H	 3.048739	 4.145524	 -2.346296
H	 3.863757	 2.764234	 -3.052978
C	 1.299531	 1.954764	 -2.270091
H	 2.219947	 2.705833	 -0.481348
H	 3.033980	 1.327786	 -1.171496
C	 0.300983	 1.018330	 -1.597126
H	 0.798038	 2.879852	 -2.526109
H	 1.618265	 1.499206	 -3.203182
C	 -0.477070	 1.639334	 -0.449314
H	 -0.440230	 0.688301	 -2.320624
H	 0.790938	 0.115081	 -1.245553
C	 -1.180025	 0.697761	 0.509157
O	 -0.554066	 2.817784	 -0.312928
C	 -2.285431	 -0.137488	 -0.145671
H	 -1.592427	 1.304413	 1.303975
H	 -0.437467	 0.034484	 0.944895
C	 -3.646545	 0.082747	 0.508954
H	 -2.348635	 0.118247	 -1.199806
H	 -2.034895	 -1.192387	 -0.096473
C	 -4.757412	 -0.737227	 -0.138149
H	 -3.900211	 1.137405	 0.459735
H	 -3.580878	 -0.166775	 1.564416
H	 -4.867876	 -0.486707	 -1.187777
H	 -4.549650	 -1.800049	 -0.072540
H	 -5.709585	 -0.556397	 0.346597

	symmetry c1
}
set optking {
	frozen_dihedral = ("
		12 15 17 21
	")
}

ee,wfn = optimize('scf', return_wfn=True)
oeprop( wfn, 'DIPOLE', 'QUADRUPOLE', 'MULLIKEN_CHARGES')
f=open( 'psi4out.xyz', 'w' )
f.write( "28  " )
f.write( str(ee) + "\n" )
f.write( MOL.save_string_xyz() )
f.close()
--------------------------------------------------------------------------

    Molecular point group: c1
  Charge       = 0
  Multiplicity = 1
  Basis Set: CC-PVTZ
  Basis Set:
  @DF-RHF Final Energy:  -426.31420521003633
    Total Energy =                       -426.3142052100359933
    Molecular point group: c1
  Basis Set: CC-PVTZ
  Basis Set:
  Basis Set: CC-PVTZ
  Basis Set:
  @DF-RHF Final Energy:  -426.31429468100782
    Total Energy =                       -426.3142946810069134
  Basis Set: CC-PVTZ
  Basis Set:
  Basis Set: CC-PVTZ
  Basis Set:
  @DF-RHF Final Energy:  -426.31463529519203
    Total Energy =                       -426.3146352951919198
  Basis Set: CC-PVTZ
  Basis Set:
  Basis Set: CC-PVTZ
  Basis Set:
  @DF-RHF Final Energy:  -426.31478774658774
    Total Energy =                       -426.3147877465886495
  Basis Set: CC-PVTZ
  Basis Set:
  @DF-RHF Final Energy:  -425.93811972775472
    Total Energy =                       -425.9381197277548381
  @DF-RHF Final Energy:  -426.08369076218946
    Total Energy =                       -426.0836907621893488
  @DF-RHF Final Energy:  -426.26103959442810
    Total Energy =                       -426.2610395944275297
  @DF-RHF Final Energy:  -426.31165482472011
    Total Energy =                       -426.3116548247201081
  @DF-RHF Final Energy:  -426.31456935191625
    Total Energy =                       -426.3145693519161341
  @DF-RHF Final Energy:  -426.31495002320969
    Total Energy =                       -426.3149500232100308
  @DF-RHF Final Energy:  -426.31513153932440
    Total Energy =                       -426.3151315393245113
  Basis Set: CC-PVTZ
  Basis Set:
  @DF-RHF Final Energy:  -426.31527124869785
    Total Energy =                       -426.3152712486973996
  Basis Set: CC-PVTZ
  Basis Set:
  Basis Set: CC-PVTZ
  Basis Set:
  @DF-RHF Final Energy:  -426.31530041514759
    Total Energy =                       -426.3153004151478171
  Basis Set: CC-PVTZ
  Basis Set:
  Basis Set: CC-PVTZ
  Basis Set:
  @DF-RHF Final Energy:  -426.31530976886245
    Total Energy =                       -426.3153097688626758
  Basis Set: CC-PVTZ
  Basis Set:
  Charge       = 0
  Multiplicity = 1
  Basis Set: CC-PVTZ
  Basis Set:

    Orbital Energies (a.u.)
    -----------------------

    Doubly Occupied:

       1A    -20.536274     2A    -11.316801     3A    -11.229358
       4A    -11.229155     5A    -11.226052     6A    -11.220157
       7A    -11.214604     8A    -11.211140     9A    -11.208671
      10A    -11.202786    11A     -1.396533    12A     -1.092393
      13A     -1.077866    14A     -1.023000    15A     -0.990036
      16A     -0.908919    17A     -0.870932    18A     -0.807992
      19A     -0.798321    20A     -0.727318    21A     -0.672898
      22A     -0.644326    23A     -0.629165    24A     -0.618510
      25A     -0.608719    26A     -0.586174    27A     -0.580898
      28A     -0.573094    29A     -0.535331    30A     -0.534829
      31A     -0.529415    32A     -0.510906    33A     -0.501015
      34A     -0.478955    35A     -0.478096    36A     -0.472225
      37A     -0.466771    38A     -0.463962    39A     -0.457054
      40A     -0.393695

  @DF-RHF Final Energy:  -426.31531062648276

   => Energetics <=

    Nuclear Repulsion Energy =            533.3078815809966500
    One-Electron Energy =               -1635.1976966387474022
    Two-Electron Energy =                 675.5745044312681102
    DFT Exchange-Correlation Energy =       0.0000000000000000
    Empirical Dispersion Energy =           0.0000000000000000
    PCM Polarization Energy =               0.0000000000000000
    EFP Energy =                            0.0000000000000000
    Total Energy =                       -426.3153106264825283
    Molecular point group: c1
  Basis Set: CC-PVTZ
  Basis Set:

  -Total Gradient:
     Atom            X                  Y                   Z
    ------   -----------------  -----------------  -----------------
       1       -0.000005779181    -0.000003272667     0.000005889129
       2        0.000009917836    -0.000018849396    -0.000006200454
       3       -0.000037141403     0.000002991864     0.000026480032
       4       -0.000004752745    -0.000001412439     0.000001355118
       5       -0.000003069006     0.000006536428    -0.000000818890
       6        0.000005091056     0.000047305958    -0.000004858341
       7        0.000008641665    -0.000003814419    -0.000005867215
       8        0.000000365370    -0.000001127397    -0.000015662564
       9        0.000013864382    -0.000061677098     0.000011136843
      10       -0.000001137574    -0.000008121181    -0.000001520077
      11       -0.000002056257    -0.000006553081     0.000008260720
      12       -0.000232712233     0.000369223161    -0.000019294055
      13        0.000007784286     0.000015490167    -0.000018850276
      14        0.000009956721    -0.000008489506     0.000008314248
      15        0.000366132423    -0.000675246041     0.000084955246
      16        0.000007504487     0.000051315601    -0.000030403754
      17       -0.000442344118     0.000779160048    -0.000064990962
      18       -0.000021992754     0.000002531331    -0.000006811465
      19       -0.000006139199     0.000009947953    -0.000022450702
      20       -0.000009171588     0.000031551584    -0.000004010898
      21        0.000314240385    -0.000519170898     0.000051319014
      22        0.000015614413     0.000014429406    -0.000003755489
      23        0.000005088795    -0.000019820227     0.000025268992
      24        0.000000919459    -0.000015231823     0.000003206905
      25       -0.000005124782    -0.000007063900    -0.000020363886
      26        0.000005067157     0.000004902083     0.000017145773
      27       -0.000003827183     0.000016963015    -0.000012761007
      28        0.000005059582    -0.000002498529    -0.000004711985

  **** Optimization is complete! (in 15 steps) ****
    Final optimized geometry and variables:
    Molecular point group: c1

    Geometry (in Angstrom), charge = 0, multiplicity = 1:

    H            4.799125784591     1.823244069975    -1.747167326096
    C            4.030883360342     1.127689003032    -2.064757555850
    C            3.162552306698     0.692206830246    -0.889402150276
    H            3.435410570037     1.618663647953    -2.826825095231
    H            4.524136811389     0.278289535342    -2.526543700237
    C            2.077950880365    -0.302665062248    -1.297444765912
    H            2.702269462312     1.563060831868    -0.439616986911
    H            3.792230247878     0.239212557210    -0.127075993475
    C            1.188734089607    -0.758196452174    -0.145206295887
    H            1.458448454005     0.134978097472    -2.071589609847
    H            2.550051208307    -1.179645618084    -1.730996285320
    C            0.163205427173     0.255217639037     0.325066899798
    H            0.636626507179    -1.654110221027    -0.419600554908
    H            1.787309066939    -1.044303406062     0.716285517085
    C           -0.760506236979    -0.184260144685     1.443795167602
    O            0.047681566717     1.326942421851    -0.176351985841
    C           -2.000517115652    -0.934515887085     0.893091966930
    H           -1.070006603098     0.709488473088     1.967493517826
    H           -0.222629345552    -0.811825642781     2.143542437358
    C           -3.319911262800    -0.277306889261     1.289907292496
    H           -1.951423737091    -0.991076427412    -0.189904618856
    H           -1.991346265448    -1.960148380718     1.245543712938
    C           -4.538138555776    -1.019194417608     0.752477084105
    H           -3.326354267826     0.745926237965     0.928100630297
    H           -3.378286824831    -0.220936943355     2.373300796622
    H           -4.523531262992    -1.061620407656    -0.331419245662
    H           -4.572452055286    -2.038610209801     1.122540531195
    H           -5.456957284079    -0.528356177096     1.051087303222

  Mulliken Charges: (a.u.)
   Center  Symbol    Alpha    Beta     Spin     Total
       1     H     0.44875  0.44875  0.00000  0.10250
       2     C     3.15168  3.15168  0.00000 -0.30336
       3     C     3.08337  3.08337  0.00000 -0.16674
       4     H     0.45227  0.45227  0.00000  0.09545
       5     H     0.45743  0.45743  0.00000  0.08514
       6     C     3.08781  3.08781  0.00000 -0.17562
       7     H     0.44330  0.44330  0.00000  0.11339
       8     H     0.45892  0.45892  0.00000  0.08215
       9     C     3.12794  3.12794  0.00000 -0.25587
      10     H     0.44678  0.44678  0.00000  0.10644
      11     H     0.44808  0.44808  0.00000  0.10385
      12     C     2.86667  2.86667  0.00000  0.26665
      13     H     0.43260  0.43260  0.00000  0.13480
      14     H     0.44221  0.44221  0.00000  0.11559
      15     C     3.10435  3.10435  0.00000 -0.20871
      16     O     4.18184  4.18184  0.00000 -0.36369
      17     C     3.09397  3.09397  0.00000 -0.18794
      18     H     0.43939  0.43939  0.00000  0.12123
      19     H     0.44105  0.44105  0.00000  0.11791
      20     C     3.08336  3.08336  0.00000 -0.16672
      21     H     0.45283  0.45283  0.00000  0.09435
      22     H     0.44869  0.44869  0.00000  0.10262
      23     C     3.15084  3.15084  0.00000 -0.30167
      24     H     0.44630  0.44630  0.00000  0.10740
      25     H     0.45301  0.45301  0.00000  0.09398
      26     H     0.45365  0.45365  0.00000  0.09269
      27     H     0.45594  0.45594  0.00000  0.08813
      28     H     0.44697  0.44697  0.00000  0.10605

   Total alpha = 40.00000, Total beta = 40.00000, Total charge = -0.00000

*** Psi4 exiting successfully. Buy a developer a beer!
