  ==> Input File <==

--------------------------------------------------------------------------
set {
	reference rhf
	basis 6-31G*
}

set_num_threads( 4 )
memory 2 gb

molecule MOL {
0 1

O	 -1.970288	 -0.604191	 0.405231
C	 -1.083277	 0.139568	 0.115197
C	 0.323299	 -0.082943	 0.642902
C	 -1.315216	 1.347504	 -0.765101
C	 1.355627	 -0.005344	 -0.493127
H	 0.396251	 -1.044647	 1.143147
H	 0.528637	 0.693580	 1.371677
C	 2.786168	 -0.195604	 0.007473
H	 1.132807	 -0.760304	 -1.243899
H	 1.259610	 0.958506	 -0.981915
H	 3.495561	 -0.130713	 -0.811210
H	 2.912696	 -1.165395	 0.480041
H	 3.049284	 0.565503	 0.735850
H	 -0.922720	 2.245906	 -0.297672
H	 -2.372051	 1.466116	 -0.959435
H	 -0.787558	 1.219567	 -1.706597

	symmetry c1
}
set optking {
	frozen_dihedral = ("
		4 2 3 5
	")
}

ee = optimize('scf')
oeprop('DIPOLE', 'QUADRUPOLE', 'MULLIKEN_CHARGES')
f=open( 'psi4out.xyz', 'w' )
f.write( "16  " )
f.write( str(ee) + "\n" )
f.write( MOL.save_string_xyz() )
f.close()
--------------------------------------------------------------------------

    Molecular point group: c1
  Charge       = 0
  Multiplicity = 1
  Basis Set: 6-31G*
  Basis Set:
  @DF-RHF Final Energy:  -270.02800122775255
    Total Energy =                       -270.0280012277526112
    Molecular point group: c1
  Basis Set: 6-31G*
  Basis Set:
  Basis Set: 6-31G*
  Basis Set:
  @DF-RHF Final Energy:  -270.02937801473865
    Total Energy =                       -270.0293780147387679
  Basis Set: 6-31G*
  Basis Set:
  Basis Set: 6-31G*
  Basis Set:
  @DF-RHF Final Energy:  -270.02942219030547
    Total Energy =                       -270.0294221903054108
  Basis Set: 6-31G*
  Basis Set:
  Basis Set: 6-31G*
  Basis Set:
  @DF-RHF Final Energy:  -270.02961474399149
    Total Energy =                       -270.0296147439914876
  Basis Set: 6-31G*
  Basis Set:
  @DF-RHF Final Energy:  -270.02970278677748
    Total Energy =                       -270.0297027867773068
  @DF-RHF Final Energy:  -270.02931218673285
    Total Energy =                       -270.0293121867330797
  Basis Set: 6-31G*
  Basis Set:
  @DF-RHF Final Energy:  -270.02974247697216
    Total Energy =                       -270.0297424769719896
  Basis Set: 6-31G*
  Basis Set:
  Basis Set: 6-31G*
  Basis Set:
  @DF-RHF Final Energy:  -270.02974951678914
    Total Energy =                       -270.0297495167891952
  Basis Set: 6-31G*
  Basis Set:
  Basis Set: 6-31G*
  Basis Set:
  @DF-RHF Final Energy:  -270.02975262011540
    Total Energy =                       -270.0297526201155165
  Basis Set: 6-31G*
  Basis Set:
  Charge       = 0
  Multiplicity = 1
  Basis Set: 6-31G*
  Basis Set:

    Orbital Energies (a.u.)
    -----------------------

    Doubly Occupied:

       1A    -20.548147     2A    -11.325096     3A    -11.235732
       4A    -11.230738     5A    -11.227959     6A    -11.221491
       7A     -1.393584     8A     -1.085740     9A     -1.010166
      10A     -0.951378    11A     -0.833950    12A     -0.734629
      13A     -0.658584    14A     -0.650343    15A     -0.619725
      16A     -0.603939    17A     -0.577607    18A     -0.552736
      19A     -0.536134    20A     -0.520832    21A     -0.505302
      22A     -0.487428    23A     -0.474284    24A     -0.398461

  @DF-RHF Final Energy:  -270.02975334887060

   => Energetics <=

    Nuclear Repulsion Energy =            236.8862074379641172
    One-Electron Energy =                -835.0639530854627992
    Two-Electron Energy =                 328.1479922986280826
    DFT Exchange-Correlation Energy =       0.0000000000000000
    Empirical Dispersion Energy =           0.0000000000000000
    PCM Polarization Energy =               0.0000000000000000
    EFP Energy =                            0.0000000000000000
    Total Energy =                       -270.0297533488705994
    Molecular point group: c1
  Basis Set: 6-31G*
  Basis Set:

  -Total Gradient:
     Atom            X                  Y                   Z
    ------   -----------------  -----------------  -----------------
       1        0.000020604140    -0.000005976130     0.000006887004
       2       -0.000168461589     0.000704409015     0.000702745604
       3        0.000009074055    -0.000884296455    -0.000353337904
       4        0.000098421559    -0.000331535039    -0.000481839880
       5        0.000019425031     0.000505940569     0.000093771063
       6        0.000016084625    -0.000009063806     0.000005576454
       7       -0.000007061283    -0.000001344460     0.000001357844
       8        0.000003867263    -0.000005433574     0.000007144113
       9        0.000001629160     0.000001698497    -0.000001252498
      10       -0.000010422238     0.000004763386     0.000000359583
      11       -0.000000019460     0.000001648654     0.000000502471
      12        0.000002144779     0.000000243031    -0.000000031912
      13       -0.000001051618    -0.000001261551    -0.000000386684
      14        0.000006307781     0.000001241913     0.000013182366
      15       -0.000000075684     0.000005369609     0.000001988980
      16        0.000009533483     0.000013596342     0.000003333395

  **** Optimization is complete! (in 10 steps) ****
    Final optimized geometry and variables:
    Molecular point group: c1

    Geometry (in Angstrom), charge = 0, multiplicity = 1:

    O           -1.975391931064    -0.729656473896     0.441420684387
    C           -1.116577574685     0.039171166756     0.132465796418
    C            0.311010132820    -0.146274780372     0.615598562248
    C           -1.421206014403     1.234460192792    -0.747382970440
    C            1.380346779456    -0.066044511731    -0.481552993385
    H            0.352679959602    -1.103176137819     1.121892356326
    H            0.506728325871     0.624094022145     1.361097954958
    C            2.781248656840    -0.340104448312     0.063829687909
    H            1.151591050502    -0.785943186619    -1.263773454226
    H            1.364080067874     0.914694905187    -0.947720904036
    H            3.524591428076    -0.278281883552    -0.724287584385
    H            2.843479718726    -1.331143510004     0.502616312422
    H            3.050309938715     0.379779290304     0.831395499625
    H           -0.951142697181     2.136578474045    -0.368596400053
    H           -2.491979588145     1.372809962812    -0.803882345815
    H           -1.037028601093     1.063470236492    -1.748761364533

  Mulliken Charges: (a.u.)
   Center  Symbol    Alpha    Beta     Spin     Total
       1     O     4.26137  4.26137  0.00000 -0.52274
       2     C     2.73207  2.73207  0.00000  0.53587
       3     C     3.20524  3.20524  0.00000 -0.41047
       4     C     3.29127  3.29127  0.00000 -0.58253
       5     C     3.16399  3.16399  0.00000 -0.32798
       6     H     0.39906  0.39906  0.00000  0.20189
       7     H     0.41079  0.41079  0.00000  0.17842
       8     C     3.23972  3.23972  0.00000 -0.47944
       9     H     0.41472  0.41472  0.00000  0.17056
      10     H     0.41783  0.41783  0.00000  0.16435
      11     H     0.41555  0.41555  0.00000  0.16890
      12     H     0.41682  0.41682  0.00000  0.16636
      13     H     0.41971  0.41971  0.00000  0.16057
      14     H     0.41164  0.41164  0.00000  0.17672
      15     H     0.39588  0.39588  0.00000  0.20825
      16     H     0.40436  0.40436  0.00000  0.19129

   Total alpha = 24.00000, Total beta = 24.00000, Total charge =  0.00000
