  ==> Input File <==

--------------------------------------------------------------------------
set {
	reference rhf
	basis 6-31G*
}

set_num_threads( 4 )
memory 2 gb

molecule MOL {
0 1

H	 2.740909	 -0.108182	 -0.909201
N	 2.332695	 -0.069570	 0.000000
C	 0.936681	 -0.007078	 0.000000
H	 2.710708	 -0.782856	 0.585753
C	 0.227108	 -0.002120	 -1.198267
C	 0.227108	 -0.002120	 1.198267
H	 0.761569	 -0.014657	 -2.132680
C	 -1.156334	 0.010459	 -1.192360
H	 0.761569	 -0.014657	 2.132680
C	 -1.156334	 0.010459	 1.192360
H	 -1.684791	 0.014915	 -2.129421
C	 -1.862085	 0.017996	 0.000000
H	 -1.684791	 0.014915	 2.129421
H	 -2.936703	 0.028387	 0.000000

	symmetry c1
}
set optking {
	frozen_dihedral = ("
		1 2 3 5
	")
}

ee = optimize('scf')
oeprop('DIPOLE', 'QUADRUPOLE', 'MULLIKEN_CHARGES')
f=open( 'psi4out.xyz', 'w' )
f.write( "14  " )
f.write( str(ee) + "\n" )
f.write( MOL.save_string_xyz() )
f.close()
--------------------------------------------------------------------------

    Molecular point group: c1
  Charge       = 0
  Multiplicity = 1
  Basis Set: 6-31G*
  Basis Set:
  @DF-RHF Final Energy:  -285.72874289440506
    Total Energy =                       -285.7287428944048884
    Molecular point group: c1
  Basis Set: 6-31G*
  Basis Set:
  Basis Set: 6-31G*
  Basis Set:
  @DF-RHF Final Energy:  -285.72905214433865
    Total Energy =                       -285.7290521443384250
  Basis Set: 6-31G*
  Basis Set:
  Basis Set: 6-31G*
  Basis Set:
  @DF-RHF Final Energy:  -285.72913516559203
    Total Energy =                       -285.7291351655922540
  Basis Set: 6-31G*
  Basis Set:
  Basis Set: 6-31G*
  Basis Set:
  @DF-RHF Final Energy:  -285.72913786025356
    Total Energy =                       -285.7291378602533314
  Basis Set: 6-31G*
  Basis Set:
  Charge       = 0
  Multiplicity = 1
  Basis Set: 6-31G*
  Basis Set:

    Orbital Energies (a.u.)
    -----------------------

    Doubly Occupied:

       1A    -15.557038     2A    -11.268809     3A    -11.228340
       4A    -11.227891     5A    -11.218706     6A    -11.216861
       7A    -11.215029     8A     -1.218242     9A     -1.124925
      10A     -1.009119    11A     -0.983627    12A     -0.827748
      13A     -0.808512    14A     -0.702675    15A     -0.681763
      16A     -0.650891    17A     -0.600430    18A     -0.591309
      19A     -0.579058    20A     -0.519760    21A     -0.502347
      22A     -0.485250    23A     -0.436533    24A     -0.330479
      25A     -0.292990

  @DF-RHF Final Energy:  -285.72913859248939

   => Energetics <=

    Nuclear Repulsion Energy =            272.9658575435070702
    One-Electron Energy =                -926.8333280582357929
    Two-Electron Energy =                 368.1383319222395016
    DFT Exchange-Correlation Energy =       0.0000000000000000
    Empirical Dispersion Energy =           0.0000000000000000
    PCM Polarization Energy =               0.0000000000000000
    EFP Energy =                            0.0000000000000000
    Total Energy =                       -285.7291385924891642
    Molecular point group: c1
  Basis Set: 6-31G*
  Basis Set:

  -Total Gradient:
     Atom            X                  Y                   Z
    ------   -----------------  -----------------  -----------------
       1        0.000052537395     0.003069007996     0.000004196034
       2       -0.000047035926    -0.005192585472    -0.000050543426
       3       -0.000013644702     0.004447753041     0.000088221801
       4       -0.000029739477     0.000007685338    -0.000005087062
       5       -0.000012405824    -0.002351138708    -0.000032012609
       6        0.000073215304     0.000040084665    -0.000015272119
       7       -0.000000238351     0.000010819939     0.000005929000
       8        0.000041213618    -0.000017552606    -0.000023949008
       9        0.000005665649     0.000000095122     0.000004193989
      10       -0.000084334944    -0.000039963613    -0.000036366676
      11       -0.000011486519     0.000003705663     0.000013882827
      12        0.000026774784     0.000005151273     0.000075122972
      13        0.000006178462     0.000005251080    -0.000008998520
      14       -0.000006699474     0.000011686281    -0.000019317204

  **** Optimization is complete! (in 5 steps) ****
    Final optimized geometry and variables:
    Molecular point group: c1

    Geometry (in Angstrom), charge = 0, multiplicity = 1:

    H            2.760090342381    -0.041544268840    -0.887267714951
    N            2.335903398977    -0.037353234813     0.014822989952
    C            0.935022233371    -0.018666141522    -0.004467328572
    H            2.736704734367    -0.728982531952     0.611029209422
    C            0.223131027090    -0.007245555325    -1.198731789463
    C            0.229946390180    -0.002346750425     1.197174008242
    H            0.753155366769    -0.032486003646    -2.135638779360
    C           -1.161660709478     0.043400696393    -1.189794815000
    H            0.773134994187     0.000452143555     2.125941781549
    C           -1.151788338900     0.025920144848     1.196646829869
    H           -1.693462175655     0.060428762756    -2.124848324545
    C           -1.860608795545     0.054630476264     0.004358359796
    H           -1.678530479808     0.036466243782     2.134651965551
    H           -2.935025873274     0.085265970368     0.008435987421

  Mulliken Charges: (a.u.)
   Center  Symbol    Alpha    Beta     Spin     Total
       1     H     0.32022  0.32022  0.00000  0.35956
       2     N     3.95086  3.95086  0.00000 -0.90172
       3     C     2.85490  2.85490  0.00000  0.29021
       4     H     0.31889  0.31889  0.00000  0.36223
       5     C     3.12801  3.12801  0.00000 -0.25602
       6     C     3.12038  3.12038  0.00000 -0.24076
       7     H     0.40531  0.40531  0.00000  0.18937
       8     C     3.09104  3.09104  0.00000 -0.18209
       9     H     0.40072  0.40072  0.00000  0.19855
      10     C     3.09179  3.09179  0.00000 -0.18359
      11     H     0.40089  0.40089  0.00000  0.19823
      12     C     3.11372  3.11372  0.00000 -0.22745
      13     H     0.40072  0.40072  0.00000  0.19855
      14     H     0.40254  0.40254  0.00000  0.19493

   Total alpha = 25.00000, Total beta = 25.00000, Total charge =  0.00000
