  ==> Input File <==

--------------------------------------------------------------------------
set {
	reference rhf
	basis 6-31G*
}

set_num_threads( 4 )
memory 2 gb

molecule MOL {
0 1

H	 1.143716	 1.697015	 -0.647070
O	 0.325359	 1.211268	 -0.679818
C	 0.489431	 0.077273	 0.000046
C	 -0.764129	 -0.759190	 0.000191
O	 1.516244	 -0.202371	 0.527320
C	 -2.038368	 0.075731	 -0.000248
H	 -0.717284	 -1.412404	 -0.866059
H	 -0.717458	 -1.411724	 0.866967
H	 -2.086483	 0.712501	 -0.875098
H	 -2.908485	 -0.571682	 -0.000042
H	 -2.086576	 0.713280	 0.874068

	symmetry c1
}
set optking {
	frozen_dihedral = ("
		2 3 4 7
	")
}

ee = optimize('scf')
oeprop('DIPOLE', 'QUADRUPOLE', 'MULLIKEN_CHARGES')
f=open( 'psi4out.xyz', 'w' )
f.write( "11  " )
f.write( str(ee) + "\n" )
f.write( MOL.save_string_xyz() )
f.close()
--------------------------------------------------------------------------

    Molecular point group: c1
  Charge       = 0
  Multiplicity = 1
  Basis Set: 6-31G*
  Basis Set:
  @DF-RHF Final Energy:  -266.84334459076240
    Total Energy =                       -266.8433445907622854
    Molecular point group: c1
  Basis Set: 6-31G*
  Basis Set:
  Basis Set: 6-31G*
  Basis Set:
  @DF-RHF Final Energy:  -266.84359699889177
    Total Energy =                       -266.8435969988918259
  Basis Set: 6-31G*
  Basis Set:
  Basis Set: 6-31G*
  Basis Set:
  @DF-RHF Final Energy:  -266.84389692209561
    Total Energy =                       -266.8438969220957233
  Basis Set: 6-31G*
  Basis Set:
  Basis Set: 6-31G*
  Basis Set:
  @DF-RHF Final Energy:  -266.84395923880322
    Total Energy =                       -266.8439592388032224
  Basis Set: 6-31G*
  Basis Set:
  Basis Set: 6-31G*
  Basis Set:
  @DF-RHF Final Energy:  -266.84396018383370
    Total Energy =                       -266.8439601838336444
  Basis Set: 6-31G*
  Basis Set:
  Charge       = 0
  Multiplicity = 1
  Basis Set: 6-31G*
  Basis Set:

    Orbital Energies (a.u.)
    -----------------------

    Doubly Occupied:

       1A    -20.615434     2A    -20.549562     3A    -11.382007
       4A    -11.244168     5A    -11.226063     6A     -1.476195
       7A     -1.365510     8A     -1.066771     9A     -0.910033
      10A     -0.822084    11A     -0.701636    12A     -0.678912
      13A     -0.653530    14A     -0.602151    15A     -0.588391
      16A     -0.551284    17A     -0.525643    18A     -0.512401
      19A     -0.474121    20A     -0.440399

  @DF-RHF Final Energy:  -266.84396377173249

   => Energetics <=

    Nuclear Repulsion Energy =            180.0303275594124557
    One-Electron Energy =                -720.9759899609177864
    Two-Electron Energy =                 274.1016986297727840
    DFT Exchange-Correlation Energy =       0.0000000000000000
    Empirical Dispersion Energy =           0.0000000000000000
    PCM Polarization Energy =               0.0000000000000000
    EFP Energy =                            0.0000000000000000
    Total Energy =                       -266.8439637717326036
    Molecular point group: c1
  Basis Set: 6-31G*
  Basis Set:

  -Total Gradient:
     Atom            X                  Y                   Z
    ------   -----------------  -----------------  -----------------
       1       -0.000004506882    -0.000018961631     0.000003417482
       2       -0.000231624794     0.000356113851     0.000544886088
       3        0.000399212678    -0.000575598683    -0.000651646655
       4       -0.000506997849     0.000816412631    -0.000331158556
       5       -0.000008977482    -0.000000566547     0.000002189317
       6       -0.000003903648    -0.000011124453    -0.000001906093
       7        0.000361844822    -0.000559814655     0.000432396353
       8       -0.000003019486    -0.000001217111     0.000001636603
       9        0.000001474119    -0.000003047424     0.000003660954
      10       -0.000009136050     0.000000870865     0.000000557909
      11        0.000005634569    -0.000003066845    -0.000004033398

  **** Optimization is complete! (in 6 steps) ****
    Final optimized geometry and variables:
    Molecular point group: c1

    Geometry (in Angstrom), charge = 0, multiplicity = 1:

    H            1.289700629587     1.562597706690    -0.597470511319
    O            0.446869607453     1.119800705813    -0.623019155267
    C            0.567425892438    -0.027301733828     0.041841993070
    C           -0.696446692956    -0.852031181499     0.045836509246
    O            1.589883317606    -0.355936191583     0.550309872214
    C           -1.999364609671    -0.053929227108     0.041753983100
    H           -0.644528616128    -1.494624082432    -0.829904833677
    H           -0.633213383922    -1.502959738390     0.908268896805
    H           -2.086967059286     0.556024435473    -0.847873060957
    H           -2.844901341972    -0.732087022230     0.075079524641
    H           -2.062516732148     0.600156984212     0.904718640435

  Mulliken Charges: (a.u.)
   Center  Symbol    Alpha    Beta     Spin     Total
       1     H     0.26720  0.26720  0.00000  0.46560
       2     O     4.34746  4.34746  0.00000 -0.69491
       3     C     2.62537  2.62537  0.00000  0.74926
       4     C     3.20813  3.20813  0.00000 -0.41626
       5     O     4.28110  4.28110  0.00000 -0.56221
       6     C     3.24379  3.24379  0.00000 -0.48758
       7     H     0.39817  0.39817  0.00000  0.20367
       8     H     0.39514  0.39514  0.00000  0.20973
       9     H     0.40581  0.40581  0.00000  0.18838
      10     H     0.41414  0.41414  0.00000  0.17171
      11     H     0.41370  0.41370  0.00000  0.17260

   Total alpha = 20.00000, Total beta = 20.00000, Total charge = -0.00000
