                              Psi4 1.0.54 Driver

  ==> Input File <==

--------------------------------------------------------------------------
set {
	reference rhf
	basis cc-pvtz
}

set_num_threads( 4 )
memory 2 gb

molecule MOL {
0 1

H	 4.432855	 0.230036	 1.527318
C	 3.619952	 -0.390706	 1.169580
C	 2.321502	 0.403487	 1.080489
H	 3.906785	 -0.782252	 0.199292
H	 3.523253	 -1.231132	 1.848808
C	 1.151259	 -0.431483	 0.582170
H	 2.448556	 1.252822	 0.418483
H	 2.079623	 0.808690	 2.060224
N	 -0.059183	 0.355545	 0.486496
H	 1.381244	 -0.816504	 -0.406787
H	 1.026267	 -1.303629	 1.230878
C	 -1.215959	 -0.382435	 0.027143
H	 -0.257513	 0.777452	 1.369660
C	 -2.451944	 0.502410	 -0.038737
H	 -0.997506	 -0.767216	 -0.964522
H	 -1.426600	 -1.252807	 0.655761
C	 -3.752217	 -0.292550	 0.005776
H	 -2.407325	 1.093801	 -0.946480
H	 -2.431979	 1.206234	 0.790023
H	 -3.817783	 -0.982946	 -0.828547
H	 -4.612613	 0.364348	 -0.042306
H	 -3.830160	 -0.871666	 0.919868

	symmetry c1
}
set optking {
	frozen_dihedral = ("
		15 12 14 18
	")
}

ee,wfn = optimize('scf', return_wfn=True)
oeprop( wfn, 'DIPOLE', 'QUADRUPOLE', 'MULLIKEN_CHARGES')
f=open( 'psi4out.xyz', 'w' )
f.write( "22  " )
f.write( str(ee) + "\n" )
f.write( MOL.save_string_xyz() )
f.close()
--------------------------------------------------------------------------

    Molecular point group: c1
  Charge       = 0
  Multiplicity = 1
  Basis Set: CC-PVTZ
  Basis Set:
  @DF-RHF Final Energy:  -290.48811474643912
    Total Energy =                       -290.4881147464393507
    Molecular point group: c1
  Basis Set: CC-PVTZ
  Basis Set:
  Basis Set: CC-PVTZ
  Basis Set:
  @DF-RHF Final Energy:  -290.48832363406734
    Total Energy =                       -290.4883236340675694
  Basis Set: CC-PVTZ
  Basis Set:
  Basis Set: CC-PVTZ
  Basis Set:
  @DF-RHF Final Energy:  -290.48839057854343
    Total Energy =                       -290.4883905785432603
  Basis Set: CC-PVTZ
  Basis Set:
  Basis Set: CC-PVTZ
  Basis Set:
  @DF-RHF Final Energy:  -290.48839167135941
    Total Energy =                       -290.4883916713591248
  Basis Set: CC-PVTZ
  Basis Set:
  Charge       = 0
  Multiplicity = 1
  Basis Set: CC-PVTZ
  Basis Set:

    Orbital Energies (a.u.)
    -----------------------

    Doubly Occupied:

       1A    -15.527808     2A    -11.236398     3A    -11.235951
       4A    -11.211939     5A    -11.211756     6A    -11.207504
       7A    -11.207226     8A     -1.206962     9A     -1.059898
      10A     -1.026697    11A     -0.928442    12A     -0.868842
      13A     -0.811540    14A     -0.793966    15A     -0.670067
      16A     -0.628656    17A     -0.616803    18A     -0.610201
      19A     -0.575618    20A     -0.563084    21A     -0.533593
      22A     -0.528729    23A     -0.512071    24A     -0.485803
      25A     -0.483185    26A     -0.474323    27A     -0.466347
      28A     -0.451530    29A     -0.361147

  @DF-RHF Final Energy:  -290.48839185884822

   => Energetics <=

    Nuclear Repulsion Energy =            313.6774686051280696
    One-Electron Energy =               -1013.3395528537256496
    Two-Electron Energy =                 409.1736923897493625
    DFT Exchange-Correlation Energy =       0.0000000000000000
    Empirical Dispersion Energy =           0.0000000000000000
    PCM Polarization Energy =               0.0000000000000000
    EFP Energy =                            0.0000000000000000
    Total Energy =                       -290.4883918588482175
    Molecular point group: c1
  Basis Set: CC-PVTZ
  Basis Set:

  -Total Gradient:
     Atom            X                  Y                   Z
    ------   -----------------  -----------------  -----------------
       1       -0.000001114567     0.000000381221    -0.000001045106
       2       -0.000001112861    -0.000000119813    -0.000002102788
       3       -0.000003244728    -0.000000738190     0.000001372133
       4        0.000001107541    -0.000001554332    -0.000000696196
       5       -0.000000666583     0.000001058317     0.000000021048
       6       -0.000010743298     0.000010375614     0.000002460828
       7        0.000001469608     0.000002435174     0.000001299414
       8       -0.000000644786     0.000001311076     0.000000478415
       9        0.000002020689    -0.000022642665     0.000000732439
      10        0.000000407269    -0.000002892997    -0.000000382143
      11        0.000003553802    -0.000004957041     0.000001816692
      12       -0.003398178035    -0.004618575140     0.000408269364
      13       -0.000001233653    -0.000003624690    -0.000007893562
      14        0.003006019961     0.004361975864     0.002334997472
      15        0.002408306817     0.003212045682    -0.000709022776
      16       -0.000005875931     0.000012886741    -0.000005219421
      17       -0.000012252234     0.000006085030     0.000007294252
      18       -0.001981815157    -0.002936886450    -0.002023903969
      19       -0.000000393963    -0.000008902183    -0.000003434602
      20        0.000002479134    -0.000004612505    -0.000001029455
      21       -0.000004811304    -0.000002006816    -0.000000084295
      22       -0.000003277721    -0.000001041897    -0.000003927742

  **** Optimization is complete! (in 5 steps) ****
    Final optimized geometry and variables:
    Molecular point group: c1

    Geometry (in Angstrom), charge = 0, multiplicity = 1:

    H            4.503807234661     0.288976084931     0.998448996644
    C            3.689408911519    -0.334415572488     0.648750498314
    C            2.383553808355     0.450409239410     0.591175618899
    H            3.961763520839    -0.713641946645    -0.330558591183
    H            3.611223976228    -1.182513382620     1.320791220396
    C            1.211138497044    -0.388162539823     0.103962435340
    H            2.492462694329     1.307869228603    -0.063557192855
    H            2.155841180420     0.842834356637     1.579477375402
    N           -0.005743159566     0.391250311610     0.034660201966
    H            1.428645298440    -0.763123097086    -0.891709833499
    H            1.102642499969    -1.266900825757     0.746955781776
    C           -1.168621372984    -0.353895147326    -0.403399645685
    H           -0.188558804110     0.809841205258     0.922591390044
    C           -2.396992886754     0.546646492117    -0.500458672047
    H           -0.935878205075    -0.747479694697    -1.387520203560
    H           -1.380457185252    -1.206391568317     0.246845976012
    C           -3.703097889503    -0.243152461057    -0.520909257823
    H           -2.332514249546     1.132987484023    -1.409902015427
    H           -2.406639291162     1.242041496562     0.333012223092
    H           -3.718251419168    -0.953465735160    -1.341429164286
    H           -4.555871171572     0.414799421820    -0.640970265120
    H           -3.841653600782    -0.801216300157     0.398955987057

  Mulliken Charges: (a.u.)
   Center  Symbol    Alpha    Beta     Spin     Total
       1     H     0.44772  0.44772  0.00000  0.10455
       2     C     3.15359  3.15359  0.00000 -0.30718
       3     C     3.08035  3.08035  0.00000 -0.16070
       4     H     0.45476  0.45476  0.00000  0.09049
       5     H     0.45613  0.45613  0.00000  0.08774
       6     C     3.02131  3.02131  0.00000 -0.04262
       7     H     0.44911  0.44911  0.00000  0.10179
       8     H     0.45970  0.45970  0.00000  0.08061
       9     N     3.64050  3.64050  0.00000 -0.28100
      10     H     0.45945  0.45945  0.00000  0.08110
      11     H     0.47560  0.47560  0.00000  0.04880
      12     C     3.02606  3.02606  0.00000 -0.05211
      13     H     0.44482  0.44482  0.00000  0.11036
      14     C     3.07831  3.07831  0.00000 -0.15661
      15     H     0.45773  0.45773  0.00000  0.08455
      16     H     0.47278  0.47278  0.00000  0.05445
      17     C     3.15383  3.15383  0.00000 -0.30767
      18     H     0.45058  0.45058  0.00000  0.09884
      19     H     0.45812  0.45812  0.00000  0.08376
      20     H     0.45509  0.45509  0.00000  0.08982
      21     H     0.44812  0.44812  0.00000  0.10375
      22     H     0.45635  0.45635  0.00000  0.08729

   Total alpha = 29.00000, Total beta = 29.00000, Total charge =  0.00000

*** Psi4 exiting successfully. Buy a developer a beer!
