  ==> Input File <==

--------------------------------------------------------------------------
set {
	reference rhf
	basis 6-31G*
}

set_num_threads( 1 )
memory 2 gb

molecule MOL {
0 1

H	 1.718327	 -0.076096	 -1.228526
O	 1.654024	 -0.625927	 -0.460906
C	 1.135793	 0.118896	 0.612333
C	 0.031547	 1.023609	 0.088541
H	 1.915668	 0.729681	 1.063582
H	 0.754543	 -0.542641	 1.387006
C	 -1.134819	 0.293262	 -0.585751
H	 0.474374	 1.714721	 -0.623187
H	 -0.338529	 1.620940	 0.920081
C	 -1.917817	 -0.639439	 0.339494
H	 -0.758119	 -0.268455	 -1.433105
H	 -1.813832	 1.041889	 -0.986690
H	 -2.777680	 -1.057197	 -0.174994
H	 -1.310268	 -1.471279	 0.680599
H	 -2.283753	 -0.111424	 1.216626

	symmetry c1
}
set optking {
	frozen_dihedral = ("
		8 4 7 11,
		2 3 4 8
	")
}

ee = energy('scf')
oeprop('DIPOLE', 'QUADRUPOLE', 'MULLIKEN_CHARGES')
f=open( 'psi4out.xyz', 'w' )
f.write( "15  " )
f.write( str(ee) + "\n" )
f.write( MOL.save_string_xyz() )
f.close()
--------------------------------------------------------------------------

    Molecular point group: c1

    Geometry (in Angstrom), charge = 0, multiplicity = 1:

       Center              X                  Y                   Z               Mass
    ------------   -----------------  -----------------  -----------------  -----------------
           H          1.726716398015    -0.091442863013    -1.213825282138     1.007825032070
           O          1.662413398015    -0.641273863013    -0.446205282138    15.994914619560
           C          1.144182398015     0.103549136987     0.627033717862    12.000000000000
           C          0.039936398015     1.008262136987     0.103241717862    12.000000000000
           H          1.924057398015     0.714334136987     1.078282717862     1.007825032070
           H          0.762932398015    -0.557987863013     1.401706717862     1.007825032070
           C         -1.126429601985     0.277915136987    -0.571050282138    12.000000000000
           H          0.482763398015     1.699374136987    -0.608486282138     1.007825032070
           H         -0.330139601985     1.605593136987     0.934781717862     1.007825032070
           C         -1.909427601985    -0.654785863013     0.354194717862    12.000000000000
           H         -0.749729601985    -0.283801863013    -1.418404282138     1.007825032070
           H         -1.805442601985     1.026542136987    -0.971989282138     1.007825032070
           H         -2.769290601985    -1.072543863013    -0.160293282138     1.007825032070
           H         -1.301878601985    -1.486625863013     0.695299717862     1.007825032070
           H         -2.275363601985    -0.126770863013     1.231326717862     1.007825032070

  Charge       = 0
  Multiplicity = 1
  Basis Set: 6-31G*
  Basis Set:

    Orbital Energies (a.u.)
    -----------------------

    Doubly Occupied:

       1A    -20.551662     2A    -11.268352     3A    -11.220118
       4A    -11.218023     5A    -11.209451     6A     -1.360514
       7A     -1.069628     8A     -0.973076     9A     -0.879298
      10A     -0.789930    11A     -0.669951    12A     -0.647821
      13A     -0.639644    14A     -0.583835    15A     -0.566964
      16A     -0.545947    17A     -0.502849    18A     -0.482170
      19A     -0.476062    20A     -0.454955    21A     -0.428961

  @DF-RHF Final Energy:  -232.14109748188693

   => Energetics <=

    Nuclear Repulsion Energy =            192.6961646332089515
    One-Electron Energy =                -696.5961300834283065
    Two-Electron Energy =                 271.7588679683327655
    DFT Exchange-Correlation Energy =       0.0000000000000000
    Empirical Dispersion Energy =           0.0000000000000000
    PCM Polarization Energy =               0.0000000000000000
    EFP Energy =                            0.0000000000000000
    Total Energy =                       -232.1410974818866180

  Mulliken Charges: (a.u.)
   Center  Symbol    Alpha    Beta     Spin     Total
       1     H     0.28116  0.28116  0.00000  0.43769
       2     O     4.37114  4.37114  0.00000 -0.74228
       3     C     2.98871  2.98871  0.00000  0.02257
       4     C     3.18143  3.18143  0.00000 -0.36286
       5     H     0.42702  0.42702  0.00000  0.14595
       6     H     0.41596  0.41596  0.00000  0.16808
       7     C     3.14894  3.14894  0.00000 -0.29787
       8     H     0.42551  0.42551  0.00000  0.14898
       9     H     0.42140  0.42140  0.00000  0.15720
      10     C     3.24421  3.24421  0.00000 -0.48841
      11     H     0.41743  0.41743  0.00000  0.16513
      12     H     0.42108  0.42108  0.00000  0.15785
      13     H     0.41784  0.41784  0.00000  0.16431
      14     H     0.41472  0.41472  0.00000  0.17057
      15     H     0.42345  0.42345  0.00000  0.15310

   Total alpha = 21.00000, Total beta = 21.00000, Total charge =  0.00000
