  ==> Input File <==

--------------------------------------------------------------------------
set {
	reference rhf
	basis 6-31G*
}

set_num_threads( 4 )
memory 2 gb

molecule MOL {
0 1

H	 2.447936	 0.778100	 -0.150360
O	 2.064459	 -0.086912	 -0.111827
C	 0.745630	 0.005118	 0.354752
H	 0.739005	 0.037656	 1.444976
C	 -0.064159	 -1.194875	 -0.122754
C	 -0.046302	 1.193543	 -0.190431
H	 0.197384	 -1.376065	 -1.160690
H	 0.162855	 -2.097978	 0.431858
C	 -1.535782	 -0.752177	 0.006642
H	 0.154512	 1.271315	 -1.255561
H	 0.226209	 2.140461	 0.267302
C	 -1.509193	 0.801505	 0.065617
H	 -2.127797	 -1.112194	 -0.826847
H	 -1.986849	 -1.158408	 0.905561
H	 -2.183670	 1.254107	 -0.651985
H	 -1.821727	 1.144320	 1.047089

	symmetry c1
}
set optking {
	frozen_dihedral = ("
		1 2 3 6
	")
}

ee = optimize('scf')
oeprop('DIPOLE', 'QUADRUPOLE', 'MULLIKEN_CHARGES')
f=open( 'psi4out.xyz', 'w' )
f.write( "16  " )
f.write( str(ee) + "\n" )
f.write( MOL.save_string_xyz() )
f.close()
--------------------------------------------------------------------------

    Molecular point group: c1
  Charge       = 0
  Multiplicity = 1
  Basis Set: 6-31G*
  Basis Set:
  @DF-RHF Final Energy:  -270.01352789667567
    Total Energy =                       -270.0135278966756687
    Molecular point group: c1
  Basis Set: 6-31G*
  Basis Set:
  Basis Set: 6-31G*
  Basis Set:
  @DF-RHF Final Energy:  -270.01358010333354
    Total Energy =                       -270.0135801033335952
  Basis Set: 6-31G*
  Basis Set:
  Basis Set: 6-31G*
  Basis Set:
  @DF-RHF Final Energy:  -270.01359428605315
    Total Energy =                       -270.0135942860531486
  Basis Set: 6-31G*
  Basis Set:
  Basis Set: 6-31G*
  Basis Set:
  @DF-RHF Final Energy:  -270.01359580613183
    Total Energy =                       -270.0135958061320025
  Basis Set: 6-31G*
  Basis Set:
  @DF-RHF Final Energy:  -270.01359884586032
    Total Energy =                       -270.0135988458604288
  Basis Set: 6-31G*
  Basis Set:
  @DF-RHF Final Energy:  -270.01360430941270
    Total Energy =                       -270.0136043094129263
  Basis Set: 6-31G*
  Basis Set:
  Basis Set: 6-31G*
  Basis Set:
  @DF-RHF Final Energy:  -270.01360747335281
    Total Energy =                       -270.0136074733529199
  Basis Set: 6-31G*
  Basis Set:
  Basis Set: 6-31G*
  Basis Set:
  @DF-RHF Final Energy:  -270.01360847531924
    Total Energy =                       -270.0136084753195291
  Basis Set: 6-31G*
  Basis Set:
  Charge       = 0
  Multiplicity = 1
  Basis Set: 6-31G*
  Basis Set:

    Orbital Energies (a.u.)
    -----------------------

    Doubly Occupied:

       1A    -20.551081     2A    -11.268009     3A    -11.219111
       4A    -11.216246     5A    -11.216146     6A    -11.208365
       7A     -1.360302     8A     -1.114552     9A     -0.967850
      10A     -0.948413    11A     -0.792745    12A     -0.778699
      13A     -0.691965    14A     -0.661391    15A     -0.615639
      16A     -0.594191    17A     -0.571501    18A     -0.524888
      19A     -0.501027    20A     -0.484020    21A     -0.471932
      22A     -0.457876    23A     -0.444435    24A     -0.422858

  @DF-RHF Final Energy:  -270.01360858602914

   => Energetics <=

    Nuclear Repulsion Energy =            255.2046873166930538
    One-Electron Energy =                -872.2701079434723397
    Two-Electron Energy =                 347.0518120407502352
    DFT Exchange-Correlation Energy =       0.0000000000000000
    Empirical Dispersion Energy =           0.0000000000000000
    PCM Polarization Energy =               0.0000000000000000
    EFP Energy =                            0.0000000000000000
    Total Energy =                       -270.0136085860290791
    Molecular point group: c1
  Basis Set: 6-31G*
  Basis Set:

  -Total Gradient:
     Atom            X                  Y                   Z
    ------   -----------------  -----------------  -----------------
       1       -0.000618554690     0.000257617864    -0.001895066198
       2        0.000936966922     0.000006314242     0.002808304934
       3       -0.000676018179    -0.000947315149    -0.001913256016
       4        0.000017516742    -0.000003475087    -0.000007943697
       5       -0.000042120991    -0.000003066533     0.000001267233
       6        0.000347796722     0.000677041387     0.001025138905
       7        0.000001964883     0.000003903795    -0.000001700340
       8        0.000001729206     0.000000167200     0.000003245843
       9        0.000023647505    -0.000003354002    -0.000015210211
      10        0.000000113350    -0.000002245549    -0.000011911465
      11       -0.000004675059    -0.000004223169     0.000003875340
      12        0.000015904113     0.000010015920    -0.000000209336
      13       -0.000000425426     0.000005416030    -0.000003060404
      14       -0.000000065242     0.000006898338     0.000004787475
      15       -0.000002322322    -0.000002518784    -0.000004637330
      16       -0.000001457533    -0.000001176501     0.000006375266

  **** Optimization is complete! (in 9 steps) ****
    Final optimized geometry and variables:
    Molecular point group: c1

    Geometry (in Angstrom), charge = 0, multiplicity = 1:

    H            2.459385873197     0.777532459275    -0.097801183377
    O            2.072910597785    -0.086623000985    -0.092123779702
    C            0.744285035872    -0.007755593261     0.350222264375
    H            0.725280599813     0.004460705555     1.440668281710
    C           -0.069822372076    -1.192543259613    -0.152799768440
    C           -0.040054740512     1.195516666557    -0.172711042288
    H            0.153443087532    -1.326915703997    -1.206971391116
    H            0.176514969928    -2.118043184141     0.354899964829
    C           -1.531390784521    -0.755359748858     0.051738642057
    H            0.180119867058     1.310056115830    -1.231431351251
    H            0.223284203391     2.126234187119     0.322050637705
    C           -1.513185640350     0.800399281597     0.036965637401
    H           -2.181153871559    -1.162313433349    -0.714338622124
    H           -1.907769229999    -1.116871253772     1.002977616672
    H           -2.149774449176     1.210225465584    -0.738497352172
    H           -1.880463063945     1.191067201178     0.980092931454

  Mulliken Charges: (a.u.)
   Center  Symbol    Alpha    Beta     Spin     Total
       1     H     0.28105  0.28105  0.00000  0.43791
       2     O     4.37933  4.37933  0.00000 -0.75867
       3     C     2.90033  2.90033  0.00000  0.19935
       4     H     0.43007  0.43007  0.00000  0.13987
       5     C     3.16570  3.16570  0.00000 -0.33139
       6     C     3.18461  3.18461  0.00000 -0.36922
       7     H     0.41353  0.41353  0.00000  0.17293
       8     H     0.41204  0.41204  0.00000  0.17592
       9     C     3.17016  3.17016  0.00000 -0.34032
      10     H     0.41578  0.41578  0.00000  0.16845
      11     H     0.41872  0.41872  0.00000  0.16257
      12     C     3.16744  3.16744  0.00000 -0.33487
      13     H     0.41416  0.41416  0.00000  0.17168
      14     H     0.41670  0.41670  0.00000  0.16660
      15     H     0.41386  0.41386  0.00000  0.17228
      16     H     0.41653  0.41653  0.00000  0.16694

   Total alpha = 24.00000, Total beta = 24.00000, Total charge =  0.00000
