  ==> Input File <==

--------------------------------------------------------------------------
set {
	reference rhf
	basis cc-pvtz
}

set_num_threads( 4 )
memory 2 gb

molecule MOL {
0 1

H	 -2.123894	 -0.667238	 -0.609809
O	 -2.041679	 -0.058866	 0.103463
C	 -0.959304	 0.780994	 -0.094939
C	 0.354905	 0.037902	 -0.006215
H	 -0.985899	 1.279578	 -1.057596
H	 -0.969809	 1.529522	 0.682889
F	 0.660829	 -0.234023	 1.250072
F	 0.278135	 -1.106001	 -0.653663
F	 1.353028	 0.720780	 -0.513560

	symmetry c1
}
set optking {
	frozen_dihedral = ("
		7 4 3 5
	")
}

ee = optimize('scf')
oeprop('DIPOLE', 'QUADRUPOLE', 'MULLIKEN_CHARGES')
f=open( 'psi4out.xyz', 'w' )
f.write( "9  " )
f.write( str(ee) + "\n" )
f.write( MOL.save_string_xyz() )
f.close()
--------------------------------------------------------------------------

    Molecular point group: c1
  Charge       = 0
  Multiplicity = 1
  Basis Set: CC-PVTZ
  Basis Set:
  @DF-RHF Final Energy:  -450.84579182062009
    Total Energy =                       -450.8457918206200929
    Molecular point group: c1
  Basis Set: CC-PVTZ
  Basis Set:
  Basis Set: CC-PVTZ
  Basis Set:
  @DF-RHF Final Energy:  -450.84625858851712
    Total Energy =                       -450.8462585885171166
  Basis Set: CC-PVTZ
  Basis Set:
  Basis Set: CC-PVTZ
  Basis Set:
  @DF-RHF Final Energy:  -450.84637258841445
    Total Energy =                       -450.8463725884143969
  Basis Set: CC-PVTZ
  Basis Set:
  Basis Set: CC-PVTZ
  Basis Set:
  @DF-RHF Final Energy:  -450.84638256959175
    Total Energy =                       -450.8463825695917535
  Basis Set: CC-PVTZ
  Basis Set:
  Charge       = 0
  Multiplicity = 1
  Basis Set: CC-PVTZ
  Basis Set:

    Orbital Energies (a.u.)
    -----------------------

    Doubly Occupied:

       1A    -26.341768     2A    -26.338375     3A    -26.335984
       4A    -20.584093     5A    -11.494475     6A    -11.309846
       7A     -1.748288     8A     -1.646036     9A     -1.642531
      10A     -1.407815    11A     -1.050093    12A     -0.930294
      13A     -0.838476    14A     -0.836068    15A     -0.813419
      16A     -0.730676    17A     -0.719437    18A     -0.704151
      19A     -0.672557    20A     -0.666236    21A     -0.649525
      22A     -0.632770    23A     -0.620469    24A     -0.532766
      25A     -0.484886

  @DF-RHF Final Energy:  -450.84638320676981

   => Energetics <=

    Nuclear Repulsion Energy =            277.5082068783901832
    One-Electron Energy =               -1177.2471206248117142
    Two-Electron Energy =                 448.8925305396516023
    DFT Exchange-Correlation Energy =       0.0000000000000000
    Empirical Dispersion Energy =           0.0000000000000000
    PCM Polarization Energy =               0.0000000000000000
    EFP Energy =                            0.0000000000000000
    Total Energy =                       -450.8463832067699286
    Molecular point group: c1
  Basis Set: CC-PVTZ
  Basis Set:

  -Total Gradient:
     Atom            X                  Y                   Z
    ------   -----------------  -----------------  -----------------
       1        0.000013710902    -0.000002866723    -0.000015889708
       2        0.000091836457     0.000099452624    -0.000003224561
       3       -0.001358302810    -0.002714229573    -0.001693677086
       4       -0.001603336134    -0.002945277720     0.000002268674
       5        0.001494217285     0.002810947799     0.001430731214
       6        0.000003489109     0.000000140430     0.000027940700
       7        0.001456728595     0.002650827242     0.000351862724
       8       -0.000056276259     0.000077225248    -0.000070233054
       9       -0.000042067147     0.000023780674    -0.000029778908

  **** Optimization is complete! (in 5 steps) ****
    Final optimized geometry and variables:
    Molecular point group: c1

    Geometry (in Angstrom), charge = 0, multiplicity = 1:

    H           -2.125503940635    -0.673982697124    -0.582448492571
    O           -2.052178698731    -0.028872329296     0.098693563852
    C           -0.955110084340     0.784183250462    -0.117017888049
    C            0.354290220283     0.028810525114    -0.007880578956
    H           -0.966603624620     1.285161944646    -1.078650487537
    H           -0.951938385200     1.544849752263     0.649606761234
    F            0.665333894961    -0.260067739300     1.234532066070
    F            0.318125628757    -1.100456906597    -0.687754897278
    F            1.338312030376     0.756946822772    -0.497320714815

  Mulliken Charges: (a.u.)
   Center  Symbol    Alpha    Beta     Spin     Total
       1     H     0.38585  0.38585  0.00000  0.22831
       2     O     4.19158  4.19158  0.00000 -0.38315
       3     C     2.99288  2.99288  0.00000  0.01423
       4     C     2.68201  2.68201  0.00000  0.63598
       5     H     0.46263  0.46263  0.00000  0.07473
       6     H     0.44834  0.44834  0.00000  0.10332
       7     F     4.60834  4.60834  0.00000 -0.21667
       8     F     4.61566  4.61566  0.00000 -0.23131
       9     F     4.61271  4.61271  0.00000 -0.22543

   Total alpha = 25.00000, Total beta = 25.00000, Total charge =  0.00000
