                              Psi4 1.0.54 Driver

  ==> Input File <==

--------------------------------------------------------------------------
set {
	reference rhf
	basis cc-pvtz
}

set_num_threads( 4 )
memory 2 gb

molecule MOL {
0 1

O	 0.395927	 1.296676	 -0.000076
C	 0.503051	 0.114301	 -0.000074
C	 -0.701422	 -0.805636	 -0.000109
C	 1.858118	 -0.556123	 0.000212
C	 -1.290530	 -1.055724	 1.379198
H	 -1.443700	 -0.373601	 -0.666295
H	 -0.400697	 -1.739263	 -0.468453
H	 -1.612410	 -0.130047	 1.837177
H	 -2.144819	 -1.718362	 1.308803
H	 -0.560173	 -1.507819	 2.036784
H	 1.961106	 -1.191101	 -0.872843
H	 2.636688	 0.191085	 -0.000109
H	 1.961070	 -1.190284	 0.873873

	symmetry c1
}
set optking {
	frozen_dihedral = ("
		6 3 2 1
	")
}

ee,wfn = optimize('scf', return_wfn=True)
oeprop( wfn, 'DIPOLE', 'QUADRUPOLE', 'MULLIKEN_CHARGES')
f=open( 'psi4out.xyz', 'w' )
f.write( "13  " )
f.write( str(ee) + "\n" )
f.write( MOL.save_string_xyz() )
f.close()
--------------------------------------------------------------------------

    Molecular point group: c1
  Charge       = 0
  Multiplicity = 1
  Basis Set: CC-PVTZ
  Basis Set:
  @DF-RHF Final Energy:  -231.08043139252675
    Total Energy =                       -231.0804313925268048
    Molecular point group: c1
  Basis Set: CC-PVTZ
  Basis Set:
  Basis Set: CC-PVTZ
  Basis Set:
  @DF-RHF Final Energy:  -231.08051228172590
    Total Energy =                       -231.0805122817258450
  Basis Set: CC-PVTZ
  Basis Set:
  Basis Set: CC-PVTZ
  Basis Set:
  @DF-RHF Final Energy:  -231.08066420278521
    Total Energy =                       -231.0806642027852149
  Basis Set: CC-PVTZ
  Basis Set:
  Basis Set: CC-PVTZ
  Basis Set:
  @DF-RHF Final Energy:  -231.08136663593066
    Total Energy =                       -231.0813666359307490
  Basis Set: CC-PVTZ
  Basis Set:
  Basis Set: CC-PVTZ
  Basis Set:
  @DF-RHF Final Energy:  -231.08140504896721
    Total Energy =                       -231.0814050489672127
  Basis Set: CC-PVTZ
  Basis Set:
  Basis Set: CC-PVTZ
  Basis Set:
  @DF-RHF Final Energy:  -231.08140908452663
    Total Energy =                       -231.0814090845266833
  Basis Set: CC-PVTZ
  Basis Set:
  Charge       = 0
  Multiplicity = 1
  Basis Set: CC-PVTZ
  Basis Set:

    Orbital Energies (a.u.)
    -----------------------

    Doubly Occupied:

       1A    -20.538019     2A    -11.320639     3A    -11.231691
       4A    -11.228204     5A    -11.225550     6A     -1.398373
       7A     -1.066108     8A     -0.999332     9A     -0.883132
      10A     -0.734963    11A     -0.657426    12A     -0.648952
      13A     -0.610233    14A     -0.593576    15A     -0.568208
      16A     -0.540417    17A     -0.528388    18A     -0.503475
      19A     -0.483941    20A     -0.402064

  @DF-RHF Final Energy:  -231.08141055424039

   => Energetics <=

    Nuclear Repulsion Energy =            177.3710941186361651
    One-Electron Energy =                -664.5796313103960529
    Two-Electron Energy =                 256.1271266375193818
    DFT Exchange-Correlation Energy =       0.0000000000000000
    Empirical Dispersion Energy =           0.0000000000000000
    PCM Polarization Energy =               0.0000000000000000
    EFP Energy =                            0.0000000000000000
    Total Energy =                       -231.0814105542405059
    Molecular point group: c1
  Basis Set: CC-PVTZ
  Basis Set:

  -Total Gradient:
     Atom            X                  Y                   Z
    ------   -----------------  -----------------  -----------------
       1        0.000012083218     0.000008755506     0.000219995729
       2        0.000032056185    -0.000047104113    -0.000335234006
       3       -0.000107829564     0.000138730456     0.000276098889
       4       -0.000035783108     0.000075482895    -0.000023709788
       5       -0.000027239207    -0.000007040962     0.000024014515
       6        0.000080007000    -0.000119209223    -0.000164603076
       7       -0.000005934982     0.000001117986    -0.000002633890
       8        0.000007552697    -0.000001527623    -0.000011695580
       9        0.000004969403     0.000000372414     0.000003602171
      10        0.000007132717     0.000000505212    -0.000009233599
      11       -0.000000488324    -0.000040077522    -0.000043527086
      12        0.000035472547     0.000028429429     0.000017296555
      13       -0.000001998580    -0.000038434449     0.000049629165

  **** Optimization is complete! (in 7 steps) ****
    Final optimized geometry and variables:
    Molecular point group: c1

    Geometry (in Angstrom), charge = 0, multiplicity = 1:

    O            0.163102857036     1.459108233371    -0.368608594650
    C            0.344942135074     0.287035867424    -0.306860034319
    C           -0.821304683538    -0.682972517565    -0.281298166591
    C            1.734472876871    -0.297635903230    -0.227615155075
    C           -1.425571530104    -0.770383963626     1.123272517428
    H           -1.564951484541    -0.318471864433    -0.977896367558
    H           -0.501799875700    -1.665566879399    -0.609046210732
    H           -1.772876434209     0.201832508039     1.446790690676
    H           -2.265368010728    -1.453565671075     1.131123507891
    H           -0.700927641066    -1.128715540776     1.846194157852
    H            1.938207969994    -0.861280174325    -1.132492345241
    H            2.464444922318     0.489828908965    -0.119832672568
    H            1.808641691724    -0.990088351087     0.603905293753

  Mulliken Charges: (a.u.)
   Center  Symbol    Alpha    Beta     Spin     Total
       1     O     4.17653  4.17653  0.00000 -0.35306
       2     C     2.85322  2.85322  0.00000  0.29356
       3     C     3.09822  3.09822  0.00000 -0.19643
       4     C     3.15378  3.15378  0.00000 -0.30756
       5     C     3.14808  3.14808  0.00000 -0.29616
       6     H     0.44006  0.44006  0.00000  0.11988
       7     H     0.45030  0.45030  0.00000  0.09940
       8     H     0.44236  0.44236  0.00000  0.11527
       9     H     0.44658  0.44658  0.00000  0.10685
      10     H     0.45507  0.45507  0.00000  0.08986
      11     H     0.44865  0.44865  0.00000  0.10270
      12     H     0.43627  0.43627  0.00000  0.12745
      13     H     0.45089  0.45089  0.00000  0.09822

   Total alpha = 20.00000, Total beta = 20.00000, Total charge = -0.00000

*** Psi4 exiting successfully. Buy a developer a beer!
