                              Psi4 1.0.54 Driver

  ==> Input File <==

--------------------------------------------------------------------------
set {
	reference rhf
	basis cc-pvtz
}

set_num_threads( 4 )
memory 2 gb

molecule MOL {
0 1

H	 -2.362939	 -1.309000	 -0.383250
C	 -1.359344	 -1.272457	 0.020748
C	 -0.684082	 0.000127	 -0.464918
H	 -0.825835	 -2.151141	 -0.318537
H	 -1.416276	 -1.292399	 1.099455
C	 -1.359089	 1.272668	 0.021259
N	 0.742439	 -0.000109	 0.007333
H	 -0.596914	 0.000345	 -1.538146
H	 -2.362696	 1.309620	 -0.382686
H	 -0.825392	 2.151374	 -0.317674
H	 -1.415983	 1.292181	 1.099973
O	 1.093700	 -0.911627	 0.677702
O	 1.426932	 0.911161	 -0.320307

	symmetry c1
}
set optking {
	frozen_dihedral = ("
		12 7 3 8
	")
}

ee,wfn = optimize('scf', return_wfn=True)
oeprop( wfn, 'DIPOLE', 'QUADRUPOLE', 'MULLIKEN_CHARGES')
f=open( 'psi4out.xyz', 'w' )
f.write( "13  " )
f.write( str(ee) + "\n" )
f.write( MOL.save_string_xyz() )
f.close()
--------------------------------------------------------------------------

    Molecular point group: c1
  Charge       = 0
  Multiplicity = 1
  Basis Set: CC-PVTZ
  Basis Set:
  @DF-RHF Final Energy:  -321.86214204353934
    Total Energy =                       -321.8621420435391656
    Molecular point group: c1
  Basis Set: CC-PVTZ
  Basis Set:
  Basis Set: CC-PVTZ
  Basis Set:
  @DF-RHF Final Energy:  -321.86122078068507
    Total Energy =                       -321.8612207806850734
  Basis Set: CC-PVTZ
  Basis Set:
  Basis Set: CC-PVTZ
  Basis Set:
  @DF-RHF Final Energy:  -321.85474902603909
    Total Energy =                       -321.8547490260392578
  Basis Set: CC-PVTZ
  Basis Set:
  Basis Set: CC-PVTZ
  Basis Set:
  @DF-RHF Final Energy:  -321.85763733514932
    Total Energy =                       -321.8576373351493203
  Basis Set: CC-PVTZ
  Basis Set:
  @DF-RHF Final Energy:  -321.86250767123767
    Total Energy =                       -321.8625076712378359
  Basis Set: CC-PVTZ
  Basis Set:
  @DF-RHF Final Energy:  -321.86299701256274
    Total Energy =                       -321.8629970125626301
  Basis Set: CC-PVTZ
  Basis Set:
  Basis Set: CC-PVTZ
  Basis Set:
  @DF-RHF Final Energy:  -321.86304814319857
    Total Energy =                       -321.8630481431983412
  Basis Set: CC-PVTZ
  Basis Set:
  Basis Set: CC-PVTZ
  Basis Set:
  @DF-RHF Final Energy:  -321.86305118872389
    Total Energy =                       -321.8630511887238299
  Basis Set: CC-PVTZ
  Basis Set:
  Charge       = 0
  Multiplicity = 1
  Basis Set: CC-PVTZ
  Basis Set:

    Orbital Energies (a.u.)
    -----------------------

    Doubly Occupied:

       1A    -20.591661     2A    -20.585578     3A    -15.833588
       4A    -11.306124     5A    -11.242250     6A    -11.237341
       7A     -1.634367     8A     -1.418308     9A     -1.140634
      10A     -0.969506    11A     -0.957932    12A     -0.815426
      13A     -0.762216    14A     -0.730314    15A     -0.724119
      16A     -0.643143    17A     -0.593520    18A     -0.587880
      19A     -0.570491    20A     -0.525128    21A     -0.521491
      22A     -0.484357    23A     -0.472322    24A     -0.451512

  @DF-RHF Final Energy:  -321.86305127053220

   => Energetics <=

    Nuclear Repulsion Energy =            257.3063825235205968
    One-Electron Energy =                -948.7404531749424450
    Two-Electron Energy =                 369.5710193808895951
    DFT Exchange-Correlation Energy =       0.0000000000000000
    Empirical Dispersion Energy =           0.0000000000000000
    PCM Polarization Energy =               0.0000000000000000
    EFP Energy =                            0.0000000000000000
    Total Energy =                       -321.8630512705322531
    Molecular point group: c1
  Basis Set: CC-PVTZ
  Basis Set:

  -Total Gradient:
     Atom            X                  Y                   Z
    ------   -----------------  -----------------  -----------------
       1        0.000012786751     0.000005341599     0.000001191251
       2        0.000000186875    -0.000009846877     0.000008571510
       3       -0.000079550492     0.001238891215    -0.000460273923
       4       -0.000002250161     0.000001781777     0.000004638136
       5       -0.000003336815    -0.000006787841     0.000004846101
       6        0.000014005513     0.000014171244     0.000014238320
       7       -0.000571475755     0.000707682258     0.001474023976
       8        0.000221135214    -0.001278085719     0.000028651804
       9        0.000015816160    -0.000006330569    -0.000002610463
      10        0.000000840106     0.000002778457     0.000004887625
      11        0.000003429046    -0.000003771678    -0.000007399453
      12        0.000419140468    -0.000675838391    -0.001055652552
      13       -0.000030726910     0.000010014521    -0.000015112333

  **** Optimization is complete! (in 9 steps) ****
    Final optimized geometry and variables:
    Molecular point group: c1

    Geometry (in Angstrom), charge = 0, multiplicity = 1:

    H           -2.187595749665    -1.623551071517    -0.308901092802
    C           -1.189232531939    -1.469205733130     0.081623676927
    C           -0.686569729353    -0.132268543746    -0.425769749485
    H           -0.561052006140    -2.282520863812    -0.248940075429
    H           -1.234302033386    -1.489917393134     1.161423342924
    C           -1.531227106352     1.049082013886     0.030278450804
    N            0.742250915714     0.111732621798    -0.003757984286
    H           -0.616523128915    -0.143820860028    -1.504176954126
    H           -2.546327096216     0.905545606790    -0.315853972780
    H           -1.154440896611     1.977243834103    -0.369273669564
    H           -1.548174670495     1.111893567880     1.111794420225
    O            1.282418344146    -0.695443124319     0.672246754720
    O            1.244387119926     1.109407499311    -0.403619419179

  Mulliken Charges: (a.u.)
   Center  Symbol    Alpha    Beta     Spin     Total
       1     H     0.45030  0.45030  0.00000  0.09940
       2     C     3.14239  3.14239  0.00000 -0.28479
       3     C     3.00679  3.00679  0.00000 -0.01358
       4     H     0.43679  0.43679  0.00000  0.12641
       5     H     0.44281  0.44281  0.00000  0.11438
       6     C     3.14434  3.14434  0.00000 -0.28868
       7     N     3.27512  3.27512  0.00000  0.44976
       8     H     0.42934  0.42934  0.00000  0.14132
       9     H     0.44957  0.44957  0.00000  0.10085
      10     H     0.43123  0.43123  0.00000  0.13753
      11     H     0.44629  0.44629  0.00000  0.10742
      12     O     4.16911  4.16911  0.00000 -0.33823
      13     O     4.17590  4.17590  0.00000 -0.35180

   Total alpha = 24.00000, Total beta = 24.00000, Total charge = -0.00000

*** Psi4 exiting successfully. Buy a developer a beer!
