  ==> Input File <==

--------------------------------------------------------------------------
set {
	reference rhf
	basis cc-pvtz
}

set_num_threads( 4 )
memory 2 gb

molecule MOL {
0 1

H	 -0.562840	 1.123843	 1.249295
C	 0.454130	 1.005428	 0.893051
N	 0.526300	 -0.128137	 0.000000
H	 1.086194	 0.834506	 1.755211
H	 0.754467	 1.948009	 0.430547
C	 -0.247113	 0.037112	 -1.209233
H	 1.477239	 -0.321162	 -0.228290
H	 -0.996493	 -0.743733	 -1.271440
H	 0.397975	 -0.057351	 -2.073512
H	 -0.763794	 0.997171	 -1.271673

	symmetry c1
}
set optking {
	frozen_dihedral = ("
		2 3 6 8
	")
}

ee = optimize('scf')
oeprop('DIPOLE', 'QUADRUPOLE', 'MULLIKEN_CHARGES')
f=open( 'psi4out.xyz', 'w' )
f.write( "10  " )
f.write( str(ee) + "\n" )
f.write( MOL.save_string_xyz() )
f.close()
--------------------------------------------------------------------------

    Molecular point group: c1
  Charge       = 0
  Multiplicity = 1
  Basis Set: CC-PVTZ
  Basis Set:
  @DF-RHF Final Energy:  -134.28747042670742
    Total Energy =                       -134.2874704267074719
    Molecular point group: c1
  Basis Set: CC-PVTZ
  Basis Set:
  Basis Set: CC-PVTZ
  Basis Set:
  @DF-RHF Final Energy:  -134.28803090487261
    Total Energy =                       -134.2880309048725564
  Basis Set: CC-PVTZ
  Basis Set:
  Basis Set: CC-PVTZ
  Basis Set:
  @DF-RHF Final Energy:  -134.28812332499223
    Total Energy =                       -134.2881233249921706
  Basis Set: CC-PVTZ
  Basis Set:
  Basis Set: CC-PVTZ
  Basis Set:
  @DF-RHF Final Energy:  -134.28812651319168
    Total Energy =                       -134.2881265131916848
  Basis Set: CC-PVTZ
  Basis Set:
  Charge       = 0
  Multiplicity = 1
  Basis Set: CC-PVTZ
  Basis Set:

    Orbital Energies (a.u.)
    -----------------------

    Doubly Occupied:

       1A    -15.529270     2A    -11.234413     3A    -11.233939
       4A     -1.196012     5A     -0.948062     6A     -0.855105
       7A     -0.660509     8A     -0.610390     9A     -0.588736
      10A     -0.545599    11A     -0.510035    12A     -0.506336
      13A     -0.358837

  @DF-RHF Final Energy:  -134.28812710442466

   => Energetics <=

    Nuclear Repulsion Energy =             84.4598593260671180
    One-Electron Energy =                -347.9414837356893599
    Two-Electron Energy =                 129.1934973051975817
    DFT Exchange-Correlation Energy =       0.0000000000000000
    Empirical Dispersion Energy =           0.0000000000000000
    PCM Polarization Energy =               0.0000000000000000
    EFP Energy =                            0.0000000000000000
    Total Energy =                       -134.2881271044246319
    Molecular point group: c1
  Basis Set: CC-PVTZ
  Basis Set:

  -Total Gradient:
     Atom            X                  Y                   Z
    ------   -----------------  -----------------  -----------------
       1        0.000004006714    -0.000007206481    -0.000009537670
       2        0.000454374780     0.000268944122    -0.000225525363
       3       -0.000486046287    -0.000484375617     0.000275205459
       4       -0.000002627914     0.000011881752     0.000013875588
       5       -0.000004221179    -0.000020887102    -0.000002539494
       6       -0.000508460344     0.000635114852     0.000263360735
       7        0.000001786688     0.000004919541    -0.000013202389
       8        0.000504649461    -0.000412047777    -0.000326602104
       9        0.000021487751     0.000002851908     0.000021374877
      10        0.000015050330     0.000000804801     0.000003590361

  **** Optimization is complete! (in 5 steps) ****
    Final optimized geometry and variables:
    Molecular point group: c1

    Geometry (in Angstrom), charge = 0, multiplicity = 1:

    H           -0.805364863830     0.813642495512     1.380081991181
    C            0.208083682865     0.691297394563     1.016111927408
    N            0.274199530307    -0.440191908204     0.119432548976
    H            0.842289975203     0.511195283508     1.875204561845
    H            0.513272723838     1.635167299001     0.560326023127
    C           -0.498569743686    -0.304299798924    -1.105617370153
    H            1.222840314930    -0.651950236211    -0.090420932857
    H           -1.249045630915    -1.083146770677    -1.184328840194
    H            0.132479456224    -0.369520654037    -1.986041188406
    H           -1.007528531756     0.652879068509    -1.148533310583

  Mulliken Charges: (a.u.)
   Center  Symbol    Alpha    Beta     Spin     Total
       1     H     0.45637  0.45637  0.00000  0.08727
       2     C     3.08283  3.08283  0.00000 -0.16565
       3     N     3.63349  3.63349  0.00000 -0.26698
       4     H     0.45329  0.45329  0.00000  0.09342
       5     H     0.47415  0.47415  0.00000  0.05170
       6     C     3.07702  3.07702  0.00000 -0.15403
       7     H     0.43991  0.43991  0.00000  0.12018
       8     H     0.45603  0.45603  0.00000  0.08793
       9     H     0.46145  0.46145  0.00000  0.07710
      10     H     0.46547  0.46547  0.00000  0.06906

   Total alpha = 13.00000, Total beta = 13.00000, Total charge = -0.00000
