  ==> Input File <==

--------------------------------------------------------------------------
set {
	reference rhf
	basis 6-31G*
}

set_num_threads( 4 )
memory 2 gb

molecule MOL {
0 1

O	 3.225979	 0.970355	 -0.599647
C	 2.701189	 0.057885	 -0.047330
C	 1.245376	 -0.013843	 0.345420
O	 3.347903	 -1.046386	 0.304773
C	 1.032243	 -0.033552	 1.857472
H	 0.747076	 0.827500	 -0.124719
H	 0.828689	 -0.903488	 -0.119986
C	 -0.432294	 -0.211816	 2.272017
H	 1.427354	 0.882015	 2.287290
H	 1.621500	 -0.840631	 2.279160
C	 -1.353918	 0.954256	 1.903241
H	 -0.462589	 -0.350945	 3.350186
H	 -0.822449	 -1.131493	 1.838447
C	 -2.777990	 0.777978	 2.434224
H	 -0.935401	 1.879278	 2.296938
H	 -1.394277	 1.072726	 0.822821
C	 -3.709235	 1.934807	 2.067261
H	 -2.747546	 0.671989	 3.517310
H	 -3.193192	 -0.152226	 2.049482
C	 -5.128372	 1.752864	 2.604519
H	 -3.295315	 2.865262	 2.450102
H	 -3.744374	 2.039540	 0.984867
H	 -5.764164	 2.588333	 2.328173
H	 -5.130831	 1.679873	 3.688430
H	 -5.583024	 0.847459	 2.212336
C	 4.728119	 -1.109107	 -0.004993
H	 4.882018	 -1.033965	 -1.071845
H	 5.068212	 -2.067527	 0.355250
H	 5.265056	 -0.311663	 0.488280

	symmetry c1
}
set optking {
	frozen_dihedral = ("
		6 3 2 1
	")
}

ee = optimize('scf')
oeprop('DIPOLE', 'QUADRUPOLE', 'MULLIKEN_CHARGES')
f=open( 'psi4out.xyz', 'w' )
f.write( "29  " )
f.write( str(ee) + "\n" )
f.write( MOL.save_string_xyz() )
f.close()
--------------------------------------------------------------------------

    Molecular point group: c1
  Charge       = 0
  Multiplicity = 1
  Basis Set: 6-31G*
  Basis Set:
  @DF-RHF Final Energy:  -501.04250138974317
    Total Energy =                       -501.0425013897430517
    Molecular point group: c1
  Basis Set: 6-31G*
  Basis Set:
  Basis Set: 6-31G*
  Basis Set:
  @DF-RHF Final Energy:  -501.04282549328502
    Total Energy =                       -501.0428254932858181
  Basis Set: 6-31G*
  Basis Set:
  Basis Set: 6-31G*
  Basis Set:
  @DF-RHF Final Energy:  -501.04233149358345
    Total Energy =                       -501.0423314935833332
  Basis Set: 6-31G*
  Basis Set:
  Basis Set: 6-31G*
  Basis Set:
  @DF-RHF Final Energy:  -501.04282908769278
    Total Energy =                       -501.0428290876927804
  Basis Set: 6-31G*
  Basis Set:
  Basis Set: 6-31G*
  Basis Set:
  @DF-RHF Final Energy:  -501.04284916456231
    Total Energy =                       -501.0428491645621989
  Basis Set: 6-31G*
  Basis Set:
  Basis Set: 6-31G*
  Basis Set:
  @DF-RHF Final Energy:  -501.04287200800979
    Total Energy =                       -501.0428720080092262
  Basis Set: 6-31G*
  Basis Set:
  Basis Set: 6-31G*
  Basis Set:
  @DF-RHF Final Energy:  -501.04287756057397
    Total Energy =                       -501.0428775605741976
  Basis Set: 6-31G*
  Basis Set:
  Charge       = 0
  Multiplicity = 1
  Basis Set: 6-31G*
  Basis Set:

    Orbital Energies (a.u.)
    -----------------------

    Doubly Occupied:

       1A    -20.603777     2A    -20.543269     3A    -11.370413
       4A    -11.280527     5A    -11.233063     6A    -11.228561
       7A    -11.221513     8A    -11.217244     9A    -11.216234
      10A    -11.215440    11A    -11.209327    12A     -1.468273
      13A     -1.360865    14A     -1.100882    15A     -1.068465
      16A     -1.019460    17A     -0.974196    18A     -0.931047
      19A     -0.864515    20A     -0.799641    21A     -0.791121
      22A     -0.772403    23A     -0.697412    24A     -0.678394
      25A     -0.672968    26A     -0.652032    27A     -0.626698
      28A     -0.604121    29A     -0.595499    30A     -0.579425
      31A     -0.564498    32A     -0.553301    33A     -0.540172
      34A     -0.528577    35A     -0.519099    36A     -0.515739
      37A     -0.495776    38A     -0.483664    39A     -0.471432
      40A     -0.464619    41A     -0.463071    42A     -0.455334
      43A     -0.443316    44A     -0.427164

  @DF-RHF Final Energy:  -501.04287704754313

   => Energetics <=

    Nuclear Repulsion Energy =            611.9192103872929920
    One-Electron Energy =               -1894.8790880928772822
    Two-Electron Energy =                 781.9170006580403651
    DFT Exchange-Correlation Energy =       0.0000000000000000
    Empirical Dispersion Energy =           0.0000000000000000
    PCM Polarization Energy =               0.0000000000000000
    EFP Energy =                            0.0000000000000000
    Total Energy =                       -501.0428770475440388
    Molecular point group: c1
  Basis Set: 6-31G*
  Basis Set:

  -Total Gradient:
     Atom            X                  Y                   Z
    ------   -----------------  -----------------  -----------------
       1       -0.000059810675    -0.000029820831    -0.000141933903
       2        0.000070570641     0.000094043348     0.000208966052
       3       -0.000058557347    -0.000160583771    -0.000284585986
       4       -0.000001855170    -0.000031316994     0.000048477015
       5        0.000031894652     0.000077356296     0.000045946957
       6        0.000075069942     0.000083839752     0.000173160168
       7        0.000012984326    -0.000021350732     0.000008099854
       8       -0.000019623839     0.000004372734     0.000001027251
       9        0.000034620472     0.000014882634     0.000023231784
      10       -0.000001075142    -0.000000375102    -0.000042805970
      11       -0.000012344978    -0.000038237155    -0.000036209236
      12       -0.000018645745    -0.000001271319    -0.000002706254
      13       -0.000018134279     0.000003813631    -0.000002828298
      14        0.000001837312    -0.000001241684     0.000002174890
      15        0.000006625538    -0.000012546344    -0.000022094927
      16       -0.000011380166    -0.000014108205     0.000009190358
      17        0.000004102705     0.000013258451     0.000030685738
      18       -0.000002265178    -0.000019869584     0.000000980280
      19       -0.000000660801     0.000010995461    -0.000014136357
      20       -0.000000410769     0.000008985166     0.000005202769
      21       -0.000001126219     0.000009722262    -0.000004517024
      22       -0.000000039875    -0.000008381111     0.000006716021
      23       -0.000003084969    -0.000000368132     0.000000292121
      24       -0.000001421516     0.000001192912    -0.000000407155
      25        0.000003053366    -0.000000584638     0.000000065802
      26       -0.000019126355     0.000014597160    -0.000025758801
      27        0.000004785746    -0.000001473392     0.000002774105
      28       -0.000015764171     0.000001257167     0.000006678228
      29       -0.000000217515     0.000003212023     0.000004314523

  **** Optimization is complete! (in 8 steps) ****
    Final optimized geometry and variables:
    Molecular point group: c1

    Geometry (in Angstrom), charge = 0, multiplicity = 1:

    O            2.892600076303     0.623726691277    -1.753537574134
    C            2.388565508607    -0.315125380416    -1.225784322721
    C            0.930356327440    -0.419127271161    -0.854017622099
    O            3.065833064568    -1.405356604618    -0.886374456309
    C            0.722469749291    -0.429819209782     0.668735463162
    H            0.429384300406     0.420770404583    -1.313939366383
    H            0.534587514195    -1.335586579514    -1.281417939708
    C           -0.742364421794    -0.589804369121     1.089891950426
    H            1.121855846254     0.490227957546     1.089686741252
    H            1.300493376232    -1.244522505005     1.091312444698
    C           -1.653644444903     0.581818440273     0.714311504678
    H           -0.769043925958    -0.719914977161     2.169386707925
    H           -1.139674360790    -1.509850293775     0.664507012274
    C           -3.075486018451     0.425113115031     1.257444959057
    H           -1.222920212264     1.506528219038     1.094890269872
    H           -1.699725549699     0.688872648671    -0.366628324862
    C           -3.995761164753     1.590373643669     0.889466851595
    H           -3.038305176524     0.326056658975     2.341034354567
    H           -3.504351386242    -0.502712967940     0.882058796558
    C           -5.412677957032     1.428833794153     1.438934034551
    H           -3.567899865354     2.518460248128     1.262443574225
    H           -4.037917467557     1.687897517515    -0.193244098245
    H           -6.040722015672     2.269616130389     1.161137913416
    H           -5.407719861428     1.363925362748     2.523371762555
    H           -5.880861231028     0.525967238576     1.056948395717
    C            4.452637147733    -1.414798769913    -1.171618793922
    H            4.622268385381    -1.312161050968    -2.233728545757
    H            4.818995303537    -2.368422706078    -0.824634061790
    H            4.952778538693    -0.609794230075    -0.652668471423

  Mulliken Charges: (a.u.)
   Center  Symbol    Alpha    Beta     Spin     Total
       1     O     4.28491  4.28491  0.00000 -0.56982
       2     C     2.61544  2.61544  0.00000  0.76911
       3     C     3.19811  3.19811  0.00000 -0.39622
       4     O     4.30284  4.30284  0.00000 -0.60567
       5     C     3.16651  3.16651  0.00000 -0.33302
       6     H     0.39682  0.39682  0.00000  0.20635
       7     H     0.40519  0.40519  0.00000  0.18962
       8     C     3.15500  3.15500  0.00000 -0.30999
       9     H     0.41418  0.41418  0.00000  0.17164
      10     H     0.40636  0.40636  0.00000  0.18728
      11     C     3.15519  3.15519  0.00000 -0.31039
      12     H     0.41847  0.41847  0.00000  0.16306
      13     H     0.42193  0.42193  0.00000  0.15614
      14     C     3.15067  3.15067  0.00000 -0.30133
      15     H     0.42178  0.42178  0.00000  0.15643
      16     H     0.42150  0.42150  0.00000  0.15701
      17     C     3.15161  3.15161  0.00000 -0.30321
      18     H     0.42369  0.42369  0.00000  0.15263
      19     H     0.42386  0.42386  0.00000  0.15229
      20     C     3.23943  3.23943  0.00000 -0.47886
      21     H     0.42242  0.42242  0.00000  0.15515
      22     H     0.42271  0.42271  0.00000  0.15458
      23     H     0.41890  0.41890  0.00000  0.16221
      24     H     0.42174  0.42174  0.00000  0.15651
      25     H     0.42183  0.42183  0.00000  0.15635
      26     C     3.09220  3.09220  0.00000 -0.18440
      27     H     0.40873  0.40873  0.00000  0.18254
      28     H     0.40893  0.40893  0.00000  0.18215
      29     H     0.40906  0.40906  0.00000  0.18187

   Total alpha = 44.00000, Total beta = 44.00000, Total charge =  0.00000
