                              Psi4 1.0.54 Driver

  ==> Input File <==

--------------------------------------------------------------------------
set {
	reference rhf
	basis cc-pvtz
}

set_num_threads( 4 )
memory 2 gb

molecule MOL {
0 1

O	 0.623971	 1.347241	 -0.000777
C	 0.485107	 0.171416	 -0.000134
C	 1.606966	 -0.836201	 0.000174
O	 -0.695554	 -0.422406	 0.000602
C	 2.988788	 -0.202529	 -0.000115
H	 1.465110	 -1.474645	 -0.864821
H	 1.465209	 -1.474077	 0.865596
H	 3.131767	 0.419673	 -0.873407
H	 3.750876	 -0.972315	 0.000098
H	 3.131883	 0.420264	 0.872742
C	 -0.924589	 -1.441203	 0.963868
C	 -2.330380	 -1.957445	 0.764534
H	 -0.790178	 -1.027916	 1.953552
H	 -0.191566	 -2.224311	 0.830665
H	 -3.055324	 -1.164572	 0.899372
H	 -2.538645	 -2.738707	 1.485983
H	 -2.453305	 -2.367839	 -0.229868

	symmetry c1
}
set optking {
	frozen_dihedral = ("
		11 4 2 3
	")
}

ee,wfn = optimize('scf', return_wfn=True)
oeprop( wfn, 'DIPOLE', 'QUADRUPOLE', 'MULLIKEN_CHARGES')
f=open( 'psi4out.xyz', 'w' )
f.write( "17  " )
f.write( str(ee) + "\n" )
f.write( MOL.save_string_xyz() )
f.close()
--------------------------------------------------------------------------

    Molecular point group: c1
  Charge       = 0
  Multiplicity = 1
  Basis Set: CC-PVTZ
  Basis Set:
  @DF-RHF Final Energy:  -345.01647703329786
    Total Energy =                       -345.0164770332980311
    Molecular point group: c1
  Basis Set: CC-PVTZ
  Basis Set:
  Basis Set: CC-PVTZ
  Basis Set:
  @DF-RHF Final Energy:  -345.01249807162918
    Total Energy =                       -345.0124980716288974
  Basis Set: CC-PVTZ
  Basis Set:
  Basis Set: CC-PVTZ
  Basis Set:
  @DF-RHF Final Energy:  -345.02198237189924
    Total Energy =                       -345.0219823718990710
  Basis Set: CC-PVTZ
  Basis Set:
  Basis Set: CC-PVTZ
  Basis Set:
  @DF-RHF Final Energy:  -345.02135862543804
    Total Energy =                       -345.0213586254382676
  Basis Set: CC-PVTZ
  Basis Set:
  @DF-RHF Final Energy:  -345.02309864891760
    Total Energy =                       -345.0230986489172551
  Basis Set: CC-PVTZ
  Basis Set:
  @DF-RHF Final Energy:  -345.02320342603457
    Total Energy =                       -345.0232034260344562
  Basis Set: CC-PVTZ
  Basis Set:
  Basis Set: CC-PVTZ
  Basis Set:
  @DF-RHF Final Energy:  -345.02325161835148
    Total Energy =                       -345.0232516183512530
  Basis Set: CC-PVTZ
  Basis Set:
  Basis Set: CC-PVTZ
  Basis Set:
  @DF-RHF Final Energy:  -345.02325296072354
    Total Energy =                       -345.0232529607236529
  Basis Set: CC-PVTZ
  Basis Set:
  Charge       = 0
  Multiplicity = 1
  Basis Set: CC-PVTZ
  Basis Set:

    Orbital Energies (a.u.)
    -----------------------

    Doubly Occupied:

       1A    -20.583241     2A    -20.536151     3A    -11.365475
       4A    -11.296272     5A    -11.243144     6A    -11.224197
       7A    -11.217634     8A     -1.461625     9A     -1.368631
      10A     -1.064266    11A     -1.043609    12A     -0.902031
      13A     -0.876230    14A     -0.771341    15A     -0.704889
      16A     -0.691967    17A     -0.658603    18A     -0.638577
      19A     -0.600885    20A     -0.565897    21A     -0.560469
      22A     -0.538075    23A     -0.527489    24A     -0.518706
      25A     -0.510250    26A     -0.490663    27A     -0.452705
      28A     -0.435486

  @DF-RHF Final Energy:  -345.02325314185140

   => Energetics <=

    Nuclear Repulsion Energy =            315.4272851562367919
    One-Electron Energy =               -1095.2040645627698723
    Two-Electron Energy =                 434.7535262646815681
    DFT Exchange-Correlation Energy =       0.0000000000000000
    Empirical Dispersion Energy =           0.0000000000000000
    PCM Polarization Energy =               0.0000000000000000
    EFP Energy =                            0.0000000000000000
    Total Energy =                       -345.0232531418514554
    Molecular point group: c1
  Basis Set: CC-PVTZ
  Basis Set:

  -Total Gradient:
     Atom            X                  Y                   Z
    ------   -----------------  -----------------  -----------------
       1        0.000015731112     0.000016492536    -0.000005413155
       2       -0.001115752497     0.002172382122     0.005057484574
       3        0.000240381785    -0.000554263244    -0.002844688534
       4        0.002177034688    -0.004158124617    -0.003734100586
       5       -0.000008903346     0.000001379359     0.000007337991
       6        0.000009375936     0.000002592288     0.000008460708
       7        0.000003976815     0.000004265283     0.000008686494
       8       -0.000002781204    -0.000000341720    -0.000003592449
       9       -0.000000963023    -0.000003831434    -0.000000468708
      10       -0.000004524042    -0.000002328661    -0.000000922806
      11       -0.001311236592     0.002504650904     0.001518866391
      12       -0.000007175265     0.000006434107    -0.000004804971
      13        0.000004442990     0.000003097303    -0.000004816512
      14        0.000003487609     0.000005264673    -0.000001432667
      15       -0.000007776573    -0.000001555386    -0.000001611238
      16        0.000004172218     0.000003058041    -0.000000198340
      17        0.000000509393     0.000000828450     0.000001213810

  **** Optimization is complete! (in 9 steps) ****
    Final optimized geometry and variables:
    Molecular point group: c1

    Geometry (in Angstrom), charge = 0, multiplicity = 1:

    O            0.345215593584     1.671748830799    -0.605740184200
    C            0.286745216776     0.536700329866    -0.298887691557
    C            1.502373194600    -0.323035449475    -0.029684471651
    O           -0.896611179190    -0.090074919034    -0.276791038021
    C            2.814655932343     0.404724824652    -0.277065701166
    H            1.416485573694    -1.203566914221    -0.657697792333
    H            1.457017205819    -0.679251695248     0.994179169793
    H            2.884221422671     0.741849439472    -1.302226970677
    H            3.649190795071    -0.255736722954    -0.074918120914
    H            2.902242429014     1.273756942523     0.360381336102
    C           -1.256178882743    -0.927098389579     0.805609090434
    C           -2.722890900492    -1.261688214139     0.662271040575
    H           -1.074489835557    -0.408116387072     1.740287380637
    H           -0.659965394949    -1.831980488453     0.796802954979
    H           -3.321611478167    -0.360913644397     0.683320498007
    H           -3.035404282513    -1.907705666180     1.474420185775
    H           -2.904888533188    -1.772200797726    -0.274708660269

  Mulliken Charges: (a.u.)
   Center  Symbol    Alpha    Beta     Spin     Total
       1     O     4.17244  4.17244  0.00000 -0.34488
       2     C     2.81056  2.81056  0.00000  0.37887
       3     C     3.11859  3.11859  0.00000 -0.23717
       4     O     4.14576  4.14576  0.00000 -0.29152
       5     C     3.13885  3.13885  0.00000 -0.27769
       6     H     0.43719  0.43719  0.00000  0.12562
       7     H     0.44441  0.44441  0.00000  0.11118
       8     H     0.44582  0.44582  0.00000  0.10836
       9     H     0.45137  0.45137  0.00000  0.09727
      10     H     0.44665  0.44665  0.00000  0.10670
      11     C     2.98632  2.98632  0.00000  0.02736
      12     C     3.13289  3.13289  0.00000 -0.26577
      13     H     0.45832  0.45832  0.00000  0.08337
      14     H     0.45962  0.45962  0.00000  0.08076
      15     H     0.44532  0.44532  0.00000  0.10935
      16     H     0.45703  0.45703  0.00000  0.08594
      17     H     0.44887  0.44887  0.00000  0.10226

   Total alpha = 28.00000, Total beta = 28.00000, Total charge = -0.00000

*** Psi4 exiting successfully. Buy a developer a beer!
