                              Psi4 1.0.54 Driver

  ==> Input File <==

--------------------------------------------------------------------------
set {
	reference rhf
	basis cc-pvtz
}

set_num_threads( 4 )
memory 2 gb

molecule MOL {
0 1

H	 -0.849462	 2.598975	 2.533825
O	 -0.645909	 3.011550	 1.714528
C	 -0.380350	 2.043974	 0.738098
C	 0.972269	 1.394307	 0.952918
H	 -1.150971	 1.279997	 0.713398
H	 -0.389175	 2.549079	 -0.217136
O	 1.172093	 0.457955	 -0.054438
H	 1.003381	 0.914692	 1.932661
H	 1.748171	 2.156759	 0.938141
C	 2.395478	 -0.199028	 -0.000366
H	 2.505946	 -0.901710	 -0.823354
H	 3.174616	 0.545641	 -0.071768
H	 2.513730	 -0.742241	 0.934223

	symmetry c1
}
set optking {
	frozen_dihedral = ("
		4 7 10 13
	")
}

ee,wfn = optimize('scf', return_wfn=True)
oeprop( wfn, 'DIPOLE', 'QUADRUPOLE', 'MULLIKEN_CHARGES')
f=open( 'psi4out.xyz', 'w' )
f.write( "13  " )
f.write( str(ee) + "\n" )
f.write( MOL.save_string_xyz() )
f.close()
--------------------------------------------------------------------------

    Molecular point group: c1
  Charge       = 0
  Multiplicity = 1
  Basis Set: CC-PVTZ
  Basis Set:
  @DF-RHF Final Energy:  -268.06131027512390
    Total Energy =                       -268.0613102751240149
    Molecular point group: c1
  Basis Set: CC-PVTZ
  Basis Set:
  Basis Set: CC-PVTZ
  Basis Set:
  @DF-RHF Final Energy:  -268.06209349214555
    Total Energy =                       -268.0620934921455500
  Basis Set: CC-PVTZ
  Basis Set:
  Basis Set: CC-PVTZ
  Basis Set:
  @DF-RHF Final Energy:  -268.06230938936119
    Total Energy =                       -268.0623093893612463
  Basis Set: CC-PVTZ
  Basis Set:
  Charge       = 0
  Multiplicity = 1
  Basis Set: CC-PVTZ
  Basis Set:

    Orbital Energies (a.u.)
    -----------------------

    Doubly Occupied:

       1A    -20.556088     2A    -20.552905     3A    -11.269315
       4A    -11.267816     5A    -11.267519     6A     -1.392182
       7A     -1.369332     8A     -1.019786     9A     -0.914008
      10A     -0.842903    11A     -0.712109    12A     -0.676624
      13A     -0.663241    14A     -0.639372    15A     -0.597862
      16A     -0.571127    17A     -0.546975    18A     -0.491372
      19A     -0.483559    20A     -0.441754    21A     -0.424822

  @DF-RHF Final Energy:  -268.06231036328211

   => Energetics <=

    Nuclear Repulsion Energy =            190.5188177905777991
    One-Electron Energy =                -743.7609147942978325
    Two-Electron Energy =                 285.1797866404380102
    DFT Exchange-Correlation Energy =       0.0000000000000000
    Empirical Dispersion Energy =           0.0000000000000000
    PCM Polarization Energy =               0.0000000000000000
    EFP Energy =                            0.0000000000000000
    Total Energy =                       -268.0623103632819948
    Molecular point group: c1
  Basis Set: CC-PVTZ
  Basis Set:

  -Total Gradient:
     Atom            X                  Y                   Z
    ------   -----------------  -----------------  -----------------
       1        0.000005435403    -0.000018839626    -0.000011356321
       2        0.000098707794    -0.000060690510    -0.000062546731
       3       -0.000054616230    -0.000049899406    -0.000088014021
       4        0.000025493527    -0.000078959933     0.000230133955
       5       -0.000003743285    -0.000001726148     0.000004777435
       6       -0.000023876084     0.000032169114    -0.000000908307
       7        0.000072126221     0.000125165797    -0.000085606703
       8        0.000007945278     0.000002602270     0.000010497806
       9        0.000018265587    -0.000021383139    -0.000039754740
      10       -0.000090906630    -0.000038185087    -0.000007149808
      11       -0.000042007670     0.000011200987    -0.000008031250
      12       -0.000021459460     0.000015912411    -0.000002935672
      13        0.000008635553     0.000082633268     0.000060894357

  **** Optimization is complete! (in 4 steps) ****
    Final optimized geometry and variables:
    Molecular point group: c1

    Geometry (in Angstrom), charge = 0, multiplicity = 1:

    H           -1.536387457587     1.244155615285     1.847410397348
    O           -1.320375972269     1.666057515682     1.036076977656
    C           -1.063986496951     0.709388199429     0.046673682305
    C            0.275710511851     0.033696757928     0.261820050256
    H           -1.847171029805    -0.040932785972     0.004377211898
    H           -1.056870363348     1.229370233315    -0.900574002657
    O            0.467297379039    -0.889678138076    -0.758884741650
    H            0.291080652104    -0.461854988538     1.233953349786
    H            1.064609872763     0.782857467032     0.264768433852
    C            1.679547941655    -1.566833187162    -0.706812944537
    H            1.708506588800    -2.258053634013    -1.536274389812
    H            2.520481321797    -0.882438041331    -0.790405243209
    H            1.782504256433    -2.126578942224     0.220220922355

  Mulliken Charges: (a.u.)
   Center  Symbol    Alpha    Beta     Spin     Total
       1     H     0.39407  0.39407  0.00000  0.21186
       2     O     4.20211  4.20211  0.00000 -0.40421
       3     C     2.97336  2.97336  0.00000  0.05328
       4     C     2.96512  2.96512  0.00000  0.06976
       5     H     0.46685  0.46685  0.00000  0.06631
       6     H     0.45267  0.45267  0.00000  0.09467
       7     O     4.17535  4.17535  0.00000 -0.35071
       8     H     0.48201  0.48201  0.00000  0.03598
       9     H     0.46964  0.46964  0.00000  0.06071
      10     C     3.03179  3.03179  0.00000 -0.06358
      11     H     0.44592  0.44592  0.00000  0.10816
      12     H     0.46971  0.46971  0.00000  0.06058
      13     H     0.47140  0.47140  0.00000  0.05721

   Total alpha = 21.00000, Total beta = 21.00000, Total charge =  0.00000

*** Psi4 exiting successfully. Buy a developer a beer!
