  ==> Input File <==

--------------------------------------------------------------------------
set {
	reference rhf
	basis 6-31G*
}

set_num_threads( 4 )
memory 2 gb

molecule MOL {
0 1

H	 -2.246233	 -0.876840	 -0.592397
C	 -1.957230	 0.102253	 -0.224708
N	 -0.528168	 0.128977	 -0.000000
H	 -2.476616	 0.269613	 0.711917
H	 -2.305302	 0.844919	 -0.947590
C	 0.248044	 -0.037491	 -1.209632
H	 -0.272622	 0.984874	 0.450739
H	 0.998722	 0.743888	 -1.266824
H	 -0.398417	 0.061950	 -2.074060
H	 0.763621	 -0.999315	 -1.275517

	symmetry c1
}
set optking {
	frozen_dihedral = ("
		2 3 6 8
	")
}

ee = optimize('scf')
oeprop('DIPOLE', 'QUADRUPOLE', 'MULLIKEN_CHARGES')
f=open( 'psi4out.xyz', 'w' )
f.write( "10  " )
f.write( str(ee) + "\n" )
f.write( MOL.save_string_xyz() )
f.close()
--------------------------------------------------------------------------

    Molecular point group: c1
  Charge       = 0
  Multiplicity = 1
  Basis Set: 6-31G*
  Basis Set:
  @DF-RHF Final Energy:  -134.23326128152681
    Total Energy =                       -134.2332612815268362
    Molecular point group: c1
  Basis Set: 6-31G*
  Basis Set:
  Basis Set: 6-31G*
  Basis Set:
  @DF-RHF Final Energy:  -134.23393571401004
    Total Energy =                       -134.2339357140100446
  Basis Set: 6-31G*
  Basis Set:
  Basis Set: 6-31G*
  Basis Set:
  @DF-RHF Final Energy:  -134.23403774361526
    Total Energy =                       -134.2340377436153176
  Basis Set: 6-31G*
  Basis Set:
  Charge       = 0
  Multiplicity = 1
  Basis Set: 6-31G*
  Basis Set:

    Orbital Energies (a.u.)
    -----------------------

    Doubly Occupied:

       1A    -15.535487     2A    -11.236052     3A    -11.235831
       4A     -1.195243     5A     -0.947728     6A     -0.854338
       7A     -0.659530     8A     -0.610809     9A     -0.588015
      10A     -0.546173    11A     -0.508883    12A     -0.504687
      13A     -0.357687

  @DF-RHF Final Energy:  -134.23403889665099

   => Energetics <=

    Nuclear Repulsion Energy =             84.4001247938246166
    One-Electron Energy =                -347.7074027764294897
    Two-Electron Energy =                 129.0732390859538725
    DFT Exchange-Correlation Energy =       0.0000000000000000
    Empirical Dispersion Energy =           0.0000000000000000
    PCM Polarization Energy =               0.0000000000000000
    EFP Energy =                            0.0000000000000000
    Total Energy =                       -134.2340388966510147
    Molecular point group: c1
  Basis Set: 6-31G*
  Basis Set:

  -Total Gradient:
     Atom            X                  Y                   Z
    ------   -----------------  -----------------  -----------------
       1        0.000061222307     0.000014449023     0.000001834823
       2       -0.000028145168     0.002122320740    -0.000154578077
       3       -0.000515479486    -0.002495219857    -0.000069647280
       4       -0.000055444416    -0.000003900770     0.000013686228
       5        0.000042317953    -0.000013858766     0.000000484210
       6        0.002219036764    -0.001163263762     0.001574109061
       7       -0.000062546379    -0.000010560807     0.000022662521
       8       -0.001713782644     0.001562352290    -0.001354937793
       9        0.000014978780    -0.000009337002     0.000008313230
      10        0.000037842290    -0.000002981088    -0.000041926923

  **** Optimization is complete! (in 4 steps) ****
    Final optimized geometry and variables:
    Molecular point group: c1

    Geometry (in Angstrom), charge = 0, multiplicity = 1:

    H           -1.510500453565    -0.955137518093    -0.091875221984
    C           -1.213295784024     0.019749961217     0.279975621432
    N            0.218511620551     0.046229009929     0.487417818150
    H           -1.718876690603     0.176913390446     1.226086363106
    H           -1.571578725485     0.769713477273    -0.429649569853
    C            1.012850902533    -0.110689060830    -0.722837112075
    H            0.469992753959     0.891472693382     0.955617578729
    H            1.770680275307     0.662832204080    -0.792658282879
    H            0.403324529282    -0.028913673949    -1.621036700163
    H            1.507544181905    -1.076406349905    -0.745762159664

  Mulliken Charges: (a.u.)
   Center  Symbol    Alpha    Beta     Spin     Total
       1     H     0.41769  0.41769  0.00000  0.16462
       2     C     3.14405  3.14405  0.00000 -0.28809
       3     N     3.84402  3.84402  0.00000 -0.68804
       4     H     0.41786  0.41786  0.00000  0.16429
       5     H     0.43462  0.43462  0.00000  0.13076
       6     C     3.14420  3.14420  0.00000 -0.28841
       7     H     0.33083  0.33083  0.00000  0.33835
       8     H     0.42348  0.42348  0.00000  0.15303
       9     H     0.42681  0.42681  0.00000  0.14637
      10     H     0.41644  0.41644  0.00000  0.16711

   Total alpha = 13.00000, Total beta = 13.00000, Total charge =  0.00000
