  ==> Input File <==

--------------------------------------------------------------------------
set {
	reference rhf
	basis 6-31G*
}

set_num_threads( 1 )
memory 2 gb

molecule MOL {
0 1

O	 3.749173	 0.512564	 1.824227
C	 2.980675	 -0.187454	 1.247646
C	 1.488609	 -0.229733	 1.472899
O	 3.347903	 -1.046386	 0.304773
C	 1.015327	 0.752272	 2.542379
H	 1.016559	 -0.045113	 0.513589
H	 1.230879	 -1.251790	 1.738742
C	 -0.480817	 0.647976	 2.857289
H	 1.256113	 1.764475	 2.231595
H	 1.582477	 0.575010	 3.449760
C	 -1.411442	 1.055987	 1.711612
H	 -0.689122	 1.281459	 3.716377
H	 -0.715760	 -0.368814	 3.168656
C	 -2.888489	 1.039953	 2.110452
H	 -1.142078	 2.054358	 1.370266
H	 -1.270466	 0.393726	 0.860431
C	 -3.828152	 1.440945	 0.971870
H	 -3.040637	 1.711093	 2.954049
H	 -3.155768	 0.044632	 2.462015
C	 -5.301017	 1.426077	 1.379483
H	 -3.561817	 2.434915	 0.618695
H	 -3.680635	 0.768550	 0.129312
H	 -5.941585	 1.714501	 0.551781
H	 -5.488174	 2.115245	 2.198150
H	 -5.607638	 0.436161	 1.705557
C	 4.728119	 -1.109107	 -0.004993
H	 4.882018	 -1.033965	 -1.071845
H	 5.068212	 -2.067527	 0.355250
H	 5.265056	 -0.311663	 0.488280

	symmetry c1
}
set optking {
	frozen_dihedral = ("
		21 17 14 11,
		17 14 11 15,
		15 11 8 5,
		6 3 5 9,
		11 8 5 9,
		1 2 4 26,
		6 3 2 1
	")
}

ee = energy('scf')
oeprop('DIPOLE', 'QUADRUPOLE', 'MULLIKEN_CHARGES')
f=open( 'psi4out.xyz', 'w' )
f.write( "29  " )
f.write( str(ee) + "\n" )
f.write( MOL.save_string_xyz() )
f.close()
--------------------------------------------------------------------------

    Molecular point group: c1

    Geometry (in Angstrom), charge = 0, multiplicity = 1:

       Center              X                  Y                   Z               Mass
    ------------   -----------------  -----------------  -----------------  -----------------
           O          3.401049384647     0.134397394761     0.349673159213    15.994914619560
           C          2.632551384647    -0.565620605239    -0.226907840787    12.000000000000
           C          1.140485384647    -0.607899605239    -0.001654840787    12.000000000000
           O          2.999779384647    -1.424552605239    -1.169780840787    15.994914619560
           C          0.667203384647     0.374105394761     1.067825159213    12.000000000000
           H          0.668435384647    -0.423279605239    -0.960964840787     1.007825032070
           H          0.882755384647    -1.629956605239     0.264188159213     1.007825032070
           C         -0.828940615353     0.269809394761     1.382735159213    12.000000000000
           H          0.907989384647     1.386308394761     0.757041159213     1.007825032070
           H          1.234353384647     0.196843394761     1.975206159213     1.007825032070
           C         -1.759565615353     0.677820394761     0.237058159213    12.000000000000
           H         -1.037245615353     0.903292394761     2.241823159213     1.007825032070
           H         -1.063883615353    -0.746980605239     1.694102159213     1.007825032070
           C         -3.236612615353     0.661786394761     0.635898159213    12.000000000000
           H         -1.490201615353     1.676191394761    -0.104287840787     1.007825032070
           H         -1.618589615353     0.015559394761    -0.614122840787     1.007825032070
           C         -4.176275615353     1.062778394761    -0.502683840787    12.000000000000
           H         -3.388760615353     1.332926394761     1.479495159213     1.007825032070
           H         -3.503891615353    -0.333534605239     0.987461159213     1.007825032070
           C         -5.649140615353     1.047910394761    -0.095070840787    12.000000000000
           H         -3.909940615353     2.056748394761    -0.855858840787     1.007825032070
           H         -4.028758615353     0.390383394761    -1.345241840787     1.007825032070
           H         -6.289708615353     1.336334394761    -0.922772840787     1.007825032070
           H         -5.836297615353     1.737078394761     0.723596159213     1.007825032070
           H         -5.955761615353     0.057994394761     0.231003159213     1.007825032070
           C          4.379995384647    -1.487273605239    -1.479546840787    12.000000000000
           H          4.533894384647    -1.412131605239    -2.546398840787     1.007825032070
           H          4.720088384647    -2.445693605239    -1.119303840787     1.007825032070
           H          4.916932384647    -0.689829605239    -0.986273840787     1.007825032070

  Charge       = 0
  Multiplicity = 1
  Basis Set: 6-31G*
  Basis Set:

    Orbital Energies (a.u.)
    -----------------------

    Doubly Occupied:

       1A    -20.602933     2A    -20.544373     3A    -11.373362
       4A    -11.275906     5A    -11.235241     6A    -11.219312
       7A    -11.217777     8A    -11.216089     9A    -11.215914
      10A    -11.214536    11A    -11.209092    12A     -1.469368
      13A     -1.362669    14A     -1.098272    15A     -1.067013
      16A     -1.019518    17A     -0.976504    18A     -0.928160
      19A     -0.861560    20A     -0.799202    21A     -0.790451
      22A     -0.763072    23A     -0.703602    24A     -0.681863
      25A     -0.672404    26A     -0.651148    27A     -0.629463
      28A     -0.604427    29A     -0.595043    30A     -0.579133
      31A     -0.568402    32A     -0.550108    33A     -0.534149
      34A     -0.524642    35A     -0.515279    36A     -0.512319
      37A     -0.496979    38A     -0.477999    39A     -0.470270
      40A     -0.462444    41A     -0.458922    42A     -0.452230
      43A     -0.441692    44A     -0.436013

  @DF-RHF Final Energy:  -501.04089530983697

   => Energetics <=

    Nuclear Repulsion Energy =            610.3308704838959784
    One-Electron Energy =               -1891.7858972719789108
    Two-Electron Energy =                 780.4141314782444852
    DFT Exchange-Correlation Energy =       0.0000000000000000
    Empirical Dispersion Energy =           0.0000000000000000
    PCM Polarization Energy =               0.0000000000000000
    EFP Energy =                            0.0000000000000000
    Total Energy =                       -501.0408953098384472

  Mulliken Charges: (a.u.)
   Center  Symbol    Alpha    Beta     Spin     Total
       1     O     4.28682  4.28682  0.00000 -0.57364
       2     C     2.60423  2.60423  0.00000  0.79153
       3     C     3.21057  3.21057  0.00000 -0.42115
       4     O     4.30740  4.30740  0.00000 -0.61480
       5     C     3.15386  3.15386  0.00000 -0.30772
       6     H     0.39850  0.39850  0.00000  0.20299
       7     H     0.40101  0.40101  0.00000  0.19798
       8     C     3.15663  3.15663  0.00000 -0.31325
       9     H     0.41304  0.41304  0.00000  0.17392
      10     H     0.40867  0.40867  0.00000  0.18266
      11     C     3.15509  3.15509  0.00000 -0.31017
      12     H     0.41820  0.41820  0.00000  0.16360
      13     H     0.42384  0.42384  0.00000  0.15232
      14     C     3.15030  3.15030  0.00000 -0.30060
      15     H     0.42260  0.42260  0.00000  0.15480
      16     H     0.42359  0.42359  0.00000  0.15281
      17     C     3.15147  3.15147  0.00000 -0.30294
      18     H     0.42332  0.42332  0.00000  0.15337
      19     H     0.42396  0.42396  0.00000  0.15209
      20     C     3.23935  3.23935  0.00000 -0.47871
      21     H     0.42280  0.42280  0.00000  0.15440
      22     H     0.42341  0.42341  0.00000  0.15318
      23     H     0.41922  0.41922  0.00000  0.16157
      24     H     0.42155  0.42155  0.00000  0.15691
      25     H     0.42182  0.42182  0.00000  0.15636
      26     C     3.10266  3.10266  0.00000 -0.20533
      27     H     0.41201  0.41201  0.00000  0.17597
      28     H     0.41329  0.41329  0.00000  0.17342
      29     H     0.39079  0.39079  0.00000  0.21842

   Total alpha = 44.00000, Total beta = 44.00000, Total charge = -0.00000
