  ==> Input File <==

--------------------------------------------------------------------------
set {
	reference rhf
	basis 6-31G*
}

set_num_threads( 1 )
memory 2 gb

molecule MOL {
0 1

H	 -2.698709	 -0.000305	 0.034435
C	 -1.693833	 0.000034	 0.434417
O	 -0.828952	 -0.000968	 -0.659236
H	 -1.574200	 0.882896	 1.055746
H	 -1.574147	 -0.881698	 1.057355
C	 -0.242249	 1.216784	 -1.055926
C	 -1.274504	 2.234041	 -1.538166
C	 0.687121	 1.793585	 0.010156
H	 0.365272	 0.931850	 -1.906669
H	 -1.947249	 1.776207	 -2.255349
H	 -0.775800	 3.067423	 -2.022937
H	 -1.865830	 2.637821	 -0.722410
H	 1.371597	 1.030747	 0.365162
H	 1.271416	 2.607409	 -0.407882
H	 0.141436	 2.187868	 0.861395

	symmetry c1
}
set optking {
	frozen_dihedral = ("
		9 6 3 2
	")
}

ee = energy('scf')
oeprop('DIPOLE', 'QUADRUPOLE', 'MULLIKEN_CHARGES')
f=open( 'psi4out.xyz', 'w' )
f.write( "15  " )
f.write( str(ee) + "\n" )
f.write( MOL.save_string_xyz() )
f.close()
--------------------------------------------------------------------------

    Molecular point group: c1

    Geometry (in Angstrom), charge = 0, multiplicity = 1:

       Center              X                  Y                   Z               Mass
    ------------   -----------------  -----------------  -----------------  -----------------
           H         -2.011768927128    -1.043455959561     0.578635389211     1.007825032070
           C         -1.006892927128    -1.043116959561     0.978617389211    12.000000000000
           O         -0.142011927128    -1.044118959561    -0.115035610789    15.994914619560
           H         -0.887259927128    -0.160254959561     1.599946389211     1.007825032070
           H         -0.887206927128    -1.924848959561     1.601555389211     1.007825032070
           C          0.444691072872     0.173633040439    -0.511725610789    12.000000000000
           C         -0.587563927128     1.190890040439    -0.993965610789    12.000000000000
           C          1.374061072872     0.750434040439     0.554356389211    12.000000000000
           H          1.052212072872    -0.111300959561    -1.362468610789     1.007825032070
           H         -1.260308927128     0.733056040439    -1.711148610789     1.007825032070
           H         -0.088859927128     2.024272040439    -1.478736610789     1.007825032070
           H         -1.178889927128     1.594670040439    -0.178209610789     1.007825032070
           H          2.058537072872    -0.012403959561     0.909362389211     1.007825032070
           H          1.958356072872     1.564258040439     0.136318389211     1.007825032070
           H          0.828376072872     1.144717040439     1.405595389211     1.007825032070

  Charge       = 0
  Multiplicity = 1
  Basis Set: 6-31G*
  Basis Set:

    Orbital Energies (a.u.)
    -----------------------

    Doubly Occupied:

       1A    -20.545674     2A    -11.275249     3A    -11.260900
       4A    -11.210836     5A    -11.210568     6A     -1.369395
       7A     -1.050484     8A     -0.939698     9A     -0.931197
      10A     -0.781474    11A     -0.675794    12A     -0.639853
      13A     -0.632288    14A     -0.572584    15A     -0.563115
      16A     -0.551869    17A     -0.537142    18A     -0.500962
      19A     -0.497095    20A     -0.442170    21A     -0.402443

  @DF-RHF Final Energy:  -232.13445026963257

   => Energetics <=

    Nuclear Repulsion Energy =            198.8442751243501903
    One-Electron Energy =                -708.7757799390628861
    Two-Electron Energy =                 277.7970545450803002
    DFT Exchange-Correlation Energy =       0.0000000000000000
    Empirical Dispersion Energy =           0.0000000000000000
    PCM Polarization Energy =               0.0000000000000000
    EFP Energy =                            0.0000000000000000
    Total Energy =                       -232.1344502696323957

  Mulliken Charges: (a.u.)
   Center  Symbol    Alpha    Beta     Spin     Total
       1     H     0.42394  0.42394  0.00000  0.15212
       2     C     3.07951  3.07951  0.00000 -0.15902
       3     O     4.31432  4.31432  0.00000 -0.62863
       4     H     0.43076  0.43076  0.00000  0.13849
       5     H     0.41669  0.41669  0.00000  0.16662
       6     C     2.91015  2.91015  0.00000  0.17970
       7     C     3.25208  3.25208  0.00000 -0.50416
       8     C     3.25218  3.25218  0.00000 -0.50436
       9     H     0.41510  0.41510  0.00000  0.16980
      10     H     0.41143  0.41143  0.00000  0.17715
      11     H     0.41963  0.41963  0.00000  0.16074
      12     H     0.42201  0.42201  0.00000  0.15598
      13     H     0.41118  0.41118  0.00000  0.17764
      14     H     0.41943  0.41943  0.00000  0.16113
      15     H     0.42159  0.42159  0.00000  0.15681

   Total alpha = 21.00000, Total beta = 21.00000, Total charge = -0.00000
