  ==> Input File <==

--------------------------------------------------------------------------
set {
	reference rhf
	basis cc-pvtz
}

set_num_threads( 4 )
memory 2 gb

molecule MOL {
0 1

O	 -0.694481	 1.313155	 -0.204815
C	 -0.862519	 0.151932	 -0.046791
C	 -2.171428	 -0.477048	 0.339095
O	 0.085519	 -0.757083	 -0.192238
H	 -2.467997	 -1.191667	 -0.417688
H	 -2.923379	 0.287970	 0.444097
H	 -2.053854	 -1.015120	 1.270901
C	 1.392036	 -0.330828	 -0.560749
C	 2.258385	 -1.494098	 -0.996800
H	 1.839418	 0.198837	 0.265762
H	 1.234888	 0.358682	 -1.376610
H	 3.220713	 -1.124392	 -1.332500
H	 2.424995	 -2.180269	 -0.177780
H	 1.794979	 -2.030264	 -1.816174

	symmetry c1
}
set optking {
	frozen_dihedral = ("
		10 8 4 2
	")
}

ee = optimize('scf')
oeprop('DIPOLE', 'QUADRUPOLE', 'MULLIKEN_CHARGES')
f=open( 'psi4out.xyz', 'w' )
f.write( "14  " )
f.write( str(ee) + "\n" )
f.write( MOL.save_string_xyz() )
f.close()
--------------------------------------------------------------------------

    Molecular point group: c1
  Charge       = 0
  Multiplicity = 1
  Basis Set: CC-PVTZ
  Basis Set:
  @DF-RHF Final Energy:  -305.99032859711315
    Total Energy =                       -305.9903285971130344
    Molecular point group: c1
  Basis Set: CC-PVTZ
  Basis Set:
  Basis Set: CC-PVTZ
  Basis Set:
  @DF-RHF Final Energy:  -305.99167083197892
    Total Energy =                       -305.9916708319790928
  Basis Set: CC-PVTZ
  Basis Set:
  Basis Set: CC-PVTZ
  Basis Set:
  @DF-RHF Final Energy:  -305.99186227108896
    Total Energy =                       -305.9918622710891327
  Basis Set: CC-PVTZ
  Basis Set:
  Basis Set: CC-PVTZ
  Basis Set:
  @DF-RHF Final Energy:  -305.99140889613045
    Total Energy =                       -305.9914088961307357
  Basis Set: CC-PVTZ
  Basis Set:
  Basis Set: CC-PVTZ
  Basis Set:
  @DF-RHF Final Energy:  -305.99198083989552
    Total Energy =                       -305.9919808398955183
  Basis Set: CC-PVTZ
  Basis Set:
  Charge       = 0
  Multiplicity = 1
  Basis Set: CC-PVTZ
  Basis Set:

    Orbital Energies (a.u.)
    -----------------------

    Doubly Occupied:

       1A    -20.594958     2A    -20.533074     3A    -11.367145
       4A    -11.283293     5A    -11.231753     6A    -11.220920
       7A     -1.471452     8A     -1.365807     9A     -1.059011
      10A     -1.001116    11A     -0.872181    12A     -0.782150
      13A     -0.693944    14A     -0.690307    15A     -0.669576
      16A     -0.612407    17A     -0.581598    18A     -0.565035
      19A     -0.554187    20A     -0.541405    21A     -0.509976
      22A     -0.504472    23A     -0.457141    24A     -0.442429

  @DF-RHF Final Energy:  -305.99198274254383

   => Energetics <=

    Nuclear Repulsion Energy =            246.0851927877823186
    One-Electron Energy =                -904.9436770686315867
    Two-Electron Energy =                 352.8665015383057266
    DFT Exchange-Correlation Energy =       0.0000000000000000
    Empirical Dispersion Energy =           0.0000000000000000
    PCM Polarization Energy =               0.0000000000000000
    EFP Energy =                            0.0000000000000000
    Total Energy =                       -305.9919827425435983
    Molecular point group: c1
  Basis Set: CC-PVTZ
  Basis Set:

  -Total Gradient:
     Atom            X                  Y                   Z
    ------   -----------------  -----------------  -----------------
       1       -0.000050644248     0.000068338066     0.000013978722
       2       -0.000161474000    -0.000115229162    -0.000859114844
       3       -0.000002289841     0.000001599934    -0.000030440238
       4        0.000541797251    -0.000073203144     0.001320946372
       5       -0.000000534490    -0.000002476944     0.000003760214
       6        0.000010740089     0.000003260235    -0.000004888147
       7        0.000007813041     0.000003540356     0.000009340424
       8       -0.000638719343     0.001045091528    -0.000880510843
       9       -0.000056095326    -0.000027698986     0.000059637083
      10        0.000363866262    -0.000898177103     0.000378759615
      11       -0.000050095513    -0.000007422387     0.000004623660
      12        0.000023649770     0.000017780299    -0.000005329244
      13        0.000011079135    -0.000020549330    -0.000015402409
      14        0.000000907212     0.000005146643     0.000004639636

  **** Optimization is complete! (in 6 steps) ****
    Final optimized geometry and variables:
    Molecular point group: c1

    Geometry (in Angstrom), charge = 0, multiplicity = 1:

    O           -0.701695320949     1.576922905645     0.102936463526
    C           -0.862466236946     0.412156029185     0.238573982162
    C           -2.162956355956    -0.234088026641     0.623674277762
    O            0.093638049880    -0.483918079026     0.069004712012
    H           -2.462455668958    -0.934806351589    -0.144897175427
    H           -2.918903230530     0.523384004864     0.751757019951
    H           -2.032885845237    -0.790443825117     1.542990779670
    C            1.379962017863    -0.021400442854    -0.319516882042
    C            2.208359807240    -1.227035209789    -0.698923589655
    H            1.824252095108     0.510568817424     0.511014497708
    H            1.276785575182     0.667822880582    -1.143897858401
    H            3.203541262222    -0.910101127371    -0.987932355125
    H            2.296109181595    -1.913422137826     0.133824378624
    H            1.761522054770    -1.755097795172    -1.531936610109

  Mulliken Charges: (a.u.)
   Center  Symbol    Alpha    Beta     Spin     Total
       1     O     4.19730  4.19730  0.00000 -0.39461
       2     C     2.80728  2.80728  0.00000  0.38544
       3     C     3.13806  3.13806  0.00000 -0.27612
       4     O     4.15244  4.15244  0.00000 -0.30488
       5     H     0.44606  0.44606  0.00000  0.10788
       6     H     0.43803  0.43803  0.00000  0.12394
       7     H     0.44568  0.44568  0.00000  0.10864
       8     C     2.97808  2.97808  0.00000  0.04384
       9     C     3.13277  3.13277  0.00000 -0.26554
      10     H     0.45560  0.45560  0.00000  0.08881
      11     H     0.45118  0.45118  0.00000  0.09764
      12     H     0.45449  0.45449  0.00000  0.09102
      13     H     0.45138  0.45138  0.00000  0.09724
      14     H     0.45165  0.45165  0.00000  0.09669

   Total alpha = 24.00000, Total beta = 24.00000, Total charge = -0.00000
