  ==> Input File <==

--------------------------------------------------------------------------
set {
	reference rhf
	basis 6-31G*
}

set_num_threads( 4 )
memory 2 gb

molecule MOL {
0 1

O	 -1.806067	 -2.021240	 1.066987
C	 -0.804681	 -1.620426	 0.566670
C	 0.497126	 -2.381750	 0.489522
O	 -0.698257	 -0.426125	 0.001050
C	 0.420719	 -3.762303	 1.129209
H	 1.260133	 -1.769417	 0.960813
H	 0.774269	 -2.446423	 -0.558464
H	 0.160272	 -3.691917	 2.178293
H	 1.378138	 -4.265788	 1.047551
H	 -0.329795	 -4.375213	 0.645067
C	 -1.853104	 0.406779	 0.000512
C	 -3.066105	 -0.499277	 -0.000959
H	 -1.828410	 1.043074	 -0.873618
H	 -1.829857	 1.042383	 0.875188
H	 -3.071820	 -1.133106	 -0.880383
H	 -3.972708	 0.097145	 -0.001528
H	 -3.073405	 -1.133813	 0.877999

	symmetry c1
}
set optking {
	frozen_dihedral = ("
		2 4 11 13
	")
}

ee = optimize('scf')
oeprop('DIPOLE', 'QUADRUPOLE', 'MULLIKEN_CHARGES')
f=open( 'psi4out.xyz', 'w' )
f.write( "17  " )
f.write( str(ee) + "\n" )
f.write( MOL.save_string_xyz() )
f.close()
--------------------------------------------------------------------------

    Molecular point group: c1
  Charge       = 0
  Multiplicity = 1
  Basis Set: 6-31G*
  Basis Set:
  @DF-RHF Final Energy:  -344.85333956512147
    Total Energy =                       -344.8533395651217006
    Molecular point group: c1
  Basis Set: 6-31G*
  Basis Set:
  Basis Set: 6-31G*
  Basis Set:
  @DF-RHF Final Energy:  -344.89108951009001
    Total Energy =                       -344.8910895100902962
  Basis Set: 6-31G*
  Basis Set:
  Basis Set: 6-31G*
  Basis Set:
  @DF-RHF Final Energy:  -344.89901404873029
    Total Energy =                       -344.8990140487309191
  Basis Set: 6-31G*
  Basis Set:
  Basis Set: 6-31G*
  Basis Set:
  @DF-RHF Final Energy:  -344.89986551129283
    Total Energy =                       -344.8998655112928873
  Basis Set: 6-31G*
  Basis Set:
  @DF-RHF Final Energy:  -344.90173812034766
    Total Energy =                       -344.9017381203474883
  @DF-RHF Final Energy:  -344.90267856595398
    Total Energy =                       -344.9026785659540337
  @DF-RHF Final Energy:  -344.90274442626185
    Total Energy =                       -344.9027444262620747
  @DF-RHF Final Energy:  -344.90275842565978
    Total Energy =                       -344.9027584256597265
  @DF-RHF Final Energy:  -344.90275968622211
    Total Energy =                       -344.9027596862218275
  @DF-RHF Final Energy:  -344.90243405480794
    Total Energy =                       -344.9024340548075998
  @DF-RHF Final Energy:  -344.88956045113122
    Total Energy =                       -344.8895604511311603
  @DF-RHF Final Energy:  -344.81269718956366
    Total Energy =                       -344.8126971895637780
  @DF-RHF Final Energy:  -344.88737017118092
    Total Energy =                       -344.8873701711810895
  @DF-RHF Final Energy:  -344.89938474610699
    Total Energy =                       -344.8993847461067617
  @DF-RHF Final Energy:  -344.90194964352048
    Total Energy =                       -344.9019496435201404
  @DF-RHF Final Energy:  -344.90264179614860
    Total Energy =                       -344.9026417961487141
  @DF-RHF Final Energy:  -344.90272651203793
    Total Energy =                       -344.9027265120377592
  Basis Set: 6-31G*
  Basis Set:
  @DF-RHF Final Energy:  -344.90275303261137
    Total Energy =                       -344.9027530326115993
  Basis Set: 6-31G*
  Basis Set:
  Basis Set: 6-31G*
  Basis Set:
  @DF-RHF Final Energy:  -344.90275886836741
    Total Energy =                       -344.9027588683670160
  Basis Set: 6-31G*
  Basis Set:
  Basis Set: 6-31G*
  Basis Set:
  @DF-RHF Final Energy:  -344.90275999795500
    Total Energy =                       -344.9027599979549450
  Basis Set: 6-31G*
  Basis Set:
  Charge       = 0
  Multiplicity = 1
  Basis Set: 6-31G*
  Basis Set:

    Orbital Energies (a.u.)
    -----------------------

    Doubly Occupied:

       1A    -20.598236     2A    -20.541892     3A    -11.372422
       4A    -11.290506     5A    -11.235456     6A    -11.215745
       7A    -11.214260     8A     -1.461658     9A     -1.361725
      10A     -1.067722    11A     -1.027961    12A     -0.918635
      13A     -0.857637    14A     -0.744140    15A     -0.696680
      16A     -0.679352    17A     -0.666481    18A     -0.629462
      19A     -0.604957    20A     -0.566073    21A     -0.545310
      22A     -0.527841    23A     -0.521494    24A     -0.517116
      25A     -0.493523    26A     -0.490696    27A     -0.447215
      28A     -0.428410

  @DF-RHF Final Energy:  -344.90276009598523

   => Energetics <=

    Nuclear Repulsion Energy =            319.0783518147005111
    One-Electron Energy =               -1102.5170096641938926
    Two-Electron Energy =                 438.5358977535086638
    DFT Exchange-Correlation Energy =       0.0000000000000000
    Empirical Dispersion Energy =           0.0000000000000000
    PCM Polarization Energy =               0.0000000000000000
    EFP Energy =                            0.0000000000000000
    Total Energy =                       -344.9027600959847746
    Molecular point group: c1
  Basis Set: 6-31G*
  Basis Set:

  -Total Gradient:
     Atom            X                  Y                   Z
    ------   -----------------  -----------------  -----------------
       1       -0.000032599508     0.000045326453    -0.000016121220
       2       -0.001104711212    -0.002210148359    -0.005073421549
       3        0.000006441168    -0.000010209217    -0.000007070970
       4        0.001140959522     0.002643465383     0.007224435838
       5        0.000011262540     0.000010291139     0.000010495076
       6        0.000005652740    -0.000007147605     0.000006672802
       7       -0.000008099935     0.000008532956     0.000005675305
       8       -0.000001560001    -0.000000568642     0.000000453484
       9       -0.000001667153    -0.000004069790    -0.000001291217
      10        0.000000412447     0.000001750138    -0.000003075782
      11        0.002698514121     0.003512317096     0.001024074478
      12       -0.000008564235     0.000014191346     0.000071466116
      13       -0.002727491473    -0.003947508908    -0.003256729762
      14       -0.000003870938    -0.000017890318     0.000008585235
      15        0.000009989271    -0.000008763420    -0.000012890516
      16        0.000013187749    -0.000018969909     0.000020542795
      17        0.000002144899    -0.000010598340    -0.000001800113

  **** Optimization is complete! (in 21 steps) ****
    Final optimized geometry and variables:
    Molecular point group: c1

    Geometry (in Angstrom), charge = 0, multiplicity = 1:

    O           -0.637285862702    -0.663973238573     0.795125028356
    C            0.271076527689    -0.205637802110     0.180951970803
    C            1.577998197543    -0.919521715347    -0.080428574519
    O            0.294856514014     1.008295495439    -0.348343864079
    C            1.652344595274    -2.291540300059     0.577395101539
    H            2.378606136853    -0.271793614923     0.262903256146
    H            1.697000870989    -0.992049123595    -1.157636747963
    H            1.551796410215    -2.214095541063     1.653278897586
    H            2.605075567831    -2.761077216808     0.356371222726
    H            0.861142913988    -2.938984279683     0.219700352119
    C           -0.846484308427     1.861507800521    -0.457356563886
    C           -2.197193454691     1.188873937334    -0.664565983903
    H           -0.633229526829     2.443500475648    -1.342439528494
    H           -0.861447218811     2.511542170890     0.407355042133
    H           -2.151387963520     0.470645864177    -1.476105826191
    H           -2.906172659147     1.962727919344    -0.945685600280
    H           -2.557032578268     0.686625879300     0.218197791869

  Mulliken Charges: (a.u.)
   Center  Symbol    Alpha    Beta     Spin     Total
       1     O     4.28584  4.28584  0.00000 -0.57169
       2     C     2.60377  2.60377  0.00000  0.79246
       3     C     3.20425  3.20425  0.00000 -0.40851
       4     O     4.32137  4.32137  0.00000 -0.64275
       5     C     3.23862  3.23862  0.00000 -0.47723
       6     H     0.40059  0.40059  0.00000  0.19883
       7     H     0.40235  0.40235  0.00000  0.19530
       8     H     0.41068  0.41068  0.00000  0.17865
       9     H     0.41874  0.41874  0.00000  0.16252
      10     H     0.41015  0.41015  0.00000  0.17970
      11     C     2.99223  2.99223  0.00000  0.01554
      12     C     3.26013  3.26013  0.00000 -0.52026
      13     H     0.41093  0.41093  0.00000  0.17815
      14     H     0.41304  0.41304  0.00000  0.17392
      15     H     0.41563  0.41563  0.00000  0.16874
      16     H     0.42010  0.42010  0.00000  0.15980
      17     H     0.39159  0.39159  0.00000  0.21683

   Total alpha = 28.00000, Total beta = 28.00000, Total charge = -0.00000
