                              Psi4 1.0.54 Driver

  ==> Input File <==

--------------------------------------------------------------------------
set {
	reference rhf
	basis cc-pvtz
}

set_num_threads( 4 )
memory 2 gb

molecule MOL {
0 1

H	 2.698349	 1.723154	 0.581142
O	 3.428865	 1.386919	 0.096249
C	 3.571480	 0.009833	 0.325529
C	 2.500547	 -0.831928	 -0.352134
H	 4.543369	 -0.256009	 -0.067842
H	 3.588782	 -0.197192	 1.393841
C	 1.089904	 -0.604597	 0.186619
H	 2.522591	 -0.626073	 -1.418106
H	 2.769084	 -1.878167	 -0.226959
C	 0.047264	 -1.490060	 -0.494332
H	 0.819664	 0.437899	 0.055559
H	 1.077848	 -0.798808	 1.257797
C	 -1.373257	 -1.357214	 0.057688
H	 0.039303	 -1.276690	 -1.560464
H	 0.357963	 -2.526564	 -0.396375
C	 -2.041121	 -0.006551	 -0.194127
H	 -1.986781	 -2.134490	 -0.389479
H	 -1.362930	 -1.559539	 1.126384
C	 -3.489218	 0.042606	 0.286507
H	 -2.010295	 0.214923	 -1.258771
H	 -1.482272	 0.784080	 0.297394
C	 -4.219984	 1.311773	 -0.139038
H	 -4.022855	 -0.824300	 -0.093339
H	 -3.510372	 -0.038577	 1.370031
H	 -4.244251	 1.405725	 -1.219696
H	 -5.244345	 1.313233	 0.215630
H	 -3.732090	 2.196311	 0.257073

	symmetry c1
}
set optking {
	frozen_dihedral = ("
		20 16 19 22
	")
}

ee,wfn = optimize('scf', return_wfn=True)
oeprop( wfn, 'DIPOLE', 'QUADRUPOLE', 'MULLIKEN_CHARGES')
f=open( 'psi4out.xyz', 'w' )
f.write( "27  " )
f.write( str(ee) + "\n" )
f.write( MOL.save_string_xyz() )
f.close()
--------------------------------------------------------------------------

    Molecular point group: c1
  Charge       = 0
  Multiplicity = 1
  Basis Set: CC-PVTZ
  Basis Set:
  @DF-RHF Final Energy:  -388.42751118595197
    Total Energy =                       -388.4275111859523122
    Molecular point group: c1
  Basis Set: CC-PVTZ
  Basis Set:
  Basis Set: CC-PVTZ
  Basis Set:
  @DF-RHF Final Energy:  -388.42752012449643
    Total Energy =                       -388.4275201244961409
  Basis Set: CC-PVTZ
  Basis Set:
  Basis Set: CC-PVTZ
  Basis Set:
  @DF-RHF Final Energy:  -388.42754790437687
    Total Energy =                       -388.4275479043767518
  Basis Set: CC-PVTZ
  Basis Set:
  Basis Set: CC-PVTZ
  Basis Set:
  @DF-RHF Final Energy:  -388.42754680175307
    Total Energy =                       -388.4275468017534649
  Basis Set: CC-PVTZ
  Basis Set:
  Basis Set: CC-PVTZ
  Basis Set:
  @DF-RHF Final Energy:  -388.42755217003401
    Total Energy =                       -388.4275521700342324
  Basis Set: CC-PVTZ
  Basis Set:
  Charge       = 0
  Multiplicity = 1
  Basis Set: CC-PVTZ
  Basis Set:

    Orbital Energies (a.u.)
    -----------------------

    Doubly Occupied:

       1A    -20.545372     2A    -11.265005     3A    -11.216782
       4A    -11.214741     5A    -11.213869     6A    -11.213342
       7A    -11.213262     8A    -11.211810     9A    -11.207287
      10A     -1.363268    11A     -1.096160    12A     -1.062531
      13A     -1.012570    14A     -0.949420    15A     -0.888686
      16A     -0.820657    17A     -0.801715    18A     -0.778633
      19A     -0.696267    20A     -0.652094    21A     -0.640228
      22A     -0.615912    23A     -0.600963    24A     -0.583500
      25A     -0.581298    26A     -0.554252    27A     -0.541525
      28A     -0.531763    29A     -0.506835    30A     -0.494589
      31A     -0.484740    32A     -0.475399    33A     -0.468821
      34A     -0.461415    35A     -0.452510    36A     -0.442727
      37A     -0.425673

  @DF-RHF Final Energy:  -388.42755217532795

   => Energetics <=

    Nuclear Repulsion Energy =            460.0568809054484518
    One-Electron Energy =               -1438.3976233495689030
    Two-Electron Energy =                 589.9131902687922775
    DFT Exchange-Correlation Energy =       0.0000000000000000
    Empirical Dispersion Energy =           0.0000000000000000
    PCM Polarization Energy =               0.0000000000000000
    EFP Energy =                            0.0000000000000000
    Total Energy =                       -388.4275521753281737
    Molecular point group: c1
  Basis Set: CC-PVTZ
  Basis Set:

  -Total Gradient:
     Atom            X                  Y                   Z
    ------   -----------------  -----------------  -----------------
       1       -0.000009884767     0.000004122596     0.000002364345
       2       -0.000007377598     0.000001421880     0.000004127865
       3        0.000010253758    -0.000001445370    -0.000023394411
       4        0.000002816569     0.000002842008     0.000007797458
       5        0.000003673096    -0.000003700722    -0.000000686974
       6       -0.000004215497    -0.000001037565    -0.000001595948
       7       -0.000001222484    -0.000006225749     0.000009966195
       8        0.000005974286    -0.000002659274    -0.000002694673
       9        0.000001161157     0.000000684352     0.000005839357
      10       -0.000006470477    -0.000001218306    -0.000004378015
      11        0.000004304253     0.000008006118     0.000005355178
      12        0.000000430766    -0.000004136352     0.000007776928
      13        0.000003333360     0.000005644133    -0.000002461407
      14       -0.000002775177    -0.000004535874    -0.000004766758
      15       -0.000002296904     0.000001452314     0.000002761351
      16       -0.000373042501    -0.002193657046    -0.000784054196
      17        0.000000373274     0.000001255004    -0.000001389488
      18        0.000004614639    -0.000003017295     0.000000382266
      19        0.000563719961     0.001150410030     0.001456254802
      20        0.000183829056     0.001600106472     0.000297104828
      21        0.000011583690     0.000004239262     0.000010036941
      22       -0.000366771787    -0.000570526338    -0.000984987584
      23       -0.000003642869    -0.000004989904    -0.000002445946
      24       -0.000004448609     0.000001716618     0.000010953402
      25       -0.000000744574    -0.000001784221    -0.000030381154
      26       -0.000028397601    -0.000000594167     0.000013404574
      27        0.000015222989     0.000017627387     0.000009111065

  **** Optimization is complete! (in 6 steps) ****
    Final optimized geometry and variables:
    Molecular point group: c1

    Geometry (in Angstrom), charge = 0, multiplicity = 1:

    H            2.701001450486     1.860041127466     0.599369146715
    O            3.433975830651     1.524484230206     0.117980539063
    C            3.579681175639     0.148461496007     0.351344563702
    C            2.513175050770    -0.698037577263    -0.327223519444
    H            4.553529159820    -0.115792842759    -0.038204662053
    H            3.594141877179    -0.055526990415     1.420245284623
    C            1.099482571400    -0.469136451277     0.202707104480
    H            2.540694217345    -0.497888504413    -1.394096976453
    H            2.782136902406    -1.743277729745    -0.195001265223
    C            0.062214394180    -1.363427932628    -0.474876919297
    H            0.827510502452     0.571503714742     0.061266654413
    H            1.082975407783    -0.653893759660     1.275416320689
    C           -1.360699256927    -1.232866103422     0.071646096108
    H            0.056579282055    -1.158178190302    -1.542595844701
    H            0.377016182414    -2.397778104028    -0.368207439505
    C           -2.036444096381     0.109524768802    -0.198551888894
    H           -1.968220413534    -2.019116196130    -0.367525204099
    H           -1.352185185942    -1.422127030069     1.142827175971
    C           -3.474318712133     0.173848519961     0.311782948409
    H           -2.024825086410     0.316427428452    -1.266409298589
    H           -1.469446845681     0.912206771067     0.263900746375
    C           -4.206227034909     1.441732556414    -0.115484064392
    H           -4.022876749178    -0.690621851448    -0.052625297397
    H           -3.475606221200     0.098836041873     1.395649336865
    H           -4.266258584844     1.510863615898    -1.196412445989
    H           -5.217644325556     1.462006258741     0.274056479751
    H           -3.696785681550     2.330369359215     0.243133084445

  Mulliken Charges: (a.u.)
   Center  Symbol    Alpha    Beta     Spin     Total
       1     H     0.39229  0.39229  0.00000  0.21542
       2     O     4.20550  4.20550  0.00000 -0.41100
       3     C     2.97999  2.97999  0.00000  0.04002
       4     C     3.08916  3.08916  0.00000 -0.17832
       5     H     0.44855  0.44855  0.00000  0.10289
       6     H     0.46969  0.46969  0.00000  0.06061
       7     C     3.10246  3.10246  0.00000 -0.20492
       8     H     0.45077  0.45077  0.00000  0.09847
       9     H     0.45519  0.45519  0.00000  0.08963
      10     C     3.09867  3.09867  0.00000 -0.19733
      11     H     0.45594  0.45594  0.00000  0.08811
      12     H     0.45379  0.45379  0.00000  0.09241
      13     C     3.09775  3.09775  0.00000 -0.19550
      14     H     0.45168  0.45168  0.00000  0.09664
      15     H     0.44798  0.44798  0.00000  0.10403
      16     C     3.08827  3.08827  0.00000 -0.17654
      17     H     0.44775  0.44775  0.00000  0.10450
      18     H     0.45393  0.45393  0.00000  0.09215
      19     C     3.08399  3.08399  0.00000 -0.16799
      20     H     0.45450  0.45450  0.00000  0.09100
      21     H     0.45503  0.45503  0.00000  0.08993
      22     C     3.14937  3.14937  0.00000 -0.29874
      23     H     0.45485  0.45485  0.00000  0.09031
      24     H     0.45394  0.45394  0.00000  0.09213
      25     H     0.45482  0.45482  0.00000  0.09036
      26     H     0.44840  0.44840  0.00000  0.10321
      27     H     0.45575  0.45575  0.00000  0.08851

   Total alpha = 37.00000, Total beta = 37.00000, Total charge =  0.00000

*** Psi4 exiting successfully. Buy a developer a beer!
