  ==> Input File <==

--------------------------------------------------------------------------
set {
	reference rhf
	basis 6-31G*
}

set_num_threads( 4 )
memory 2 gb

molecule MOL {
0 1

H	 2.465338	 -2.224223	 0.000000
O	 2.784187	 -1.332015	 0.000000
C	 1.765313	 -0.449364	 0.000000
C	 1.902644	 0.684532	 0.794584
C	 0.619228	 -0.636162	 -0.748151
H	 2.802929	 0.806809	 1.366768
C	 0.894245	 1.624956	 0.836980
H	 0.486833	 -1.500255	 -1.368911
C	 -0.373602	 0.328070	 -0.682102
H	 1.008594	 2.497397	 1.453119
C	 -0.267244	 1.460092	 0.094276
N	 -1.583962	 0.125580	 -1.475519
H	 -1.058142	 2.180770	 0.116806
O	 -1.651611	 -0.864094	 -2.140351
O	 -2.433591	 0.960140	 -1.413033

	symmetry c1
}
set optking {
	frozen_dihedral = ("
		4 3 2 1
	")
}

ee = optimize('scf')
oeprop('DIPOLE', 'QUADRUPOLE', 'MULLIKEN_CHARGES')
f=open( 'psi4out.xyz', 'w' )
f.write( "15  " )
f.write( str(ee) + "\n" )
f.write( MOL.save_string_xyz() )
f.close()
--------------------------------------------------------------------------

    Molecular point group: c1
  Charge       = 0
  Multiplicity = 1
  Basis Set: 6-31G*
  Basis Set:
  @DF-RHF Final Energy:  -509.02565376798128
    Total Energy =                       -509.0256537679813391
    Molecular point group: c1
  Basis Set: 6-31G*
  Basis Set:
  Basis Set: 6-31G*
  Basis Set:
  @DF-RHF Final Energy:  -509.02563095898694
    Total Energy =                       -509.0256309589871080
  Basis Set: 6-31G*
  Basis Set:
  Basis Set: 6-31G*
  Basis Set:
  @DF-RHF Final Energy:  -509.01617722328018
    Total Energy =                       -509.0161772232801241
  Basis Set: 6-31G*
  Basis Set:
  Basis Set: 6-31G*
  Basis Set:
  @DF-RHF Final Energy:  -509.02539705950090
    Total Energy =                       -509.0253970595010742
  Basis Set: 6-31G*
  Basis Set:
  Basis Set: 6-31G*
  Basis Set:
  @DF-RHF Final Energy:  -509.02580064561249
    Total Energy =                       -509.0258006456127760
  Basis Set: 6-31G*
  Basis Set:
  Basis Set: 6-31G*
  Basis Set:
  @DF-RHF Final Energy:  -509.02580950106034
    Total Energy =                       -509.0258095010603938
  Basis Set: 6-31G*
  Basis Set:
  Charge       = 0
  Multiplicity = 1
  Basis Set: 6-31G*
  Basis Set:

    Orbital Energies (a.u.)
    -----------------------

    Doubly Occupied:

       1A    -20.609258     2A    -20.604890     3A    -20.604471
       4A    -15.859427     5A    -11.326580     6A    -11.310640
       7A    -11.268130     8A    -11.266965     9A    -11.265726
      10A    -11.262200    11A     -1.638178    12A     -1.428542
      13A     -1.421442    14A     -1.200783    15A     -1.094934
      16A     -1.046549    17A     -0.965448    18A     -0.874802
      19A     -0.829262    20A     -0.791279    21A     -0.747264
      22A     -0.737114    23A     -0.723680    24A     -0.708355
      25A     -0.674707    26A     -0.638339    27A     -0.625232
      28A     -0.575225    29A     -0.556228    30A     -0.540881
      31A     -0.514410    32A     -0.491534    33A     -0.488954
      34A     -0.454847    35A     -0.377218    36A     -0.349120

  @DF-RHF Final Energy:  -509.02581024561289

   => Energetics <=

    Nuclear Repulsion Energy =            503.1920610006274046
    One-Electron Energy =               -1692.6905144468944400
    Two-Electron Energy =                 680.4726432006544883
    DFT Exchange-Correlation Energy =       0.0000000000000000
    Empirical Dispersion Energy =           0.0000000000000000
    PCM Polarization Energy =               0.0000000000000000
    EFP Energy =                            0.0000000000000000
    Total Energy =                       -509.0258102456124334
    Molecular point group: c1
  Basis Set: 6-31G*
  Basis Set:

  -Total Gradient:
     Atom            X                  Y                   Z
    ------   -----------------  -----------------  -----------------
       1        0.000034641655    -0.000025875097     0.002602470277
       2       -0.000379866302    -0.000435407975    -0.002562303497
       3        0.001063096584     0.001319438827    -0.001572776456
       4       -0.000841324910    -0.000806178497     0.001486243004
       5        0.000123001254    -0.000054941576     0.000055254427
       6        0.000008939454    -0.000007251751    -0.000010271426
       7        0.000118873735    -0.000046128705     0.000072677644
       8       -0.000003660096     0.000009363730    -0.000003436684
       9       -0.000072846887     0.000085856834     0.000088726867
      10       -0.000012670276    -0.000001972407     0.000005326743
      11       -0.000029464510    -0.000040175120    -0.000139850340
      12        0.000061019819     0.000038623231    -0.000058044660
      13        0.000006422009    -0.000004193956     0.000014726595
      14       -0.000045212549     0.000023745062     0.000030148515
      15       -0.000030948967    -0.000054902597    -0.000008891002

  **** Optimization is complete! (in 7 steps) ****
    Final optimized geometry and variables:
    Molecular point group: c1

    Geometry (in Angstrom), charge = 0, multiplicity = 1:

    H            2.339691201178    -2.369125637500     0.499346053490
    O            2.663786841249    -1.478739106543     0.504126471585
    C            1.640951135250    -0.588847005366     0.525717369726
    C            1.774217135633     0.540185186978     1.322999653330
    C            0.497501761111    -0.776457845326    -0.227591062640
    H            2.669969453716     0.658432945837     1.903233962410
    C            0.769458612442     1.488830760185     1.355156139037
    H            0.378635090449    -1.636589620070    -0.855747971174
    C           -0.497240829621     0.183620977048    -0.161622418170
    H            0.881219150705     2.361558604285     1.971302926394
    C           -0.388268200089     1.320599530029     0.611350898220
    N           -1.708669063039    -0.020058090778    -0.952142785772
    H           -1.179570707527     2.041077570134     0.630527617550
    O           -1.791920083087    -1.026221511921    -1.589441905965
    O           -2.545060384942     0.829558342747    -0.912840093697

  Mulliken Charges: (a.u.)
   Center  Symbol    Alpha    Beta     Spin     Total
       1     H     0.26791  0.26791  0.00000  0.46418
       2     O     4.38009  4.38009  0.00000 -0.76017
       3     C     2.80230  2.80230  0.00000  0.39540
       4     C     3.10568  3.10568  0.00000 -0.21136
       5     C     3.12659  3.12659  0.00000 -0.25318
       6     H     0.38112  0.38112  0.00000  0.23776
       7     C     3.10272  3.10272  0.00000 -0.20545
       8     H     0.36489  0.36489  0.00000  0.27022
       9     C     2.91542  2.91542  0.00000  0.16915
      10     H     0.38651  0.38651  0.00000  0.22697
      11     C     3.09457  3.09457  0.00000 -0.18914
      12     N     3.24046  3.24046  0.00000  0.51908
      13     H     0.36475  0.36475  0.00000  0.27051
      14     O     4.23477  4.23477  0.00000 -0.46954
      15     O     4.23222  4.23222  0.00000 -0.46443

   Total alpha = 36.00000, Total beta = 36.00000, Total charge = -0.00000
