  ==> Input File <==

--------------------------------------------------------------------------
set {
	reference rhf
	basis cc-pvtz
}

set_num_threads( 4 )
memory 2 gb

molecule MOL {
0 1

H	 0.775538	 -3.725304	 -4.049714
C	 0.994599	 -3.076232	 -3.224589
C	 0.254156	 -3.151175	 -2.053281
C	 2.013452	 -2.156109	 -3.309367
H	 -0.544903	 -3.863135	 -1.968724
C	 0.531420	 -2.321487	 -0.993674
H	 2.597315	 -2.083337	 -4.207419
C	 2.306906	 -1.310469	 -2.248619
H	 -0.034578	 -2.371309	 -0.084370
C	 1.563104	 -1.393172	 -1.085865
H	 3.106097	 -0.605311	 -2.346123
O	 1.760432	 -0.625184	 0.000000
C	 2.773565	 0.334879	 0.000000
H	 2.728295	 0.960928	 -0.884150
H	 3.706387	 -0.206610	 0.000000
H	 2.728295	 0.960928	 0.884150

	symmetry c1
}
set optking {
	frozen_dihedral = ("
		10 12 13 14
	")
}

ee = optimize('scf')
oeprop('DIPOLE', 'QUADRUPOLE', 'MULLIKEN_CHARGES')
f=open( 'psi4out.xyz', 'w' )
f.write( "16  " )
f.write( str(ee) + "\n" )
f.write( MOL.save_string_xyz() )
f.close()
--------------------------------------------------------------------------

    Molecular point group: c1
  Charge       = 0
  Multiplicity = 1
  Basis Set: CC-PVTZ
  Basis Set:
  @DF-RHF Final Energy:  -344.70150213918470
    Total Energy =                       -344.7015021391848677
    Molecular point group: c1
  Basis Set: CC-PVTZ
  Basis Set:
  Basis Set: CC-PVTZ
  Basis Set:
  @DF-RHF Final Energy:  -344.70306017421962
    Total Energy =                       -344.7030601742197291
  Basis Set: CC-PVTZ
  Basis Set:
  Basis Set: CC-PVTZ
  Basis Set:
  @DF-RHF Final Energy:  -344.70345120128371
    Total Energy =                       -344.7034512012837695
  Basis Set: CC-PVTZ
  Basis Set:
  Basis Set: CC-PVTZ
  Basis Set:
  @DF-RHF Final Energy:  -344.70346255777656
    Total Energy =                       -344.7034625577768452
  Basis Set: CC-PVTZ
  Basis Set:
  Charge       = 0
  Multiplicity = 1
  Basis Set: CC-PVTZ
  Basis Set:

    Orbital Energies (a.u.)
    -----------------------

    Doubly Occupied:

       1A    -20.580197     2A    -11.293715     3A    -11.278517
       4A    -11.231262     5A    -11.230005     6A    -11.221875
       7A    -11.218011     8A    -11.216948     9A     -1.419736
      10A     -1.150961    11A     -1.025722    12A     -1.016657
      13A     -0.944292    14A     -0.834606    15A     -0.808353
      16A     -0.726305    17A     -0.667910    18A     -0.666413
      19A     -0.660402    20A     -0.619470    21A     -0.590332
      22A     -0.579928    23A     -0.527945    24A     -0.523613
      25A     -0.512532    26A     -0.479516    27A     -0.466646
      28A     -0.339770    29A     -0.310115

  @DF-RHF Final Energy:  -344.70346522697105

   => Energetics <=

    Nuclear Repulsion Energy =            348.8919239089789244
    One-Electron Energy =               -1158.9072693339880971
    Two-Electron Energy =                 465.3118801980384092
    DFT Exchange-Correlation Energy =       0.0000000000000000
    Empirical Dispersion Energy =           0.0000000000000000
    PCM Polarization Energy =               0.0000000000000000
    EFP Energy =                            0.0000000000000000
    Total Energy =                       -344.7034652269707635
    Molecular point group: c1
  Basis Set: CC-PVTZ
  Basis Set:

  -Total Gradient:
     Atom            X                  Y                   Z
    ------   -----------------  -----------------  -----------------
       1       -0.000002829426     0.000015264444    -0.000005086290
       2        0.000131524425     0.000009176030    -0.000051407357
       3       -0.000030250656     0.000075752711     0.000099048485
       4       -0.000071865725    -0.000078720950    -0.000075459126
       5        0.000010195328    -0.000003202736     0.000008573231
       6       -0.000110592570    -0.000006069749    -0.000060777112
       7        0.000000927804     0.000001510680    -0.000010109609
       8       -0.000031245820     0.000051370805     0.000051169592
       9        0.000005457495     0.000001897899     0.000013240538
      10       -0.000779168229     0.000780113254    -0.000272995340
      11       -0.000019856151    -0.000003429845    -0.000018144206
      12        0.001685593416    -0.001384511149     0.000212231547
      13       -0.001665754966     0.001497028287     0.001051971557
      14        0.000869682512    -0.000894982161    -0.000916459067
      15        0.000022013880    -0.000009818953    -0.000001323654
      16       -0.000013831317    -0.000051378567    -0.000024473190

  **** Optimization is complete! (in 5 steps) ****
    Final optimized geometry and variables:
    Molecular point group: c1

    Geometry (in Angstrom), charge = 0, multiplicity = 1:

    H           -0.847532955432    -2.027587036225    -2.519875995758
    C           -0.603466379184    -1.399515224325    -1.685551068993
    C           -1.344324122766    -1.465168758068    -0.513953036509
    C            0.448624079773    -0.516572167205    -1.758522014385
    H           -2.168801064943    -2.148615498697    -0.438641078179
    C           -1.036469389421    -0.661081136291     0.556934296376
    H            1.035047757148    -0.453490126988    -2.655650200042
    C            0.774330966936     0.301269815260    -0.685513442772
    H           -1.603004842927    -0.703247503122     1.466303266566
    C            0.027673723311     0.230773146399     0.476171916848
    H            1.603659288526     0.972593354473    -0.770644911679
    O            0.260708354444     0.969022684180     1.575669150111
    C            1.191554116104     2.008923832248     1.535037508343
    H            1.019364272268     2.664102739493     0.689157457775
    H            2.206248539223     1.628433816247     1.482633267221
    H            1.071806264571     2.565278293229     2.451088077637

  Mulliken Charges: (a.u.)
   Center  Symbol    Alpha    Beta     Spin     Total
       1     H     0.42441  0.42441  0.00000  0.15118
       2     C     3.10078  3.10078  0.00000 -0.20156
       3     C     3.05812  3.05812  0.00000 -0.11624
       4     C     3.06172  3.06172  0.00000 -0.12344
       5     H     0.42299  0.42299  0.00000  0.15402
       6     C     3.11130  3.11130  0.00000 -0.22260
       7     H     0.42357  0.42357  0.00000  0.15287
       8     C     3.14313  3.14313  0.00000 -0.28626
       9     H     0.42086  0.42086  0.00000  0.15828
      10     C     2.85082  2.85082  0.00000  0.29836
      11     H     0.42267  0.42267  0.00000  0.15466
      12     O     4.15147  4.15147  0.00000 -0.30294
      13     C     3.04447  3.04447  0.00000 -0.08893
      14     H     0.46323  0.46323  0.00000  0.07354
      15     H     0.46140  0.46140  0.00000  0.07720
      16     H     0.43906  0.43906  0.00000  0.12188

   Total alpha = 29.00000, Total beta = 29.00000, Total charge = -0.00000
