  ==> Input File <==

--------------------------------------------------------------------------
set {
	reference rhf
	basis 6-31G*
}

set_num_threads( 4 )
memory 2 gb

molecule MOL {
0 1

H	 -1.903591	 0.639431	 -2.124864
C	 -1.404606	 -0.254883	 -1.756956
O	 -1.392607	 -0.295399	 -0.366433
H	 -1.944804	 -1.124918	 -2.103896
H	 -0.395963	 -0.280702	 -2.167321
C	 -0.719715	 0.768384	 0.229244
C	 0.719720	 0.768376	 -0.229267
H	 -1.185038	 1.714362	 -0.050570
H	 -0.750528	 0.687237	 1.313896
O	 1.392611	 -0.295398	 0.366430
H	 0.750534	 0.687200	 -1.313918
H	 1.185043	 1.714359	 0.050526
C	 2.706965	 -0.449871	 -0.062409
H	 2.756559	 -0.644779	 -1.131878
H	 3.305899	 0.433456	 0.155466
H	 3.125548	 -1.294566	 0.467107

	symmetry c1
}
set optking {
	frozen_dihedral = ("
		2 3 6 7
	")
}

ee = optimize('scf')
oeprop('DIPOLE', 'QUADRUPOLE', 'MULLIKEN_CHARGES')
f=open( 'psi4out.xyz', 'w' )
f.write( "16  " )
f.write( str(ee) + "\n" )
f.write( MOL.save_string_xyz() )
f.close()
--------------------------------------------------------------------------

    Molecular point group: c1
  Charge       = 0
  Multiplicity = 1
  Basis Set: 6-31G*
  Basis Set:
  @DF-RHF Final Energy:  -306.96654130407671
    Total Energy =                       -306.9665413040768840
    Molecular point group: c1
  Basis Set: 6-31G*
  Basis Set:
  Basis Set: 6-31G*
  Basis Set:
  @DF-RHF Final Energy:  -306.97092185285288
    Total Energy =                       -306.9709218528530528
  Basis Set: 6-31G*
  Basis Set:
  Basis Set: 6-31G*
  Basis Set:
  @DF-RHF Final Energy:  -306.97402206543387
    Total Energy =                       -306.9740220654340419
  Basis Set: 6-31G*
  Basis Set:
  Basis Set: 6-31G*
  Basis Set:
  @DF-RHF Final Energy:  -306.97442132445167
    Total Energy =                       -306.9744213244515549
  Basis Set: 6-31G*
  Basis Set:
  Basis Set: 6-31G*
  Basis Set:
  @DF-RHF Final Energy:  -306.97452448168229
    Total Energy =                       -306.9745244816820104
  Basis Set: 6-31G*
  Basis Set:
  Basis Set: 6-31G*
  Basis Set:
  @DF-RHF Final Energy:  -306.97454251595610
    Total Energy =                       -306.9745425159562728
  Basis Set: 6-31G*
  Basis Set:
  Basis Set: 6-31G*
  Basis Set:
  @DF-RHF Final Energy:  -306.97454452759860
    Total Energy =                       -306.9745445275984821
  Basis Set: 6-31G*
  Basis Set:
  Charge       = 0
  Multiplicity = 1
  Basis Set: 6-31G*
  Basis Set:

    Orbital Energies (a.u.)
    -----------------------

    Doubly Occupied:

       1A    -20.558557     2A    -20.551918     3A    -11.272620
       4A    -11.269313     5A    -11.267883     6A    -11.262283
       7A     -1.390272     8A     -1.370008     9A     -1.028194
      10A     -0.947092    11A     -0.900323    12A     -0.813828
      13A     -0.690182    14A     -0.681000    15A     -0.658685
      16A     -0.637679    17A     -0.628693    18A     -0.598235
      19A     -0.558336    20A     -0.529668    21A     -0.516994
      22A     -0.489942    23A     -0.454428    24A     -0.420559
      25A     -0.409990

  @DF-RHF Final Energy:  -306.97454464235437

   => Energetics <=

    Nuclear Repulsion Energy =            263.3287859565617168
    One-Electron Energy =                -940.7932983950736343
    Two-Electron Energy =                 370.4899677961576572
    DFT Exchange-Correlation Energy =       0.0000000000000000
    Empirical Dispersion Energy =           0.0000000000000000
    PCM Polarization Energy =               0.0000000000000000
    EFP Energy =                            0.0000000000000000
    Total Energy =                       -306.9745446423543171
    Molecular point group: c1
  Basis Set: 6-31G*
  Basis Set:

  -Total Gradient:
     Atom            X                  Y                   Z
    ------   -----------------  -----------------  -----------------
       1        0.000004139234    -0.000003504270     0.000002551354
       2        0.000692583688    -0.000494082177    -0.000010641726
       3       -0.001088792731     0.000899002133    -0.000287930129
       4        0.000004767327    -0.000000099551    -0.000007728461
       5       -0.000006573633     0.000002373826    -0.000002502351
       6        0.000570105434    -0.000828416267     0.000925489829
       7       -0.000184314141     0.000431880821    -0.000630326196
       8        0.000002426018    -0.000004785504     0.000001984454
       9        0.000003962815     0.000002228789     0.000003399543
      10       -0.000009551896    -0.000009145829     0.000006004772
      11        0.000002288905     0.000002140792    -0.000001028180
      12        0.000003541785    -0.000006673325    -0.000000898244
      13        0.000000395169     0.000011431140     0.000003215916
      14       -0.000000609794    -0.000001550352     0.000000589746
      15        0.000008910365    -0.000002191007    -0.000001693100
      16       -0.000003278539     0.000001390783    -0.000000487229

  **** Optimization is complete! (in 8 steps) ****
    Final optimized geometry and variables:
    Molecular point group: c1

    Geometry (in Angstrom), charge = 0, multiplicity = 1:

    H           -1.986418116807     0.561354376844    -1.851729417267
    C           -1.705733231909    -0.386718250161    -1.394070761030
    O           -1.655675534174    -0.292104083503    -0.005823806113
    H           -2.459220560843    -1.123697952164    -1.635936647339
    H           -0.758750720392    -0.711318541291    -1.814330460704
    C           -0.921886938225     0.769495969063     0.518651769438
    C            0.548133779325     0.794189654836     0.139051970257
    H           -1.364520860935     1.720846443560     0.218018428499
    H           -1.005352547391     0.683193086795     1.593461876063
    O            1.155076248154    -0.386093149435     0.556072066686
    H            0.676083314172     0.928787456870    -0.934139696057
    H            1.006860657415     1.657063593957     0.624259092227
    C            2.515324072906    -0.460924720149     0.271656622996
    H            2.703322412578    -0.397905982087    -0.798854958923
    H            3.071060637487     0.334287719880     0.765758004020
    H            2.872365115178    -1.414925166536     0.633881679403

  Mulliken Charges: (a.u.)
   Center  Symbol    Alpha    Beta     Spin     Total
       1     H     0.43404  0.43404  0.00000  0.13192
       2     C     3.08250  3.08250  0.00000 -0.16500
       3     O     4.29884  4.29884  0.00000 -0.59769
       4     H     0.41128  0.41128  0.00000  0.17743
       5     H     0.42444  0.42444  0.00000  0.15113
       6     C     2.99310  2.99310  0.00000  0.01379
       7     C     3.00766  3.00766  0.00000 -0.01532
       8     H     0.43231  0.43231  0.00000  0.13538
       9     H     0.40781  0.40781  0.00000  0.18437
      10     O     4.29786  4.29786  0.00000 -0.59572
      11     H     0.43041  0.43041  0.00000  0.13917
      12     H     0.42947  0.42947  0.00000  0.14107
      13     C     3.07985  3.07985  0.00000 -0.15970
      14     H     0.43050  0.43050  0.00000  0.13900
      15     H     0.43011  0.43011  0.00000  0.13977
      16     H     0.40980  0.40980  0.00000  0.18039

   Total alpha = 25.00000, Total beta = 25.00000, Total charge =  0.00000
