  ==> Input File <==

--------------------------------------------------------------------------
set {
	reference rhf
	basis 6-31G*
}

set_num_threads( 4 )
memory 2 gb

molecule MOL {
0 1

H	 -1.748661	 -2.220942	 -0.005015
C	 -1.343207	 -1.225221	 -0.013879
N	 -0.055091	 -1.100174	 -0.261126
C	 -2.150779	 -0.125890	 0.222726
C	 0.449969	 0.122615	 -0.277109
H	 -3.200618	 -0.238980	 0.422496
N	 -1.660212	 1.097703	 0.209594
C	 -0.371804	 1.219904	 -0.038265
C	 1.928147	 0.267347	 -0.541394
H	 0.029131	 2.217482	 -0.051283
C	 2.271674	 0.140611	 -2.029325
H	 2.245123	 1.239671	 -0.179488
H	 2.472555	 -0.479791	 0.027445
H	 3.336842	 0.276604	 -2.187191
H	 1.743620	 0.890255	 -2.606969
H	 1.997335	 -0.837378	 -2.412189

	symmetry c1
}
set optking {
	frozen_dihedral = ("
		12 9 5 3
	")
}

ee = optimize('scf')
oeprop('DIPOLE', 'QUADRUPOLE', 'MULLIKEN_CHARGES')
f=open( 'psi4out.xyz', 'w' )
f.write( "16  " )
f.write( str(ee) + "\n" )
f.write( MOL.save_string_xyz() )
f.close()
--------------------------------------------------------------------------

    Molecular point group: c1
  Charge       = 0
  Multiplicity = 1
  Basis Set: 6-31G*
  Basis Set:
  @DF-RHF Final Energy:  -340.75816280907839
    Total Energy =                       -340.7581628090784420
    Molecular point group: c1
  Basis Set: 6-31G*
  Basis Set:
  Basis Set: 6-31G*
  Basis Set:
  @DF-RHF Final Energy:  -340.75829585273613
    Total Energy =                       -340.7582958527358983
  Basis Set: 6-31G*
  Basis Set:
  Basis Set: 6-31G*
  Basis Set:
  @DF-RHF Final Energy:  -340.75839343661363
    Total Energy =                       -340.7583934366138578
  Basis Set: 6-31G*
  Basis Set:
  Basis Set: 6-31G*
  Basis Set:
  @DF-RHF Final Energy:  -340.75838793588144
    Total Energy =                       -340.7583879358817853
  Basis Set: 6-31G*
  Basis Set:
  Basis Set: 6-31G*
  Basis Set:
  @DF-RHF Final Energy:  -340.75840177939375
    Total Energy =                       -340.7584017793939211
  Basis Set: 6-31G*
  Basis Set:
  Charge       = 0
  Multiplicity = 1
  Basis Set: 6-31G*
  Basis Set:

    Orbital Energies (a.u.)
    -----------------------

    Doubly Occupied:

       1A    -15.586925     2A    -15.582479     3A    -11.281110
       4A    -11.276393     5A    -11.272212     6A    -11.272176
       7A    -11.232749     8A    -11.219009     9A     -1.313487
      10A     -1.222097    11A     -1.084764    12A     -1.014076
      13A     -0.904588    14A     -0.893726    15A     -0.828399
      16A     -0.716107    17A     -0.710059    18A     -0.659174
      19A     -0.611646    20A     -0.603547    21A     -0.581539
      22A     -0.561119    23A     -0.522232    24A     -0.506532
      25A     -0.500533    26A     -0.486268    27A     -0.428793
      28A     -0.395097    29A     -0.345252

  @DF-RHF Final Energy:  -340.75840229577977

   => Energetics <=

    Nuclear Repulsion Energy =            349.8185450610109228
    One-Electron Energy =               -1153.9297130435609233
    Two-Electron Energy =                 463.3527656867701126
    DFT Exchange-Correlation Energy =       0.0000000000000000
    Empirical Dispersion Energy =           0.0000000000000000
    PCM Polarization Energy =               0.0000000000000000
    EFP Energy =                            0.0000000000000000
    Total Energy =                       -340.7584022957798879
    Molecular point group: c1
  Basis Set: 6-31G*
  Basis Set:

  -Total Gradient:
     Atom            X                  Y                   Z
    ------   -----------------  -----------------  -----------------
       1       -0.000012705585     0.000001581712    -0.000013387124
       2        0.000084734103    -0.000043795327     0.000006991299
       3       -0.000026444775    -0.000082340050     0.000297084154
       4       -0.000000660113     0.000091565654     0.000038902742
       5       -0.000059739907     0.000127845410    -0.000284579424
       6       -0.000003955812    -0.000007311367    -0.000020210167
       7       -0.000074682247    -0.000065759415     0.000022463324
       8        0.000089416754    -0.000027273995    -0.000079236167
       9       -0.000081449978     0.000178206332    -0.000313579828
      10       -0.000003745995    -0.000003156376     0.000004156060
      11        0.000007178285     0.000000012585    -0.000001242328
      12        0.000074360396    -0.000157750168     0.000345061074
      13        0.000002963561     0.000001389675    -0.000000902571
      14        0.000003106875     0.000001937994    -0.000003893226
      15       -0.000001860322    -0.000007472705     0.000012835506
      16        0.000003484756    -0.000007679960    -0.000010463326

  **** Optimization is complete! (in 6 steps) ****
    Final optimized geometry and variables:
    Molecular point group: c1

    Geometry (in Angstrom), charge = 0, multiplicity = 1:

    H           -1.663322266678    -2.278715472944     0.360272768449
    C           -1.263557524767    -1.280658598064     0.350499219519
    N            0.028313769231    -1.150247098059     0.123145769574
    C           -2.079734528620    -0.185173678496     0.571473513002
    C            0.527265370232     0.074582458791     0.112606126401
    H           -3.131824796132    -0.302754715202     0.756334451296
    N           -1.594452535173     1.041122032593     0.565102386259
    C           -0.303299277829     1.168707955954     0.338353551182
    C            2.000361624991     0.230627502857    -0.171430424016
    H            0.094790402219     2.167716701707     0.336639261701
    C            2.325138511866     0.085631723610    -1.662284330771
    H            2.339941695580     1.196774542198     0.188795871761
    H            2.534970669597    -0.527425199265     0.389922893727
    H            3.393236832308     0.177474213061    -1.830866051951
    H            1.825350693274     0.850501080526    -2.248558079810
    H            2.005628077833    -0.883225873048    -2.028845625245

  Mulliken Charges: (a.u.)
   Center  Symbol    Alpha    Beta     Spin     Total
       1     H     0.39378  0.39378  0.00000  0.21244
       2     C     2.99056  2.99056  0.00000  0.01889
       3     N     3.75255  3.75255  0.00000 -0.50511
       4     C     2.99785  2.99785  0.00000  0.00430
       5     C     2.87731  2.87731  0.00000  0.24537
       6     H     0.39425  0.39425  0.00000  0.21150
       7     N     3.72899  3.72899  0.00000 -0.45798
       8     C     2.99845  2.99845  0.00000  0.00311
       9     C     3.16809  3.16809  0.00000 -0.33618
      10     H     0.39512  0.39512  0.00000  0.20976
      11     C     3.24224  3.24224  0.00000 -0.48447
      12     H     0.41461  0.41461  0.00000  0.17077
      13     H     0.40332  0.40332  0.00000  0.19336
      14     H     0.41641  0.41641  0.00000  0.16717
      15     H     0.41844  0.41844  0.00000  0.16311
      16     H     0.40802  0.40802  0.00000  0.18396

   Total alpha = 29.00000, Total beta = 29.00000, Total charge = -0.00000
