  ==> Input File <==

--------------------------------------------------------------------------
set {
	reference rhf
	basis 6-31G*
}

set_num_threads( 1 )
memory 2 gb

molecule MOL {
0 1

H	 -4.380018	 0.191805	 -1.132117
O	 -3.452007	 0.283848	 -0.965577
C	 -3.181085	 -0.079926	 0.364119
C	 -1.765924	 0.277073	 0.805136
H	 -3.327791	 -1.152017	 0.410903
H	 -3.905698	 0.375695	 1.036898
C	 -0.677594	 -0.417312	 -0.014550
H	 -1.637766	 1.358238	 0.744969
H	 -1.659588	 0.017670	 1.857098
C	 0.738335	 -0.034840	 0.421385
H	 -0.814977	 -0.178223	 -1.064632
H	 -0.802730	 -1.495410	 0.071702
C	 1.822265	 -0.738362	 -0.399735
H	 0.853533	 1.043532	 0.342250
H	 0.871597	 -0.279636	 1.474438
C	 3.258060	 -0.455774	 0.057203
H	 1.718003	 -0.459167	 -1.447053
H	 1.651028	 -1.811884	 -0.354513
C	 3.709143	 0.994797	 -0.123830
H	 3.930637	 -1.101717	 -0.501982
H	 3.365259	 -0.739518	 1.102287
H	 3.601178	 1.310569	 -1.158127
H	 4.753787	 1.110486	 0.148516
H	 3.135362	 1.678896	 0.492569

	symmetry c1
}
set optking {
	frozen_dihedral = ("
		20 16 13 17,
		17 13 10 7,
		13 10 7 11,
		11 7 4 3,
		7 4 3 2
	")
}

ee = energy('scf')
oeprop('DIPOLE', 'QUADRUPOLE', 'MULLIKEN_CHARGES')
f=open( 'psi4out.xyz', 'w' )
f.write( "24  " )
f.write( str(ee) + "\n" )
f.write( MOL.save_string_xyz() )
f.close()
--------------------------------------------------------------------------

    Molecular point group: c1

    Geometry (in Angstrom), charge = 0, multiplicity = 1:

       Center              X                  Y                   Z               Mass
    ------------   -----------------  -----------------  -----------------  -----------------
           H         -4.371692026209     0.200793167613    -1.131354444592     1.007825032070
           O         -3.443681026209     0.292836167613    -0.964814444592    15.994914619560
           C         -3.172759026209    -0.070937832387     0.364881555408    12.000000000000
           C         -1.757598026209     0.286061167613     0.805898555408    12.000000000000
           H         -3.319465026209    -1.143028832387     0.411665555408     1.007825032070
           H         -3.897372026209     0.384683167613     1.037660555408     1.007825032070
           C         -0.669268026209    -0.408323832387    -0.013787444592    12.000000000000
           H         -1.629440026209     1.367226167613     0.745731555408     1.007825032070
           H         -1.651262026209     0.026658167613     1.857860555408     1.007825032070
           C          0.746660973791    -0.025851832387     0.422147555408    12.000000000000
           H         -0.806651026209    -0.169234832387    -1.063869444592     1.007825032070
           H         -0.794404026209    -1.486421832387     0.072464555408     1.007825032070
           C          1.830590973791    -0.729373832387    -0.398972444592    12.000000000000
           H          0.861858973791     1.052520167613     0.343012555408     1.007825032070
           H          0.879922973791    -0.270647832387     1.475200555408     1.007825032070
           C          3.266385973791    -0.446785832387     0.057965555408    12.000000000000
           H          1.726328973791    -0.450178832387    -1.446290444592     1.007825032070
           H          1.659353973791    -1.802895832387    -0.353750444592     1.007825032070
           C          3.717468973791     1.003785167613    -0.123067444592    12.000000000000
           H          3.938962973791    -1.092728832387    -0.501219444592     1.007825032070
           H          3.373584973791    -0.730529832387     1.103049555408     1.007825032070
           H          3.609503973791     1.319557167613    -1.157364444592     1.007825032070
           H          4.762112973791     1.119474167613     0.149278555408     1.007825032070
           H          3.143687973791     1.687884167613     0.493331555408     1.007825032070

  Charge       = 0
  Multiplicity = 1
  Basis Set: 6-31G*
  Basis Set:

    Orbital Energies (a.u.)
    -----------------------

    Doubly Occupied:

       1A    -20.550523     2A    -11.267378     3A    -11.215314
       4A    -11.211753     5A    -11.209253     6A    -11.208668
       7A    -11.207290     8A    -11.204856     9A     -1.358089
      10A     -1.085568    11A     -1.046060    12A     -0.983611
      13A     -0.911832    14A     -0.844057    15A     -0.790379
      16A     -0.773434    17A     -0.699997    18A     -0.645893
      19A     -0.630792    20A     -0.610701    21A     -0.587299
      22A     -0.577048    23A     -0.557616    24A     -0.531113
      25A     -0.523303    26A     -0.503469    27A     -0.488915
      28A     -0.481941    29A     -0.466409    30A     -0.454807
      31A     -0.449973    32A     -0.433604    33A     -0.425439

  @DF-RHF Final Energy:  -349.24568863845917

   => Energetics <=

    Nuclear Repulsion Energy =            383.7078278988175839
    One-Electron Energy =               -1234.0341017528676275
    Two-Electron Energy =                 501.0805852155908156
    DFT Exchange-Correlation Energy =       0.0000000000000000
    Empirical Dispersion Energy =           0.0000000000000000
    PCM Polarization Energy =               0.0000000000000000
    EFP Energy =                            0.0000000000000000
    Total Energy =                       -349.2456886384591712

  Mulliken Charges: (a.u.)
   Center  Symbol    Alpha    Beta     Spin     Total
       1     H     0.28015  0.28015  0.00000  0.43970
       2     O     4.37199  4.37199  0.00000 -0.74397
       3     C     2.99456  2.99456  0.00000  0.01088
       4     C     3.16165  3.16165  0.00000 -0.32329
       5     H     0.43197  0.43197  0.00000  0.13606
       6     H     0.43073  0.43073  0.00000  0.13854
       7     C     3.15452  3.15452  0.00000 -0.30903
       8     H     0.41698  0.41698  0.00000  0.16604
       9     H     0.42242  0.42242  0.00000  0.15516
      10     C     3.15423  3.15423  0.00000 -0.30845
      11     H     0.40775  0.40775  0.00000  0.18451
      12     H     0.42593  0.42593  0.00000  0.14813
      13     C     3.15219  3.15219  0.00000 -0.30437
      14     H     0.42117  0.42117  0.00000  0.15767
      15     H     0.42647  0.42647  0.00000  0.14706
      16     C     3.15217  3.15217  0.00000 -0.30434
      17     H     0.42321  0.42321  0.00000  0.15357
      18     H     0.42296  0.42296  0.00000  0.15408
      19     C     3.24097  3.24097  0.00000 -0.48193
      20     H     0.42160  0.42160  0.00000  0.15679
      21     H     0.42416  0.42416  0.00000  0.15167
      22     H     0.42202  0.42202  0.00000  0.15597
      23     H     0.42008  0.42008  0.00000  0.15984
      24     H     0.42014  0.42014  0.00000  0.15973

   Total alpha = 33.00000, Total beta = 33.00000, Total charge = -0.00000
