  ==> Input File <==

--------------------------------------------------------------------------
set {
	reference rhf
	basis 6-31G*
}

set_num_threads( 4 )
memory 2 gb

molecule MOL {
0 1

H	 2.318191	 2.579916	 -0.551664
O	 3.107040	 2.180597	 -0.888314
C	 3.486103	 1.110058	 -0.061083
C	 2.582920	 -0.109891	 -0.205003
H	 4.495840	 0.854013	 -0.355271
H	 3.523710	 1.427908	 0.980231
C	 1.136012	 0.131954	 0.231846
H	 2.601768	 -0.432393	 -1.242791
H	 3.008849	 -0.918729	 0.386378
C	 0.268492	 -1.125477	 0.126517
H	 0.706071	 0.921516	 -0.378161
H	 1.123610	 0.489171	 1.261692
C	 -1.169155	 -0.960178	 0.632665
H	 0.249135	 -1.461356	 -0.908692
H	 0.743869	 -1.922459	 0.694441
C	 -2.037799	 -0.007733	 -0.193645
H	 -1.642433	 -1.939826	 0.643309
H	 -1.149166	 -0.623582	 1.668107
C	 -3.489788	 0.042957	 0.286558
H	 -2.016347	 -0.316840	 -1.237725
H	 -1.623251	 0.997066	 -0.164800
C	 -4.216917	 1.317354	 -0.141063
H	 -4.025645	 -0.823308	 -0.095450
H	 -3.513059	 -0.038752	 1.371301
H	 -4.239342	 1.411634	 -1.223113
H	 -5.243387	 1.322503	 0.212445
H	 -3.726170	 2.201406	 0.256408

	symmetry c1
}
set optking {
	frozen_dihedral = ("
		20 16 19 22
	")
}

ee = optimize('scf')
oeprop('DIPOLE', 'QUADRUPOLE', 'MULLIKEN_CHARGES')
f=open( 'psi4out.xyz', 'w' )
f.write( "27  " )
f.write( str(ee) + "\n" )
f.write( MOL.save_string_xyz() )
f.close()
--------------------------------------------------------------------------

    Molecular point group: c1
  Charge       = 0
  Multiplicity = 1
  Basis Set: 6-31G*
  Basis Set:
  @DF-RHF Final Energy:  -388.28008508763855
    Total Energy =                       -388.2800850876384402
    Molecular point group: c1
  Basis Set: 6-31G*
  Basis Set:
  Basis Set: 6-31G*
  Basis Set:
  @DF-RHF Final Energy:  -388.28020097393306
    Total Energy =                       -388.2802009739330060
  Basis Set: 6-31G*
  Basis Set:
  Basis Set: 6-31G*
  Basis Set:
  @DF-RHF Final Energy:  -388.28021552471535
    Total Energy =                       -388.2802155247159135
  Basis Set: 6-31G*
  Basis Set:
  Basis Set: 6-31G*
  Basis Set:
  @DF-RHF Final Energy:  -388.28027384252721
    Total Energy =                       -388.2802738425277767
  Basis Set: 6-31G*
  Basis Set:
  Charge       = 0
  Multiplicity = 1
  Basis Set: 6-31G*
  Basis Set:

    Orbital Energies (a.u.)
    -----------------------

    Doubly Occupied:

       1A    -20.552284     2A    -11.267036     3A    -11.219816
       4A    -11.217125     5A    -11.216078     6A    -11.215636
       7A    -11.215208     8A    -11.214323     9A    -11.209571
      10A     -1.359041    11A     -1.095090    12A     -1.061147
      13A     -1.011393    14A     -0.948510    15A     -0.887943
      16A     -0.819983    17A     -0.802047    18A     -0.777831
      19A     -0.693666    20A     -0.651934    21A     -0.635609
      22A     -0.614628    23A     -0.603254    24A     -0.582966
      25A     -0.581102    26A     -0.550573    27A     -0.540355
      28A     -0.533634    29A     -0.503786    30A     -0.494662
      31A     -0.486625    32A     -0.472476    33A     -0.470668
      34A     -0.459823    35A     -0.452085    36A     -0.441034
      37A     -0.422864

  @DF-RHF Final Energy:  -388.28027394277660

   => Energetics <=

    Nuclear Repulsion Energy =            460.0868148167178333
    One-Electron Energy =               -1438.1705651172487705
    Two-Electron Energy =                 589.8034763577541071
    DFT Exchange-Correlation Energy =       0.0000000000000000
    Empirical Dispersion Energy =           0.0000000000000000
    PCM Polarization Energy =               0.0000000000000000
    EFP Energy =                            0.0000000000000000
    Total Energy =                       -388.2802739427768302
    Molecular point group: c1
  Basis Set: 6-31G*
  Basis Set:

  -Total Gradient:
     Atom            X                  Y                   Z
    ------   -----------------  -----------------  -----------------
       1       -0.000011148946    -0.000002004094     0.000001960077
       2       -0.000001835849     0.000009120560    -0.000000415783
       3       -0.000006603095    -0.000002291079    -0.000040711507
       4       -0.000000519626     0.000009920354    -0.000060659376
       5        0.000002549557    -0.000003769873     0.000001753321
       6       -0.000007267702    -0.000006894573     0.000000490003
       7       -0.000004095489     0.000000422830     0.000051532379
       8        0.000014634893    -0.000026756484    -0.000010755014
       9       -0.000002310953     0.000028638673     0.000009625435
      10       -0.000017201503     0.000023916331     0.000033813193
      11       -0.000026983578     0.000044803066     0.000027645408
      12        0.000033574959    -0.000018603994     0.000035760856
      13       -0.000044405716     0.000018531251    -0.000012799744
      14        0.000023353943    -0.000007708978     0.000006116800
      15       -0.000079799773    -0.000018783662     0.000050515148
      16       -0.000201071179     0.004633642404    -0.000303764683
      17       -0.000003228292    -0.000019020430     0.000002035674
      18        0.000092571281     0.000006151364    -0.000011240960
      19       -0.000770234975    -0.002402013760    -0.002887918933
      20        0.000278182510    -0.003444557221     0.000964518898
      21       -0.000080443967     0.000025857123    -0.000009256504
      22        0.000728901796     0.001192459180     0.002203341742
      23        0.000045236487     0.000038271532    -0.000094042080
      24        0.000031180351    -0.000079737891     0.000035893726
      25       -0.000037233769     0.000008942121    -0.000003821293
      26        0.000015531195     0.000005691208     0.000025904017
      27        0.000028667433    -0.000014225964    -0.000015520801

  **** Optimization is complete! (in 5 steps) ****
    Final optimized geometry and variables:
    Molecular point group: c1

    Geometry (in Angstrom), charge = 0, multiplicity = 1:

    H            2.331236628872     2.238555927457    -0.515304695475
    O            3.113355410808     1.835240892296    -0.862735638434
    C            3.496940137346     0.761481262903    -0.041833534245
    C            2.584837980386    -0.452986103401    -0.175426249534
    H            4.501140907196     0.500005518289    -0.349810356170
    H            3.550274077544     1.077714225341     0.999288847450
    C            1.145324563944    -0.203392991038     0.280963773764
    H            2.588044340226    -0.774102107228    -1.213817963084
    H            3.013783984919    -1.265148299178     0.409143155330
    C            0.266539289441    -1.453001181600     0.176303935618
    H            0.714022060433     0.593991551311    -0.317965482970
    H            1.148077862212     0.146254325000     1.313511916646
    C           -1.168642054885    -1.273251545124     0.683128720541
    H            0.243252501048    -1.787899860617    -0.859173724050
    H            0.734427143689    -2.255000894236     0.743471922330
    C           -2.024823476305    -0.298879976631    -0.133503649372
    H           -1.656018050632    -2.246364409193     0.682899864831
    H           -1.145162310744    -0.948123088969     1.722060795826
    C           -3.493469350586    -0.295682039987     0.308950047989
    H           -1.966356757781    -0.591203807245    -1.180532028918
    H           -1.620848034277     0.706796820559    -0.058875102362
    C           -4.249237322427     0.962599842020    -0.117323171008
    H           -3.991596723165    -1.179455005485    -0.081528269608
    H           -3.540522160429    -0.376294214588     1.393223384395
    H           -4.231637852501     1.089361629612    -1.196524742239
    H           -5.288855132932     0.922489708048     0.192990248495
    H           -3.804854435751     1.849244534074     0.325489672390

  Mulliken Charges: (a.u.)
   Center  Symbol    Alpha    Beta     Spin     Total
       1     H     0.27990  0.27990  0.00000  0.44019
       2     O     4.37093  4.37093  0.00000 -0.74185
       3     C     2.99737  2.99737  0.00000  0.00526
       4     C     3.16091  3.16091  0.00000 -0.32182
       5     H     0.41444  0.41444  0.00000  0.17113
       6     H     0.43206  0.43206  0.00000  0.13587
       7     C     3.16332  3.16332  0.00000 -0.32663
       8     H     0.41498  0.41498  0.00000  0.17004
       9     H     0.42431  0.42431  0.00000  0.15137
      10     C     3.15220  3.15220  0.00000 -0.30440
      11     H     0.42293  0.42293  0.00000  0.15414
      12     H     0.42541  0.42541  0.00000  0.14918
      13     C     3.15464  3.15464  0.00000 -0.30929
      14     H     0.42179  0.42179  0.00000  0.15643
      15     H     0.42153  0.42153  0.00000  0.15694
      16     C     3.15297  3.15297  0.00000 -0.30594
      17     H     0.42115  0.42115  0.00000  0.15769
      18     H     0.42420  0.42420  0.00000  0.15159
      19     C     3.15215  3.15215  0.00000 -0.30431
      20     H     0.42253  0.42253  0.00000  0.15494
      21     H     0.42310  0.42310  0.00000  0.15381
      22     C     3.23942  3.23942  0.00000 -0.47885
      23     H     0.42123  0.42123  0.00000  0.15754
      24     H     0.42307  0.42307  0.00000  0.15387
      25     H     0.42157  0.42157  0.00000  0.15687
      26     H     0.41959  0.41959  0.00000  0.16082
      27     H     0.42230  0.42230  0.00000  0.15541

   Total alpha = 37.00000, Total beta = 37.00000, Total charge =  0.00000
