  ==> Input File <==

--------------------------------------------------------------------------
set {
	reference rhf
	basis 6-31G*
}

set_num_threads( 1 )
memory 2 gb

molecule MOL {
0 1

H	 -1.116781	 -0.133951	 -0.874220
C	 -0.790252	 0.431209	 0.000000
N	 0.538815	 0.649616	 0.000000
O	 -1.558490	 0.796449	 0.840011
C	 1.521968	 -0.411503	 0.000000
H	 0.852804	 1.592852	 0.000000
H	 2.150599	 -0.357004	 -0.881901
H	 0.999455	 -1.354525	 0.000000
H	 2.150599	 -0.357004	 0.881901

	symmetry c1
}
set optking {
	frozen_dihedral = ("
		6 3 5 7
	")
}

ee = energy('scf')
oeprop('DIPOLE', 'QUADRUPOLE', 'MULLIKEN_CHARGES')
f=open( 'psi4out.xyz', 'w' )
f.write( "9  " )
f.write( str(ee) + "\n" )
f.write( MOL.save_string_xyz() )
f.close()
--------------------------------------------------------------------------

    Molecular point group: c1

    Geometry (in Angstrom), charge = 0, multiplicity = 1:

       Center              X                  Y                   Z               Mass
    ------------   -----------------  -----------------  -----------------  -----------------
           H         -1.057053012159    -0.497414301489    -1.086880183063     1.007825032070
           C         -0.730524012159     0.067745698511    -0.212660183063    12.000000000000
           N          0.598542987841     0.286152698511    -0.212660183063    14.003074004780
           O         -1.498762012159     0.432985698511     0.627350816937    15.994914619560
           C          1.581695987841    -0.774966301489    -0.212660183063    12.000000000000
           H          0.912531987841     1.229388698511    -0.212660183063     1.007825032070
           H          2.210326987841    -0.720467301489    -1.094561183063     1.007825032070
           H          1.059182987841    -1.717988301489    -0.212660183063     1.007825032070
           H          2.210326987841    -0.720467301489     0.669240816937     1.007825032070

  Charge       = 0
  Multiplicity = 1
  Basis Set: 6-31G*
  Basis Set:

    Orbital Energies (a.u.)
    -----------------------

    Doubly Occupied:

       1A    -20.549909     2A    -15.563048     3A    -11.347385
       4A    -11.270428     5A     -1.399338     6A     -1.230587
       7A     -0.960234     8A     -0.833187     9A     -0.703703
      10A     -0.672372    11A     -0.638239    12A     -0.599660
      13A     -0.568767    14A     -0.514229    15A     -0.434458
      16A     -0.381687

  @DF-RHF Final Energy:  -207.92875429929484

   => Energetics <=

    Nuclear Repulsion Energy =            120.6764323631564224
    One-Electron Energy =                -521.8759173927446682
    Two-Electron Energy =                 193.2707307302933373
    DFT Exchange-Correlation Energy =       0.0000000000000000
    Empirical Dispersion Energy =           0.0000000000000000
    PCM Polarization Energy =               0.0000000000000000
    EFP Energy =                            0.0000000000000000
    Total Energy =                       -207.9287542992948943

  Mulliken Charges: (a.u.)
   Center  Symbol    Alpha    Beta     Spin     Total
       1     H     0.43141  0.43141  0.00000  0.13717
       2     C     2.76013  2.76013  0.00000  0.47974
       3     N     3.88836  3.88836  0.00000 -0.77671
       4     O     4.24337  4.24337  0.00000 -0.48673
       5     C     3.13644  3.13644  0.00000 -0.27288
       6     H     0.30577  0.30577  0.00000  0.38845
       7     H     0.41623  0.41623  0.00000  0.16753
       8     H     0.41057  0.41057  0.00000  0.17887
       9     H     0.40772  0.40772  0.00000  0.18456

   Total alpha = 16.00000, Total beta = 16.00000, Total charge =  0.00000
