  ==> Input File <==

--------------------------------------------------------------------------
set {
	reference rhf
	basis 6-31G*
}

set_num_threads( 1 )
memory 2 gb

molecule MOL {
0 1

H	 3.262799	 1.355642	 -0.236311
O	 2.336202	 1.239877	 -0.049838
C	 2.077727	 -0.067559	 -0.035091
C	 0.624473	 -0.343591	 0.253101
O	 2.921695	 -0.880247	 -0.230723
C	 -0.265902	 0.883932	 0.072916
H	 0.324016	 -1.163849	 -0.390541
H	 0.565024	 -0.726111	 1.268924
C	 -1.728698	 0.646073	 0.462102
H	 -0.209144	 1.219470	 -0.958188
H	 0.135059	 1.692851	 0.673903
C	 -2.482460	 -0.343073	 -0.431425
H	 -2.245265	 1.602650	 0.432430
H	 -1.779332	 0.308348	 1.496285
C	 -3.960546	 -0.461025	 -0.060175
H	 -2.395034	 -0.026811	 -1.468912
H	 -2.024850	 -1.327147	 -0.371646
H	 -4.472726	 -1.168004	 -0.705284
H	 -4.465146	 0.496508	 -0.151489
H	 -4.081218	 -0.800940	 0.964585

	symmetry c1
}
set optking {
	frozen_dihedral = ("
		16 12 9 6,
		7 4 6 10,
		12 9 6 10,
		1 2 3 5
	")
}

ee = energy('scf')
oeprop('DIPOLE', 'QUADRUPOLE', 'MULLIKEN_CHARGES')
f=open( 'psi4out.xyz', 'w' )
f.write( "20  " )
f.write( str(ee) + "\n" )
f.write( MOL.save_string_xyz() )
f.close()
--------------------------------------------------------------------------

    Molecular point group: c1

    Geometry (in Angstrom), charge = 0, multiplicity = 1:

       Center              X                  Y                   Z               Mass
    ------------   -----------------  -----------------  -----------------  -----------------
           H          3.282156751422     1.260853633646    -0.229485546642     1.007825032070
           O          2.355559751422     1.145088633646    -0.043012546642    15.994914619560
           C          2.097084751422    -0.162347366354    -0.028265546642    12.000000000000
           C          0.643830751422    -0.438379366354     0.259926453358    12.000000000000
           O          2.941052751422    -0.975035366354    -0.223897546642    15.994914619560
           C         -0.246544248578     0.789143633646     0.079741453358    12.000000000000
           H          0.343373751422    -1.258637366354    -0.383715546642     1.007825032070
           H          0.584381751422    -0.820899366354     1.275749453358     1.007825032070
           C         -1.709340248578     0.551284633646     0.468927453358    12.000000000000
           H         -0.189786248578     1.124681633646    -0.951362546642     1.007825032070
           H          0.154416751422     1.598062633646     0.680728453358     1.007825032070
           C         -2.463102248578    -0.437861366354    -0.424599546642    12.000000000000
           H         -2.225907248578     1.507861633646     0.439255453358     1.007825032070
           H         -1.759974248578     0.213559633646     1.503110453358     1.007825032070
           C         -3.941188248578    -0.555813366354    -0.053349546642    12.000000000000
           H         -2.375676248578    -0.121599366354    -1.462086546642     1.007825032070
           H         -2.005492248578    -1.421935366354    -0.364820546642     1.007825032070
           H         -4.453368248578    -1.262792366354    -0.698458546642     1.007825032070
           H         -4.445788248578     0.401719633646    -0.144663546642     1.007825032070
           H         -4.061860248578    -0.895728366354     0.971410453358     1.007825032070

  Charge       = 0
  Multiplicity = 1
  Basis Set: 6-31G*
  Basis Set:

    Orbital Energies (a.u.)
    -----------------------

    Doubly Occupied:

       1A    -20.613728     2A    -20.548666     3A    -11.381419
       4A    -11.239835     5A    -11.224604     6A    -11.221457
       7A    -11.220751     8A    -11.212826     9A     -1.474992
      10A     -1.364785    11A     -1.098380    12A     -1.042373
      13A     -0.958920    14A     -0.860278    15A     -0.826736
      16A     -0.791202    17A     -0.700510    18A     -0.681716
      19A     -0.659163    20A     -0.635255    21A     -0.601805
      22A     -0.589165    23A     -0.576871    24A     -0.554393
      25A     -0.544551    26A     -0.518198    27A     -0.502880
      28A     -0.482523    29A     -0.474675    30A     -0.467289
      31A     -0.456532    32A     -0.433189

  @DF-RHF Final Energy:  -383.94470207514598

   => Energetics <=

    Nuclear Repulsion Energy =            377.8167533883712395
    One-Electron Energy =               -1271.6035607843259641
    Two-Electron Energy =                 509.8421053208072067
    DFT Exchange-Correlation Energy =       0.0000000000000000
    Empirical Dispersion Energy =           0.0000000000000000
    PCM Polarization Energy =               0.0000000000000000
    EFP Energy =                            0.0000000000000000
    Total Energy =                       -383.9447020751475179

  Mulliken Charges: (a.u.)
   Center  Symbol    Alpha    Beta     Spin     Total
       1     H     0.26750  0.26750  0.00000  0.46500
       2     O     4.34946  4.34946  0.00000 -0.69893
       3     C     2.61872  2.61872  0.00000  0.76256
       4     C     3.21867  3.21867  0.00000 -0.43734
       5     O     4.28202  4.28202  0.00000 -0.56404
       6     C     3.15646  3.15646  0.00000 -0.31291
       7     H     0.39427  0.39427  0.00000  0.21146
       8     H     0.39740  0.39740  0.00000  0.20519
       9     C     3.15522  3.15522  0.00000 -0.31043
      10     H     0.41582  0.41582  0.00000  0.16836
      11     H     0.40450  0.40450  0.00000  0.19101
      12     C     3.15497  3.15497  0.00000 -0.30994
      13     H     0.41856  0.41856  0.00000  0.16289
      14     H     0.42334  0.42334  0.00000  0.15332
      15     C     3.23929  3.23929  0.00000 -0.47858
      16     H     0.42192  0.42192  0.00000  0.15617
      17     H     0.42172  0.42172  0.00000  0.15656
      18     H     0.41802  0.41802  0.00000  0.16395
      19     H     0.42097  0.42097  0.00000  0.15805
      20     H     0.42117  0.42117  0.00000  0.15766

   Total alpha = 32.00000, Total beta = 32.00000, Total charge = -0.00000
