  ==> Input File <==

--------------------------------------------------------------------------
set {
	reference rhf
	basis 6-31G*
}

set_num_threads( 4 )
memory 2 gb

molecule MOL {
0 1

O	 1.094331	 0.402474	 -0.976976
C	 1.705091	 0.115954	 0.001797
C	 1.442756	 0.650283	 1.388715
O	 2.721346	 -0.737485	 -0.000216
C	 0.280369	 1.636649	 1.448565
H	 1.268561	 -0.203438	 2.037969
H	 2.364281	 1.105856	 1.740799
C	 0.036388	 2.160959	 2.864416
H	 -0.617143	 1.154780	 1.073781
H	 0.480122	 2.465942	 0.777237
C	 -1.126902	 3.151134	 2.942963
H	 -0.159771	 1.324370	 3.533472
H	 0.940712	 2.640921	 3.235516
C	 -1.369418	 3.675588	 4.357666
H	 -2.031623	 2.672367	 2.574991
H	 -0.932022	 3.987839	 2.275816
H	 -1.601363	 2.864671	 5.042377
H	 -2.199416	 4.374893	 4.380601
H	 -0.492782	 4.190237	 4.741017
C	 4.024888	 -0.184556	 -0.001949
H	 4.179030	 0.422472	 -0.882452
H	 4.701782	 -1.024608	 -0.003642
H	 4.181981	 0.421185	 0.878906

	symmetry c1
}
set optking {
	frozen_dihedral = ("
		1 2 4 20
	")
}

ee = optimize('scf')
oeprop('DIPOLE', 'QUADRUPOLE', 'MULLIKEN_CHARGES')
f=open( 'psi4out.xyz', 'w' )
f.write( "23  " )
f.write( str(ee) + "\n" )
f.write( MOL.save_string_xyz() )
f.close()
--------------------------------------------------------------------------

    Molecular point group: c1
  Charge       = 0
  Multiplicity = 1
  Basis Set: 6-31G*
  Basis Set:
  @DF-RHF Final Energy:  -422.95328207076352
    Total Energy =                       -422.9532820707632936
    Molecular point group: c1
  Basis Set: 6-31G*
  Basis Set:
  Basis Set: 6-31G*
  Basis Set:
  @DF-RHF Final Energy:  -422.95172292436945
    Total Energy =                       -422.9517229243697329
  Basis Set: 6-31G*
  Basis Set:
  Basis Set: 6-31G*
  Basis Set:
  @DF-RHF Final Energy:  -422.95439792765808
    Total Energy =                       -422.9543979276581922
  Basis Set: 6-31G*
  Basis Set:
  Basis Set: 6-31G*
  Basis Set:
  @DF-RHF Final Energy:  -422.95534696870874
    Total Energy =                       -422.9553469687089091
  Basis Set: 6-31G*
  Basis Set:
  Basis Set: 6-31G*
  Basis Set:
  @DF-RHF Final Energy:  -422.95537890944217
    Total Energy =                       -422.9553789094419471
  Basis Set: 6-31G*
  Basis Set:
  Basis Set: 6-31G*
  Basis Set:
  @DF-RHF Final Energy:  -422.95538447926236
    Total Energy =                       -422.9553844792626478
  Basis Set: 6-31G*
  Basis Set:
  Basis Set: 6-31G*
  Basis Set:
  @DF-RHF Final Energy:  -422.95538567952167
    Total Energy =                       -422.9553856795225784
  Basis Set: 6-31G*
  Basis Set:
  Charge       = 0
  Multiplicity = 1
  Basis Set: 6-31G*
  Basis Set:

    Orbital Energies (a.u.)
    -----------------------

    Doubly Occupied:

       1A    -20.585820     2A    -20.556880     3A    -11.375093
       4A    -11.292878     5A    -11.240529     6A    -11.222563
       7A    -11.220737     8A    -11.218644     9A    -11.211488
      10A     -1.458507    11A     -1.367642    12A     -1.095194
      13A     -1.041733    14A     -0.980884    15A     -0.944734
      16A     -0.851215    17A     -0.797842    18A     -0.765427
      19A     -0.696209    20A     -0.678368    21A     -0.675053
      22A     -0.650303    23A     -0.619986    24A     -0.606728
      25A     -0.579883    26A     -0.568221    27A     -0.557123
      28A     -0.536945    29A     -0.510795    30A     -0.495338
      31A     -0.485639    32A     -0.481293    33A     -0.471037
      34A     -0.468173    35A     -0.449545    36A     -0.431930

  @DF-RHF Final Energy:  -422.95538586695528

   => Energetics <=

    Nuclear Repulsion Energy =            452.8204823159681496
    One-Electron Energy =               -1473.1709788757921160
    Two-Electron Energy =                 597.3951106928682293
    DFT Exchange-Correlation Energy =       0.0000000000000000
    Empirical Dispersion Energy =           0.0000000000000000
    PCM Polarization Energy =               0.0000000000000000
    EFP Energy =                            0.0000000000000000
    Total Energy =                       -422.9553858669557940
    Molecular point group: c1
  Basis Set: 6-31G*
  Basis Set:

  -Total Gradient:
     Atom            X                  Y                   Z
    ------   -----------------  -----------------  -----------------
       1       -0.000985351117    -0.001265780369     0.000414325979
       2        0.001424061265     0.001957461862     0.000043215655
       3        0.000012575253    -0.000040684780     0.000015161100
       4       -0.000510976680    -0.000713390225    -0.001795426637
       5        0.000001710204    -0.000005096388    -0.000000028227
       6        0.000004464390     0.000004451836     0.000001943746
       7       -0.000003178962     0.000001205767    -0.000014402344
       8       -0.000008734517    -0.000000971833    -0.000002594851
       9       -0.000002841242    -0.000001005893    -0.000001961260
      10       -0.000005711592    -0.000002124156     0.000002958826
      11        0.000016143175     0.000018127841     0.000003063257
      12        0.000000510844     0.000003630531     0.000007075050
      13       -0.000000860610    -0.000000708158    -0.000006974437
      14       -0.000014749447    -0.000007882785     0.000002870384
      15        0.000004260841     0.000003460722    -0.000002981398
      16        0.000003636375     0.000003483432     0.000002354255
      17        0.000004336597    -0.000000460474     0.000004478857
      18       -0.000004856953    -0.000003516726     0.000003842740
      19       -0.000002389193     0.000002604432    -0.000006050862
      20        0.000045326598     0.000041502078     0.001333102761
      21        0.000011318868     0.000004552955     0.000002623582
      22        0.000010284853    -0.000001586610    -0.000003438555
      23        0.000001021045     0.000002726945    -0.000003157619

  **** Optimization is complete! (in 8 steps) ****
    Final optimized geometry and variables:
    Molecular point group: c1

    Geometry (in Angstrom), charge = 0, multiplicity = 1:

    O            0.074964434102    -0.844810867267    -2.244213489523
    C            0.720936087954    -1.074411619732    -1.282406401872
    C            0.434880617530    -0.527939254016     0.096982408371
    O            1.755577832221    -1.947336388756    -1.324536622096
    C           -0.722416082625     0.465509849546     0.137747283777
    H            0.238657221362    -1.386521058896     0.734864731175
    H            1.344562088035    -0.078280834169     0.486683959472
    C           -0.996201915636     0.983059118443     1.550635696014
    H           -1.612530845335    -0.009801174171    -0.261116271222
    H           -0.502900371932     1.298296364332    -0.523765227881
    C           -2.155776801697     1.979036394230     1.608017954692
    H           -1.212522670646     0.143474562228     2.209503966949
    H           -0.098397839621     1.456145596555     1.946158561456
    C           -2.431009422129     2.493293956473     3.020475468871
    H           -3.053234224437     1.507994449248     1.213616051642
    H           -1.939921964291     2.820029812910     0.952828188021
    H           -2.683086290475     1.677979580252     3.692734408561
    H           -3.258503791412     3.195766110969     3.028426074811
    H           -1.562171689079     3.001376028449     3.429522291272
    C            3.057507252652    -1.414724300775    -1.427700068172
    H            3.156320369631    -0.818409716021    -2.327031159919
    H            3.729367684364    -2.257022720557    -1.481533781062
    H            3.312369460910    -0.812960448911    -0.562182362980

  Mulliken Charges: (a.u.)
   Center  Symbol    Alpha    Beta     Spin     Total
       1     O     4.25058  4.25058  0.00000 -0.50116
       2     C     2.61320  2.61320  0.00000  0.77361
       3     C     3.21570  3.21570  0.00000 -0.43141
       4     O     4.31523  4.31523  0.00000 -0.63046
       5     C     3.15230  3.15230  0.00000 -0.30460
       6     H     0.39778  0.39778  0.00000  0.20444
       7     H     0.40820  0.40820  0.00000  0.18360
       8     C     3.15329  3.15329  0.00000 -0.30659
       9     H     0.40875  0.40875  0.00000  0.18250
      10     H     0.41353  0.41353  0.00000  0.17295
      11     C     3.15172  3.15172  0.00000 -0.30343
      12     H     0.42329  0.42329  0.00000  0.15342
      13     H     0.42504  0.42504  0.00000  0.14993
      14     C     3.23967  3.23967  0.00000 -0.47933
      15     H     0.42053  0.42053  0.00000  0.15893
      16     H     0.42144  0.42144  0.00000  0.15712
      17     H     0.42149  0.42149  0.00000  0.15702
      18     H     0.41803  0.41803  0.00000  0.16393
      19     H     0.42206  0.42206  0.00000  0.15587
      20     C     3.09265  3.09265  0.00000 -0.18530
      21     H     0.41114  0.41114  0.00000  0.17772
      22     H     0.40180  0.40180  0.00000  0.19640
      23     H     0.42258  0.42258  0.00000  0.15484

   Total alpha = 36.00000, Total beta = 36.00000, Total charge =  0.00000
