  ==> Input File <==

--------------------------------------------------------------------------
set {
	reference rhf
	basis 6-31G*
}

set_num_threads( 1 )
memory 2 gb

molecule MOL {
0 1

H	 -3.261111	 -0.295142	 1.469456
C	 -3.306842	 -0.277400	 0.373456
C	 -2.660244	 0.921717	 -0.272021
O	 -3.838538	 -1.161155	 -0.216482
C	 -3.494391	 2.199814	 -0.107942
H	 -1.665772	 1.038809	 0.142737
H	 -2.555271	 0.696305	 -1.332599
C	 -3.589655	 2.684696	 1.340889
H	 -3.052769	 2.979763	 -0.721077
H	 -4.494201	 2.032202	 -0.505488
C	 -4.414030	 3.965177	 1.487825
H	 -2.586247	 2.852423	 1.726750
H	 -4.024663	 1.904927	 1.963197
C	 -4.493810	 4.456145	 2.935767
H	 -3.981177	 4.736966	 0.856389
H	 -5.421263	 3.790627	 1.111793
C	 -5.378135	 5.690824	 3.144591
H	 -3.489788	 4.668220	 3.299991
H	 -4.876739	 3.648661	 3.556289
C	 -4.857465	 6.965611	 2.478678
H	 -5.470958	 5.869455	 4.212965
H	 -6.382915	 5.479284	 2.784608
H	 -3.846971	 7.193071	 2.807971
H	 -4.842132	 6.882145	 1.397118
H	 -5.485206	 7.815179	 2.730012

	symmetry c1
}
set optking {
	frozen_dihedral = ("
		6 3 5 8,
		3 5 8 12,
		12 8 11 14,
		8 11 14 18,
		20 17 14 18
	")
}

ee = energy('scf')
oeprop('DIPOLE', 'QUADRUPOLE', 'MULLIKEN_CHARGES')
f=open( 'psi4out.xyz', 'w' )
f.write( "25  " )
f.write( str(ee) + "\n" )
f.write( MOL.save_string_xyz() )
f.close()
--------------------------------------------------------------------------

    Molecular point group: c1

    Geometry (in Angstrom), charge = 0, multiplicity = 1:

       Center              X                  Y                   Z               Mass
    ------------   -----------------  -----------------  -----------------  -----------------
           H          0.748260846860    -3.124353840846     0.229900791022     1.007825032070
           C          0.702529846860    -3.106611840846    -0.866099208978    12.000000000000
           C          1.349127846860    -1.907494840846    -1.511576208978    12.000000000000
           O          0.170833846860    -3.990366840846    -1.456037208978    15.994914619560
           C          0.514980846860    -0.629397840846    -1.347497208978    12.000000000000
           H          2.343599846860    -1.790402840846    -1.096818208978     1.007825032070
           H          1.454100846860    -2.132906840846    -2.572154208978     1.007825032070
           C          0.419716846860    -0.144515840846     0.101333791022    12.000000000000
           H          0.956602846860     0.150551159154    -1.960632208978     1.007825032070
           H         -0.484829153140    -0.797009840846    -1.745043208978     1.007825032070
           C         -0.404658153140     1.135965159154     0.248269791022    12.000000000000
           H          1.423124846860     0.023211159154     0.487194791022     1.007825032070
           H         -0.015291153140    -0.924284840846     0.723641791022     1.007825032070
           C         -0.484438153140     1.626933159154     1.696211791022    12.000000000000
           H          0.028194846860     1.907754159154    -0.383166208978     1.007825032070
           H         -1.411891153140     0.961415159154    -0.127762208978     1.007825032070
           C         -1.368763153140     2.861612159154     1.905035791022    12.000000000000
           H          0.519583846860     1.839008159154     2.060435791022     1.007825032070
           H         -0.867367153140     0.819449159154     2.316733791022     1.007825032070
           C         -0.848093153140     4.136399159154     1.239122791022    12.000000000000
           H         -1.461586153140     3.040243159154     2.973409791022     1.007825032070
           H         -2.373543153140     2.650072159154     1.545052791022     1.007825032070
           H          0.162400846860     4.363859159154     1.568415791022     1.007825032070
           H         -0.832760153140     4.052933159154     0.157562791022     1.007825032070
           H         -1.475834153140     4.985967159154     1.490456791022     1.007825032070

  Charge       = 0
  Multiplicity = 1
  Basis Set: 6-31G*
  Basis Set:

    Orbital Energies (a.u.)
    -----------------------

    Doubly Occupied:

       1A    -20.562354     2A    -11.325307     3A    -11.235522
       4A    -11.233845     5A    -11.227277     6A    -11.221639
       7A    -11.219671     8A    -11.219081     9A    -11.211891
      10A     -1.401993    11A     -1.105447    12A     -1.070474
      13A     -1.013989    14A     -0.943485    15A     -0.877678
      16A     -0.828309    17A     -0.783946    18A     -0.776493
      19A     -0.679607    20A     -0.658946    21A     -0.633051
      22A     -0.620638    23A     -0.598264    24A     -0.594870
      25A     -0.575842    26A     -0.555488    27A     -0.541631
      28A     -0.519414    29A     -0.511894    30A     -0.499782
      31A     -0.490014    32A     -0.481661    33A     -0.466733
      34A     -0.461066    35A     -0.442330    36A     -0.406894

  @DF-RHF Final Energy:  -387.11988892977917

   => Energetics <=

    Nuclear Repulsion Energy =            438.0659265661473114
    One-Electron Energy =               -1392.3787229281319924
    Two-Electron Energy =                 567.1929074322065389
    DFT Exchange-Correlation Energy =       0.0000000000000000
    Empirical Dispersion Energy =           0.0000000000000000
    PCM Polarization Energy =               0.0000000000000000
    EFP Energy =                            0.0000000000000000
    Total Energy =                       -387.1198889297781989

  Mulliken Charges: (a.u.)
   Center  Symbol    Alpha    Beta     Spin     Total
       1     H     0.43124  0.43124  0.00000  0.13751
       2     C     2.83321  2.83321  0.00000  0.33359
       3     C     3.20738  3.20738  0.00000 -0.41476
       4     O     4.23697  4.23697  0.00000 -0.47394
       5     C     3.16364  3.16364  0.00000 -0.32727
       6     H     0.41154  0.41154  0.00000  0.17692
       7     H     0.39981  0.39981  0.00000  0.20038
       8     C     3.15755  3.15755  0.00000 -0.31510
       9     H     0.41279  0.41279  0.00000  0.17442
      10     H     0.41099  0.41099  0.00000  0.17801
      11     C     3.15401  3.15401  0.00000 -0.30803
      12     H     0.42137  0.42137  0.00000  0.15726
      13     H     0.42160  0.42160  0.00000  0.15680
      14     C     3.15308  3.15308  0.00000 -0.30616
      15     H     0.42025  0.42025  0.00000  0.15950
      16     H     0.42159  0.42159  0.00000  0.15683
      17     C     3.15280  3.15280  0.00000 -0.30559
      18     H     0.42390  0.42390  0.00000  0.15219
      19     H     0.42160  0.42160  0.00000  0.15680
      20     C     3.24145  3.24145  0.00000 -0.48291
      21     H     0.42011  0.42011  0.00000  0.15979
      22     H     0.42243  0.42243  0.00000  0.15515
      23     H     0.42220  0.42220  0.00000  0.15560
      24     H     0.42019  0.42019  0.00000  0.15961
      25     H     0.41829  0.41829  0.00000  0.16342

   Total alpha = 36.00000, Total beta = 36.00000, Total charge =  0.00000
