  ==> Input File <==

--------------------------------------------------------------------------
set {
	reference rhf
	basis cc-pvtz
}

set_num_threads( 4 )
memory 2 gb

molecule MOL {
0 1

H	 -1.835082	 1.385983	 0.000069
C	 -1.300516	 0.441153	 -0.000028
O	 -0.006604	 0.654344	 -0.000106
O	 -1.828920	 -0.612308	 0.000113
C	 0.778803	 -0.038057	 -0.966304
C	 2.219427	 0.368679	 -0.766632
H	 0.424487	 0.219917	 -1.954164
H	 0.641823	 -1.101442	 -0.830615
H	 2.340952	 1.435905	 -0.901656
H	 2.845509	 -0.142096	 -1.488425
H	 2.559377	 0.107927	 0.227557

	symmetry c1
}
set optking {
	frozen_dihedral = ("
		5 3 2 4
	")
}

ee = optimize('scf')
oeprop('DIPOLE', 'QUADRUPOLE', 'MULLIKEN_CHARGES')
f=open( 'psi4out.xyz', 'w' )
f.write( "11  " )
f.write( str(ee) + "\n" )
f.write( MOL.save_string_xyz() )
f.close()
--------------------------------------------------------------------------

    Molecular point group: c1
  Charge       = 0
  Multiplicity = 1
  Basis Set: CC-PVTZ
  Basis Set:
  @DF-RHF Final Energy:  -266.91996776063394
    Total Energy =                       -266.9199677606339947
    Molecular point group: c1
  Basis Set: CC-PVTZ
  Basis Set:
  Basis Set: CC-PVTZ
  Basis Set:
  @DF-RHF Final Energy:  -266.91283078593955
    Total Energy =                       -266.9128307859393772
  Basis Set: CC-PVTZ
  Basis Set:
  Basis Set: CC-PVTZ
  Basis Set:
  @DF-RHF Final Energy:  -266.92059508991645
    Total Energy =                       -266.9205950899164463
  Basis Set: CC-PVTZ
  Basis Set:
  Basis Set: CC-PVTZ
  Basis Set:
  @DF-RHF Final Energy:  -266.92085523417165
    Total Energy =                       -266.9208552341715972
  Basis Set: CC-PVTZ
  Basis Set:
  Basis Set: CC-PVTZ
  Basis Set:
  @DF-RHF Final Energy:  -266.92086087122163
    Total Energy =                       -266.9208608712214641
  Basis Set: CC-PVTZ
  Basis Set:
  Charge       = 0
  Multiplicity = 1
  Basis Set: CC-PVTZ
  Basis Set:

    Orbital Energies (a.u.)
    -----------------------

    Doubly Occupied:

       1A    -20.593495     2A    -20.553029     3A    -11.372144
       4A    -11.294123     5A    -11.225569     6A     -1.472302
       7A     -1.379032     8A     -1.051647     9A     -0.897522
      10A     -0.813258    11A     -0.742652    12A     -0.690214
      13A     -0.668342    14A     -0.620268    15A     -0.564415
      16A     -0.550653    17A     -0.529654    18A     -0.511220
      19A     -0.466930    20A     -0.452495

  @DF-RHF Final Energy:  -266.92086161889034

   => Energetics <=

    Nuclear Repulsion Energy =            178.4103253386978736
    One-Electron Energy =                -717.7644429621141171
    Two-Electron Energy =                 272.4332560045260152
    DFT Exchange-Correlation Energy =       0.0000000000000000
    Empirical Dispersion Energy =           0.0000000000000000
    PCM Polarization Energy =               0.0000000000000000
    EFP Energy =                            0.0000000000000000
    Total Energy =                       -266.9208616188901715
    Molecular point group: c1
  Basis Set: CC-PVTZ
  Basis Set:

  -Total Gradient:
     Atom            X                  Y                   Z
    ------   -----------------  -----------------  -----------------
       1       -0.000000483827    -0.000013258294    -0.000008967560
       2       -0.000639678064     0.002008432959    -0.017511897931
       3        0.001609569467    -0.007822404867     0.012826266908
       4        0.000092298741     0.000483953096     0.009857749791
       5       -0.001065928144     0.005336422520    -0.005145526981
       6       -0.000003146760    -0.000002930573    -0.000022501048
       7        0.000001268783     0.000006850945     0.000006587753
       8        0.000008242584     0.000010810177    -0.000004609731
       9       -0.000003113538    -0.000005566284    -0.000000846193
      10        0.000009585943     0.000001357184     0.000002676696
      11       -0.000008615187    -0.000003666864     0.000001068296

  **** Optimization is complete! (in 6 steps) ****
    Final optimized geometry and variables:
    Molecular point group: c1

    Geometry (in Angstrom), charge = 0, multiplicity = 1:

    H           -1.862858575961     1.201854057247     0.393624167606
    C           -1.291433785566     0.278997127689     0.336477343868
    O            0.010637492390     0.523552746114     0.306632312552
    O           -1.785215789538    -0.785521306438     0.399936972087
    C            0.808628945721    -0.197182152932    -0.629630743079
    C            2.250572822469     0.194131730314    -0.413051066531
    H            0.480553339467     0.062524460836    -1.628932177720
    H            0.661384011970    -1.257483627318    -0.484634774295
    H            2.385117534278     1.259425995532    -0.549821806123
    H            2.881592080453    -0.327230996581    -1.123046436422
    H            2.569546443643    -0.067108874599     0.587699324280

  Mulliken Charges: (a.u.)
   Center  Symbol    Alpha    Beta     Spin     Total
       1     H     0.45691  0.45691  0.00000  0.08618
       2     C     2.83928  2.83928  0.00000  0.32144
       3     O     4.15538  4.15538  0.00000 -0.31076
       4     O     4.17965  4.17965  0.00000 -0.35930
       5     C     2.97106  2.97106  0.00000  0.05787
       6     C     3.13439  3.13439  0.00000 -0.26878
       7     H     0.46176  0.46176  0.00000  0.07648
       8     H     0.44783  0.44783  0.00000  0.10434
       9     H     0.45043  0.45043  0.00000  0.09914
      10     H     0.45533  0.45533  0.00000  0.08934
      11     H     0.44797  0.44797  0.00000  0.10406

   Total alpha = 20.00000, Total beta = 20.00000, Total charge = -0.00000
