  ==> Input File <==

--------------------------------------------------------------------------
set {
	reference rhf
	basis 6-31G*
}

set_num_threads( 1 )
memory 2 gb

molecule MOL {
0 1

H	 -4.031818	 -0.453427	 -0.000094
C	 -2.967712	 -0.297022	 -0.000064
C	 -2.458620	 0.992929	 0.000032
C	 -2.109895	 -1.385637	 -0.000122
H	 -3.124998	 1.836319	 0.000077
C	 -1.090278	 1.193236	 0.000070
H	 -2.506361	 -2.384847	 -0.000198
C	 -0.739812	 -1.187531	 -0.000085
H	 -0.678594	 2.184290	 0.000146
C	 -0.226438	 0.104061	 0.000012
H	 -0.072310	 -2.027032	 -0.000131
C	 1.239129	 0.373821	 0.000060
O	 1.529071	 1.666314	 0.000155
O	 2.072515	 -0.477252	 0.000014
C	 2.902313	 2.013989	 0.000331
H	 3.390974	 1.624810	 0.881548
H	 2.932274	 3.092393	 0.000061
H	 3.391391	 1.624265	 -0.880486

	symmetry c1
}
set optking {
	frozen_dihedral = ("
		12 13 15 16,
		10 12 13 15
	")
}

ee = energy('scf')
oeprop('DIPOLE', 'QUADRUPOLE', 'MULLIKEN_CHARGES')
f=open( 'psi4out.xyz', 'w' )
f.write( "18  " )
f.write( str(ee) + "\n" )
f.write( MOL.save_string_xyz() )
f.close()
--------------------------------------------------------------------------

    Molecular point group: c1

    Geometry (in Angstrom), charge = 0, multiplicity = 1:

       Center              X                  Y                   Z               Mass
    ------------   -----------------  -----------------  -----------------  -----------------
           H         -3.969242045843    -0.793390650397    -0.000141344712     1.007825032070
           C         -2.905136045843    -0.636985650397    -0.000111344712    12.000000000000
           C         -2.396044045843     0.652965349603    -0.000015344712    12.000000000000
           C         -2.047319045843    -1.725600650397    -0.000169344712    12.000000000000
           H         -3.062422045843     1.496355349603     0.000029655288     1.007825032070
           C         -1.027702045843     0.853272349603     0.000022655288    12.000000000000
           H         -2.443785045843    -2.724810650397    -0.000245344712     1.007825032070
           C         -0.677236045843    -1.527494650397    -0.000132344712    12.000000000000
           H         -0.616018045843     1.844326349603     0.000098655288     1.007825032070
           C         -0.163862045843    -0.235902650397    -0.000035344712    12.000000000000
           H         -0.009734045843    -2.366995650397    -0.000178344712     1.007825032070
           C          1.301704954157     0.033857349603     0.000012655288    12.000000000000
           O          1.591646954157     1.326350349603     0.000107655288    15.994914619560
           O          2.135090954157    -0.817215650397    -0.000033344712    15.994914619560
           C          2.964888954157     1.674025349603     0.000283655288    12.000000000000
           H          3.453549954157     1.284846349603     0.881500655288     1.007825032070
           H          2.994849954157     2.752429349603     0.000013655288     1.007825032070
           H          3.453966954157     1.284301349603    -0.880533344712     1.007825032070

  Charge       = 0
  Multiplicity = 1
  Basis Set: 6-31G*
  Basis Set:

    Orbital Energies (a.u.)
    -----------------------

    Doubly Occupied:

       1A    -20.608128     2A    -20.543739     3A    -11.377503
       4A    -11.283598     5A    -11.245609     6A    -11.245229
       7A    -11.244066     8A    -11.241560     9A    -11.237516
      10A    -11.236759    11A     -1.473215    12A     -1.363424
      13A     -1.165445    14A     -1.049114    15A     -1.024706
      16A     -0.977858    17A     -0.860027    18A     -0.834421
      19A     -0.777849    20A     -0.740562    21A     -0.684405
      22A     -0.678052    23A     -0.670715    24A     -0.632221
      25A     -0.622956    26A     -0.598583    27A     -0.584305
      28A     -0.561324    29A     -0.529537    30A     -0.519592
      31A     -0.503378    32A     -0.497510    33A     -0.459342
      34A     -0.442354    35A     -0.344754    36A     -0.341109

  @DF-RHF Final Energy:  -457.34917111286973

   => Energetics <=

    Nuclear Repulsion Energy =            493.3768662179340936
    One-Electron Energy =               -1601.0510206370472588
    Two-Electron Energy =                 650.3249833062424159
    DFT Exchange-Correlation Energy =       0.0000000000000000
    Empirical Dispersion Energy =           0.0000000000000000
    PCM Polarization Energy =               0.0000000000000000
    EFP Energy =                            0.0000000000000000
    Total Energy =                       -457.3491711128707493

  Mulliken Charges: (a.u.)
   Center  Symbol    Alpha    Beta     Spin     Total
       1     H     0.39544  0.39544  0.00000  0.20913
       2     C     3.09005  3.09005  0.00000 -0.18009
       3     C     3.10617  3.10617  0.00000 -0.21234
       4     C     3.10779  3.10779  0.00000 -0.21558
       5     H     0.39649  0.39649  0.00000  0.20702
       6     C     3.08812  3.08812  0.00000 -0.17623
       7     H     0.39523  0.39523  0.00000  0.20954
       8     C     3.08542  3.08542  0.00000 -0.17085
       9     H     0.37703  0.37703  0.00000  0.24593
      10     C     3.07889  3.07889  0.00000 -0.15778
      11     H     0.37842  0.37842  0.00000  0.24316
      12     C     2.57893  2.57893  0.00000  0.84215
      13     O     4.31629  4.31629  0.00000 -0.63257
      14     O     4.29140  4.29140  0.00000 -0.58279
      15     C     3.09199  3.09199  0.00000 -0.18398
      16     H     0.40719  0.40719  0.00000  0.18562
      17     H     0.40799  0.40799  0.00000  0.18403
      18     H     0.40718  0.40718  0.00000  0.18564

   Total alpha = 36.00000, Total beta = 36.00000, Total charge = -0.00000
