  ==> Input File <==

--------------------------------------------------------------------------
set {
	reference rhf
	basis cc-pvtz
}

set_num_threads( 4 )
memory 2 gb

molecule MOL {
0 1

H	 3.239790	 0.197611	 0.425130
N	 2.389172	 -0.323621	 0.444025
C	 1.263552	 0.494993	 0.021953
H	 2.262962	 -0.647619	 1.380205
C	 -0.016533	 -0.325589	 -0.026925
H	 1.483297	 0.874115	 -0.970505
H	 1.107830	 1.364740	 0.661699
C	 -1.280353	 0.525521	 0.047747
H	 -0.016686	 -0.912532	 -0.939714
H	 -0.014099	 -1.037598	 0.796369
C	 -2.560681	 -0.301323	 -0.007747
H	 -1.279957	 1.241025	 -0.770189
H	 -1.270445	 1.110526	 0.963468
H	 -2.617064	 -0.872870	 -0.928010
H	 -3.439525	 0.331102	 0.043462
H	 -2.609427	 -1.002736	 0.818585

	symmetry c1
}
set optking {
	frozen_dihedral = ("
		6 3 5 9
	")
}

ee = optimize('scf')
oeprop('DIPOLE', 'QUADRUPOLE', 'MULLIKEN_CHARGES')
f=open( 'psi4out.xyz', 'w' )
f.write( "16  " )
f.write( str(ee) + "\n" )
f.write( MOL.save_string_xyz() )
f.close()
--------------------------------------------------------------------------

    Molecular point group: c1
  Charge       = 0
  Multiplicity = 1
  Basis Set: CC-PVTZ
  Basis Set:
  @DF-RHF Final Energy:  -212.39841675022782
    Total Energy =                       -212.3984167502280798
    Molecular point group: c1
  Basis Set: CC-PVTZ
  Basis Set:
  Basis Set: CC-PVTZ
  Basis Set:
  @DF-RHF Final Energy:  -212.39862805331350
    Total Energy =                       -212.3986280533135300
  Basis Set: CC-PVTZ
  Basis Set:
  Basis Set: CC-PVTZ
  Basis Set:
  @DF-RHF Final Energy:  -212.39867710340093
    Total Energy =                       -212.3986771034010417
  Basis Set: CC-PVTZ
  Basis Set:
  Charge       = 0
  Multiplicity = 1
  Basis Set: CC-PVTZ
  Basis Set:

    Orbital Energies (a.u.)
    -----------------------

    Doubly Occupied:

       1A    -15.526150     2A    -11.238283     3A    -11.212763
       4A    -11.208122     5A    -11.205794     6A     -1.177581
       7A     -1.060468     8A     -0.959010     9A     -0.844620
      10A     -0.791676    11A     -0.669177    12A     -0.630647
      13A     -0.612614    14A     -0.575817    15A     -0.560950
      16A     -0.529153    17A     -0.501793    18A     -0.471180
      19A     -0.465921    20A     -0.459260    21A     -0.383659

  @DF-RHF Final Energy:  -212.39867785218053

   => Energetics <=

    Nuclear Repulsion Energy =            186.5454143624457402
    One-Electron Energy =                -655.7189044062821495
    Two-Electron Energy =                 256.7748121916557693
    DFT Exchange-Correlation Energy =       0.0000000000000000
    Empirical Dispersion Energy =           0.0000000000000000
    PCM Polarization Energy =               0.0000000000000000
    EFP Energy =                            0.0000000000000000
    Total Energy =                       -212.3986778521806400
    Molecular point group: c1
  Basis Set: CC-PVTZ
  Basis Set:

  -Total Gradient:
     Atom            X                  Y                   Z
    ------   -----------------  -----------------  -----------------
       1        0.000012211701    -0.000029427542     0.000011302648
       2       -0.000000315039     0.000080664858    -0.000022614544
       3       -0.003059396034     0.004702782260     0.000561401150
       4       -0.000012900196     0.000014928949    -0.000034691869
       5        0.002811581796    -0.004415939530     0.002165533478
       6        0.002174771567    -0.003335496274    -0.000780302091
       7       -0.000014385842    -0.000011635314    -0.000003114170
       8        0.000019149034    -0.000034480942     0.000080698276
       9       -0.001876300142     0.002961485279    -0.001958047689
      10       -0.000006901174     0.000045316053    -0.000008615487
      11       -0.000026334627     0.000003712340    -0.000022412169
      12        0.000004032991    -0.000005464142     0.000006544377
      13       -0.000021247945     0.000028526308     0.000011601476
      14        0.000001352262    -0.000011751609     0.000002792233
      15       -0.000003668339    -0.000002821528    -0.000012265762
      16       -0.000001650015     0.000009600833     0.000002190141

  **** Optimization is complete! (in 4 steps) ****
    Final optimized geometry and variables:
    Molecular point group: c1

    Geometry (in Angstrom), charge = 0, multiplicity = 1:

    H            3.265587395440     0.179172662634     0.233011237019
    N            2.412675805510    -0.334123470989     0.302140398592
    C            1.271508178012     0.488682256589    -0.073610642974
    H            2.331858693724    -0.647241915018     1.246830910551
    C           -0.008027740644    -0.342613274218    -0.093723479323
    H            1.472977575986     0.857073481877    -1.073221779364
    H            1.139659073749     1.352954562895     0.576916832987
    C           -1.273352011694     0.511624352990    -0.053465301407
    H           -0.023750145765    -0.942202995977    -0.997857214631
    H           -0.008101820873    -1.028985660041     0.748401971143
    C           -2.553422459431    -0.311619377791    -0.149294105537
    H           -1.247795295680     1.230848090688    -0.868370648281
    H           -1.287866834187     1.093802866119     0.863909576412
    H           -2.588326352593    -0.874522195165    -1.075973516975
    H           -3.432314438654     0.321893902644    -0.113795779684
    H           -2.623787650970    -1.021007586540     0.668744132186

  Mulliken Charges: (a.u.)
   Center  Symbol    Alpha    Beta     Spin     Total
       1     H     0.42969  0.42969  0.00000  0.14061
       2     N     3.69116  3.69116  0.00000 -0.38231
       3     C     3.02826  3.02826  0.00000 -0.05652
       4     H     0.43070  0.43070  0.00000  0.13860
       5     C     3.07761  3.07761  0.00000 -0.15521
       6     H     0.45594  0.45594  0.00000  0.08811
       7     H     0.46768  0.46768  0.00000  0.06465
       8     C     3.08899  3.08899  0.00000 -0.17798
       9     H     0.45220  0.45220  0.00000  0.09560
      10     H     0.45792  0.45792  0.00000  0.08417
      11     C     3.14965  3.14965  0.00000 -0.29930
      12     H     0.45525  0.45525  0.00000  0.08950
      13     H     0.45643  0.45643  0.00000  0.08713
      14     H     0.45447  0.45447  0.00000  0.09105
      15     H     0.44879  0.44879  0.00000  0.10242
      16     H     0.45525  0.45525  0.00000  0.08949

   Total alpha = 21.00000, Total beta = 21.00000, Total charge = -0.00000
