  ==> Input File <==

--------------------------------------------------------------------------
set {
	reference rhf
	basis cc-pvtz
}

set_num_threads( 4 )
memory 2 gb

molecule MOL {
0 1

H	 2.911403	 -0.262939	 1.954915
O	 1.998053	 -0.461635	 2.053598
C	 1.276541	 0.027240	 1.026034
C	 1.857823	 0.727975	 -0.019797
C	 -0.086124	 -0.189652	 1.037091
H	 2.919492	 0.896025	 -0.026814
C	 1.076517	 1.209527	 -1.050633
H	 -0.538051	 -0.730476	 1.843387
C	 -0.861704	 0.296439	 0.000000
H	 1.537245	 1.750272	 -1.854467
C	 -0.287363	 0.996837	 -1.047090
C	 -2.330689	 0.069587	 0.000000
H	 -0.897479	 1.370093	 -1.847295
O	 -2.848621	 -0.993976	 0.000000
H	 -2.934306	 0.982410	 0.000000

	symmetry c1
}
set optking {
	frozen_dihedral = ("
		11 9 12 14
	")
}

ee = optimize('scf')
oeprop('DIPOLE', 'QUADRUPOLE', 'MULLIKEN_CHARGES')
f=open( 'psi4out.xyz', 'w' )
f.write( "15  " )
f.write( str(ee) + "\n" )
f.write( MOL.save_string_xyz() )
f.close()
--------------------------------------------------------------------------

    Molecular point group: c1
  Charge       = 0
  Multiplicity = 1
  Basis Set: CC-PVTZ
  Basis Set:
  @DF-RHF Final Energy:  -418.43003870045226
    Total Energy =                       -418.4300387004523145
    Molecular point group: c1
  Basis Set: CC-PVTZ
  Basis Set:
  Basis Set: CC-PVTZ
  Basis Set:
  @DF-RHF Final Energy:  -418.42846584492838
    Total Energy =                       -418.4284658449283825
  Basis Set: CC-PVTZ
  Basis Set:
  Basis Set: CC-PVTZ
  Basis Set:
  @DF-RHF Final Energy:  -418.43050264084758
    Total Energy =                       -418.4305026408474077
  Basis Set: CC-PVTZ
  Basis Set:
  Basis Set: CC-PVTZ
  Basis Set:
  @DF-RHF Final Energy:  -418.43059278905827
    Total Energy =                       -418.4305927890587782
  Basis Set: CC-PVTZ
  Basis Set:
  Basis Set: CC-PVTZ
  Basis Set:
  @DF-RHF Final Energy:  -418.43059453105133
    Total Energy =                       -418.4305945310511561
  Basis Set: CC-PVTZ
  Basis Set:
  Charge       = 0
  Multiplicity = 1
  Basis Set: CC-PVTZ
  Basis Set:

    Orbital Energies (a.u.)
    -----------------------

    Doubly Occupied:

       1A    -20.595823     2A    -20.561336     3A    -11.331511
       4A    -11.311582     5A    -11.254471     6A    -11.249927
       7A    -11.241100     8A    -11.238685     9A    -11.237060
      10A     -1.427700    11A     -1.416136    12A     -1.172572
      13A     -1.050777    14A     -1.028393    15A     -0.901709
      16A     -0.847171    17A     -0.819612    18A     -0.741740
      19A     -0.704390    20A     -0.685711    21A     -0.657019
      22A     -0.643980    23A     -0.616262    24A     -0.607231
      25A     -0.584960    26A     -0.548232    27A     -0.538000
      28A     -0.516513    29A     -0.495993    30A     -0.427198
      31A     -0.357429    32A     -0.328812

  @DF-RHF Final Energy:  -418.43059517719115

   => Energetics <=

    Nuclear Repulsion Energy =            403.5860246665525324
    One-Electron Energy =               -1369.7551766730946383
    Two-Electron Energy =                 547.7385568293507276
    DFT Exchange-Correlation Energy =       0.0000000000000000
    Empirical Dispersion Energy =           0.0000000000000000
    PCM Polarization Energy =               0.0000000000000000
    EFP Energy =                            0.0000000000000000
    Total Energy =                       -418.4305951771914351
    Molecular point group: c1
  Basis Set: CC-PVTZ
  Basis Set:

  -Total Gradient:
     Atom            X                  Y                   Z
    ------   -----------------  -----------------  -----------------
       1       -0.000012283851     0.000019399544     0.000002308914
       2        0.000014425886     0.000000213870    -0.000023916034
       3       -0.000087300267    -0.000079010081     0.000029691005
       4       -0.000024235635     0.000102595167    -0.000042785386
       5        0.000111943772    -0.000004801058     0.000057957680
       6        0.000006118121    -0.000014257626    -0.000000493754
       7        0.000129345181    -0.000044806780     0.000016290091
       8       -0.000009550016     0.000019847087    -0.000008932455
       9       -0.001189527904     0.006185336644     0.000559294055
      10       -0.000001991494     0.000001884863     0.000006384543
      11        0.000727238704    -0.004348246962    -0.002268157937
      12        0.000197654592    -0.001639966985     0.007835211408
      13       -0.000000310096     0.000001394393     0.000001389954
      14        0.000129324464    -0.000172444507    -0.006165637253
      15        0.000009148539    -0.000027137573     0.000001395165

  **** Optimization is complete! (in 6 steps) ****
    Final optimized geometry and variables:
    Molecular point group: c1

    Geometry (in Angstrom), charge = 0, multiplicity = 1:

    H            2.933721917474    -0.444569317273     1.669547692758
    O            2.016405207047    -0.617954716688     1.780608519457
    C            1.299639507152    -0.121180630770     0.754885382534
    C            1.882473188036     0.565559476917    -0.294969796444
    C           -0.068499541438    -0.328432081739     0.772635154701
    H            2.946205020196     0.717858639295    -0.313539933180
    C            1.094002674898     1.050650213192    -1.320951951636
    H           -0.506272360321    -0.888570005679     1.574677444979
    C           -0.847615702068     0.183085744909    -0.244501153098
    H            1.554663532359     1.571872288059    -2.137919328233
    C           -0.273077152904     0.871376442294    -1.301216789457
    C           -2.318250341697    -0.088062483993    -0.268193948763
    H           -0.882582183117     1.256763286937    -2.096308004214
    O           -2.787554408254    -1.171765356610    -0.248020814181
    H           -2.959491837054     0.793575378463    -0.369220716145

  Mulliken Charges: (a.u.)
   Center  Symbol    Alpha    Beta     Spin     Total
       1     H     0.38666  0.38666  0.00000  0.22667
       2     O     4.17089  4.17089  0.00000 -0.34179
       3     C     2.83679  2.83679  0.00000  0.32641
       4     C     3.13654  3.13654  0.00000 -0.27308
       5     C     3.12840  3.12840  0.00000 -0.25680
       6     H     0.43237  0.43237  0.00000  0.13526
       7     C     3.05700  3.05700  0.00000 -0.11399
       8     H     0.41318  0.41318  0.00000  0.17364
       9     C     2.93594  2.93594  0.00000  0.12812
      10     H     0.41966  0.41966  0.00000  0.16068
      11     C     3.11529  3.11529  0.00000 -0.23058
      12     C     2.92899  2.92899  0.00000  0.14203
      13     H     0.42480  0.42480  0.00000  0.15039
      14     O     4.15786  4.15786  0.00000 -0.31571
      15     H     0.45562  0.45562  0.00000  0.08876

   Total alpha = 32.00000, Total beta = 32.00000, Total charge = -0.00000
