  ==> Input File <==

--------------------------------------------------------------------------
set {
	reference rhf
	basis cc-pvtz
}

set_num_threads( 4 )
memory 2 gb

molecule MOL {
0 1

H	 -0.939693	 0.000281	 1.681345
O	 -0.046262	 -0.000157	 1.387678
C	 -0.000837	 0.000006	 -0.025491
C	 0.506894	 -1.352724	 -0.520950
C	 -1.392980	 0.292544	 -0.581823
C	 0.972398	 1.110044	 -0.398074
H	 0.586934	 -1.370599	 -1.601722
H	 -0.169470	 -2.149278	 -0.225817
H	 1.481486	 -1.564892	 -0.099503
H	 -1.382470	 0.334955	 -1.664818
H	 -2.095494	 -0.481392	 -0.287596
H	 -1.756921	 1.239475	 -0.203229
H	 1.075163	 1.188962	 -1.473945
H	 1.947610	 0.912024	 0.028497
H	 0.622266	 2.059799	 -0.013902

	symmetry c1
}
set optking {
	frozen_dihedral = ("
		4 3 2 1
	")
}

ee = optimize('scf')
oeprop('DIPOLE', 'QUADRUPOLE', 'MULLIKEN_CHARGES')
f=open( 'psi4out.xyz', 'w' )
f.write( "15  " )
f.write( str(ee) + "\n" )
f.write( MOL.save_string_xyz() )
f.close()
--------------------------------------------------------------------------

    Molecular point group: c1
  Charge       = 0
  Multiplicity = 1
  Basis Set: CC-PVTZ
  Basis Set:
  @DF-RHF Final Energy:  -232.24452057722777
    Total Energy =                       -232.2445205772279451
    Molecular point group: c1
  Basis Set: CC-PVTZ
  Basis Set:
  Basis Set: CC-PVTZ
  Basis Set:
  @DF-RHF Final Energy:  -232.24480710083083
    Total Energy =                       -232.2448071008309967
  Basis Set: CC-PVTZ
  Basis Set:
  Basis Set: CC-PVTZ
  Basis Set:
  @DF-RHF Final Energy:  -232.24488307332018
    Total Energy =                       -232.2448830733202954
  Basis Set: CC-PVTZ
  Basis Set:
  Basis Set: CC-PVTZ
  Basis Set:
  @DF-RHF Final Energy:  -232.24488410631983
    Total Energy =                       -232.2448841063198302
  Basis Set: CC-PVTZ
  Basis Set:
  Charge       = 0
  Multiplicity = 1
  Basis Set: CC-PVTZ
  Basis Set:

    Orbital Energies (a.u.)
    -----------------------

    Doubly Occupied:

       1A    -20.540393     2A    -11.281108     3A    -11.216151
       4A    -11.203658     5A    -11.203211     6A     -1.362906
       7A     -1.065739     8A     -0.946381     9A     -0.936546
      10A     -0.778592    11A     -0.671962    12A     -0.624544
      13A     -0.622763    14A     -0.576440    15A     -0.557342
      16A     -0.534745    17A     -0.517044    18A     -0.511363
      19A     -0.503145    20A     -0.458498    21A     -0.426486

  @DF-RHF Final Energy:  -232.24488450150193

   => Energetics <=

    Nuclear Repulsion Energy =            200.5796785888666136
    One-Electron Energy =                -712.5710952139161236
    Two-Electron Energy =                 279.7465321235476381
    DFT Exchange-Correlation Energy =       0.0000000000000000
    Empirical Dispersion Energy =           0.0000000000000000
    PCM Polarization Energy =               0.0000000000000000
    EFP Energy =                            0.0000000000000000
    Total Energy =                       -232.2448845015018719
    Molecular point group: c1
  Basis Set: CC-PVTZ
  Basis Set:

  -Total Gradient:
     Atom            X                  Y                   Z
    ------   -----------------  -----------------  -----------------
       1       -0.000006347127     0.001034284745     0.000027337866
       2        0.000200459486    -0.001214693720    -0.000052811207
       3       -0.000781768637    -0.000043612194     0.000015909518
       4        0.000585036966     0.000230049132    -0.000000492578
       5       -0.000014460476    -0.000011066423     0.000004062545
       6        0.000005385506     0.000008153435     0.000002967238
       7        0.000001215188    -0.000003257856     0.000003786815
       8       -0.000002561919     0.000002900262     0.000002547091
       9        0.000007965122    -0.000003416762     0.000000405206
      10        0.000000698235    -0.000007879457    -0.000004815696
      11       -0.000003073326     0.000012341924     0.000009178694
      12        0.000010012855     0.000000672015    -0.000007630155
      13        0.000001478541    -0.000002452774    -0.000001831306
      14       -0.000003161257     0.000001666418     0.000005880355
      15       -0.000000879156    -0.000003688745    -0.000004494391

  **** Optimization is complete! (in 5 steps) ****
    Final optimized geometry and variables:
    Molecular point group: c1

    Geometry (in Angstrom), charge = 0, multiplicity = 1:

    H           -0.921841330097    -0.046160283690     1.702159791930
    O           -0.036437172860    -0.039427106822     1.391566540562
    C            0.001447869877    -0.001210395139    -0.025125383024
    C            0.507919329438    -1.353799895733    -0.519020656386
    C           -1.390053006240     0.291667620317    -0.577940670173
    C            0.977186797985     1.106274534083    -0.408920404189
    H            0.606285215479    -1.367647295883    -1.598815289557
    H           -0.174028034982    -2.144167989082    -0.227273901622
    H            1.475291571691    -1.568400178926    -0.082742284733
    H           -1.376997283091     0.335923136445    -1.659855516607
    H           -2.091094242396    -0.484501199455    -0.286666174038
    H           -1.756331194947     1.242710879553    -0.206899081437
    H            1.103649859313     1.161913498270    -1.484245947720
    H            1.944293460587     0.920164049003     0.041105253549
    H            0.620035585160     2.064719836474    -0.052498266235

  Mulliken Charges: (a.u.)
   Center  Symbol    Alpha    Beta     Spin     Total
       1     H     0.39204  0.39204  0.00000  0.21591
       2     O     4.21509  4.21509  0.00000 -0.43019
       3     C     2.88017  2.88017  0.00000  0.23966
       4     C     3.14056  3.14056  0.00000 -0.28112
       5     C     3.16259  3.16259  0.00000 -0.32518
       6     C     3.13962  3.13962  0.00000 -0.27924
       7     H     0.45925  0.45925  0.00000  0.08149
       8     H     0.45434  0.45434  0.00000  0.09132
       9     H     0.44817  0.44817  0.00000  0.10366
      10     H     0.45051  0.45051  0.00000  0.09899
      11     H     0.45071  0.45071  0.00000  0.09857
      12     H     0.44686  0.44686  0.00000  0.10627
      13     H     0.45962  0.45962  0.00000  0.08075
      14     H     0.44763  0.44763  0.00000  0.10475
      15     H     0.45282  0.45282  0.00000  0.09436

   Total alpha = 21.00000, Total beta = 21.00000, Total charge = -0.00000
