                              Psi4 1.0.54 Driver

  ==> Input File <==

--------------------------------------------------------------------------
set {
	reference rhf
	basis cc-pvtz
}

set_num_threads( 4 )
memory 2 gb

molecule MOL {
0 1

H	 -0.097867	 -3.730071	 -0.124227
O	 0.243582	 -2.849940	 -0.074050
C	 -0.779682	 -2.000506	 -0.077824
C	 -0.318151	 -0.570512	 0.000144
O	 -1.902096	 -2.367539	 -0.136494
C	 -1.454884	 0.441630	 -0.000560
H	 0.290437	 -0.478876	 0.894076
H	 0.356359	 -0.406013	 -0.834048
C	 -2.822577	 -0.232186	 0.000063
H	 -1.359760	 1.084704	 -0.867077
H	 -1.359641	 1.085996	 0.864983
H	 -2.954352	 -0.858985	 -0.875745
H	 -3.615886	 0.505352	 0.000019
H	 -2.953878	 -0.858359	 0.876394

	symmetry c1
}
set optking {
	frozen_dihedral = ("
		7 4 6 10
	")
}

ee,wfn = optimize('scf', return_wfn=True)
oeprop( wfn, 'DIPOLE', 'QUADRUPOLE', 'MULLIKEN_CHARGES')
f=open( 'psi4out.xyz', 'w' )
f.write( "14  " )
f.write( str(ee) + "\n" )
f.write( MOL.save_string_xyz() )
f.close()
--------------------------------------------------------------------------

    Molecular point group: c1
  Charge       = 0
  Multiplicity = 1
  Basis Set: CC-PVTZ
  Basis Set:
  @DF-RHF Final Energy:  -305.96436307082718
    Total Energy =                       -305.9643630708274031
    Molecular point group: c1
  Basis Set: CC-PVTZ
  Basis Set:
  Basis Set: CC-PVTZ
  Basis Set:
  @DF-RHF Final Energy:  -305.98323548890482
    Total Energy =                       -305.9832354889049384
  Basis Set: CC-PVTZ
  Basis Set:
  Basis Set: CC-PVTZ
  Basis Set:
  @DF-RHF Final Energy:  -305.98686099898453
    Total Energy =                       -305.9868609989845254
  Basis Set: CC-PVTZ
  Basis Set:
  Basis Set: CC-PVTZ
  Basis Set:
  @DF-RHF Final Energy:  -305.98496165336638
    Total Energy =                       -305.9849616533663266
  Basis Set: CC-PVTZ
  Basis Set:
  @DF-RHF Final Energy:  -305.98831191115119
    Total Energy =                       -305.9883119111512428
  @DF-RHF Final Energy:  -305.98861175363061
    Total Energy =                       -305.9886117536305505
  @DF-RHF Final Energy:  -305.98867916214846
    Total Energy =                       -305.9886791621481734
  @DF-RHF Final Energy:  -305.98878770889104
    Total Energy =                       -305.9887877088909818
  @DF-RHF Final Energy:  -305.98856547874533
    Total Energy =                       -305.9885654787451585
  @DF-RHF Final Energy:  -305.98912492508487
    Total Energy =                       -305.9891249250850933
  @DF-RHF Final Energy:  -305.98941639052487
    Total Energy =                       -305.9894163905249798
  @DF-RHF Final Energy:  -305.98963796105505
    Total Energy =                       -305.9896379610549388
  @DF-RHF Final Energy:  -305.98994060406869
    Total Energy =                       -305.9899406040686927
  @DF-RHF Final Energy:  -305.99014020823648
    Total Energy =                       -305.9901402082364825
  @DF-RHF Final Energy:  -305.99033016816304
    Total Energy =                       -305.9903301681631547
  @DF-RHF Final Energy:  -305.99054087497132
    Total Energy =                       -305.9905408749712024
  @DF-RHF Final Energy:  -305.99074059611780
    Total Energy =                       -305.9907405961176892
  @DF-RHF Final Energy:  -305.99079691649024
    Total Energy =                       -305.9907969164902397
  @DF-RHF Final Energy:  -305.99085345997298
    Total Energy =                       -305.9908534599729819
  @DF-RHF Final Energy:  -305.99090617351607
    Total Energy =                       -305.9909061735163505
  @DF-RHF Final Energy:  -305.99095614828803
    Total Energy =                       -305.9909561482878644
  @DF-RHF Final Energy:  -305.99108600667728
    Total Energy =                       -305.9910860066772216
  @DF-RHF Final Energy:  -305.99118652950483
    Total Energy =                       -305.9911865295047164
  @DF-RHF Final Energy:  -305.99124328008156
    Total Energy =                       -305.9912432800814486
  @DF-RHF Final Energy:  -305.99127132655866
    Total Energy =                       -305.9912713265584898
  @DF-RHF Final Energy:  -305.99130386895888
    Total Energy =                       -305.9913038689587097
  @DF-RHF Final Energy:  -305.99132098464560
    Total Energy =                       -305.9913209846455970
  Basis Set: CC-PVTZ
  Basis Set:
  @DF-RHF Final Energy:  -305.99134405750334
    Total Energy =                       -305.9913440575033974
  Basis Set: CC-PVTZ
  Basis Set:
  Basis Set: CC-PVTZ
  Basis Set:
  @DF-RHF Final Energy:  -305.99138619118298
    Total Energy =                       -305.9913861911829827
  Basis Set: CC-PVTZ
  Basis Set:
  Basis Set: CC-PVTZ
  Basis Set:
  @DF-RHF Final Energy:  -305.99139748975620
    Total Energy =                       -305.9913974897561957
  Basis Set: CC-PVTZ
  Basis Set:
  Charge       = 0
  Multiplicity = 1
  Basis Set: CC-PVTZ
  Basis Set:

    Orbital Energies (a.u.)
    -----------------------

    Doubly Occupied:

       1A    -20.605360     2A    -20.538614     3A    -11.373074
       4A    -11.237946     5A    -11.235092     6A    -11.214808
       7A     -1.477678     8A     -1.368000     9A     -1.080943
      10A     -0.978289    11A     -0.865825    12A     -0.798990
      13A     -0.705877    14A     -0.679438    15A     -0.653156
      16A     -0.635563    17A     -0.588971    18A     -0.574530
      19A     -0.558884    20A     -0.510542    21A     -0.498435
      22A     -0.482337    23A     -0.474940    24A     -0.441261

  @DF-RHF Final Energy:  -305.99139888619266

   => Energetics <=

    Nuclear Repulsion Energy =            247.2031915384875163
    One-Electron Energy =                -907.2320777713656526
    Two-Electron Energy =                 354.0374873466855661
    DFT Exchange-Correlation Energy =       0.0000000000000000
    Empirical Dispersion Energy =           0.0000000000000000
    PCM Polarization Energy =               0.0000000000000000
    EFP Energy =                            0.0000000000000000
    Total Energy =                       -305.9913988861925418
    Molecular point group: c1
  Basis Set: CC-PVTZ
  Basis Set:

  -Total Gradient:
     Atom            X                  Y                   Z
    ------   -----------------  -----------------  -----------------
       1       -0.000011810629    -0.000010614191     0.000000040306
       2        0.000059219918     0.000078155489    -0.000120729897
       3       -0.000100173713    -0.000065650284     0.000192630159
       4       -0.000396772091    -0.000415235162     0.000479599464
       5        0.000020267125    -0.000040588675    -0.000092422465
       6       -0.000324382295    -0.000463804987    -0.000538854763
       7        0.000413889719     0.000475850960    -0.000315471072
       8        0.000013798230    -0.000009276065     0.000002461681
       9       -0.000004423886     0.000033815005     0.000034384858
      10        0.000355473276     0.000454190323     0.000348056468
      11       -0.000017266898    -0.000012383382     0.000023357203
      12       -0.000007977838    -0.000024603130    -0.000021399420
      13        0.000001957276     0.000011864919    -0.000001530400
      14       -0.000001798191    -0.000011720824     0.000009877872

  **** Optimization is complete! (in 31 steps) ****
    Final optimized geometry and variables:
    Molecular point group: c1

    Geometry (in Angstrom), charge = 0, multiplicity = 1:

    H           -0.042456066419    -2.114900008728     1.078530843558
    O            0.209545992080    -1.208930909834     1.179099200730
    C            0.505873877212    -0.720891406608    -0.021731036339
    C            0.897781067470     0.731888452927     0.018693316690
    O            0.453890125264    -1.386093533217    -0.998855195689
    C           -0.294707323899     1.723608173174    -0.117155194252
    H            1.426253846786     0.914110272773     0.943520466687
    H            1.589929506303     0.879023436231    -0.796603267296
    C           -1.693058097649     1.110937771987    -0.155200816792
    H           -0.145512392417     2.307108770630    -1.016457586912
    H           -0.245035780303     2.424026714467     0.706999119139
    H           -1.808221381474     0.432170331524    -0.991453096974
    H           -2.433322639421     1.894737927840    -0.260861644369
    H           -1.915944338624     0.567250717673     0.754787978257

  Mulliken Charges: (a.u.)
   Center  Symbol    Alpha    Beta     Spin     Total
       1     H     0.37992  0.37992  0.00000  0.24016
       2     O     4.16680  4.16680  0.00000 -0.33361
       3     C     2.79292  2.79292  0.00000  0.41416
       4     C     3.09873  3.09873  0.00000 -0.19746
       5     O     4.20071  4.20071  0.00000 -0.40142
       6     C     3.08657  3.08657  0.00000 -0.17314
       7     H     0.44082  0.44082  0.00000  0.11835
       8     H     0.43653  0.43653  0.00000  0.12694
       9     C     3.16028  3.16028  0.00000 -0.32055
      10     H     0.44737  0.44737  0.00000  0.10527
      11     H     0.44891  0.44891  0.00000  0.10218
      12     H     0.44498  0.44498  0.00000  0.11004
      13     H     0.44624  0.44624  0.00000  0.10752
      14     H     0.44922  0.44922  0.00000  0.10156

   Total alpha = 24.00000, Total beta = 24.00000, Total charge = -0.00000

*** Psi4 exiting successfully. Buy a developer a beer!
