                              Psi4 1.0.54 Driver

  ==> Input File <==

--------------------------------------------------------------------------
set {
	reference rhf
	basis cc-pvtz
}

set_num_threads( 4 )
memory 2 gb

molecule MOL {
0 1

H	 2.427871	 -0.135970	 -0.835693
C	 1.804491	 -0.767375	 -0.212890
N	 0.526300	 -0.128137	 0.000000
H	 2.312125	 -0.897837	 0.734384
H	 1.731641	 -1.742650	 -0.698795
C	 -0.247113	 0.037112	 -1.209233
H	 -0.001344	 -0.639054	 0.673955
H	 -0.996493	 -0.743733	 -1.271440
H	 0.397975	 -0.057351	 -2.073512
H	 -0.763794	 0.997171	 -1.271673

	symmetry c1
}
set optking {
	frozen_dihedral = ("
		2 3 6 8
	")
}

ee,wfn = optimize('scf', return_wfn=True)
oeprop( wfn, 'DIPOLE', 'QUADRUPOLE', 'MULLIKEN_CHARGES')
f=open( 'psi4out.xyz', 'w' )
f.write( "10  " )
f.write( str(ee) + "\n" )
f.write( MOL.save_string_xyz() )
f.close()
--------------------------------------------------------------------------

    Molecular point group: c1
  Charge       = 0
  Multiplicity = 1
  Basis Set: CC-PVTZ
  Basis Set:
  @DF-RHF Final Energy:  -134.28798112906910
    Total Energy =                       -134.2879811290690952
    Molecular point group: c1
  Basis Set: CC-PVTZ
  Basis Set:
  Basis Set: CC-PVTZ
  Basis Set:
  @DF-RHF Final Energy:  -134.28888877821004
    Total Energy =                       -134.2888887782101790
  Basis Set: CC-PVTZ
  Basis Set:
  Basis Set: CC-PVTZ
  Basis Set:
  @DF-RHF Final Energy:  -134.28899644706053
    Total Energy =                       -134.2889964470605833
  Basis Set: CC-PVTZ
  Basis Set:
  Basis Set: CC-PVTZ
  Basis Set:
  @DF-RHF Final Energy:  -134.28900132093003
    Total Energy =                       -134.2890013209301401
  Basis Set: CC-PVTZ
  Basis Set:
  Charge       = 0
  Multiplicity = 1
  Basis Set: CC-PVTZ
  Basis Set:

    Orbital Energies (a.u.)
    -----------------------

    Doubly Occupied:

       1A    -15.528887     2A    -11.234352     3A    -11.233802
       4A     -1.196195     5A     -0.948040     6A     -0.855287
       7A     -0.661703     8A     -0.608025     9A     -0.589307
      10A     -0.543895    11A     -0.513359    12A     -0.507253
      13A     -0.357048

  @DF-RHF Final Energy:  -134.28900204398283

   => Energetics <=

    Nuclear Repulsion Energy =             84.5005974716977732
    One-Electron Energy =                -348.0248953773545395
    Two-Electron Energy =                 129.2352958616739613
    DFT Exchange-Correlation Energy =       0.0000000000000000
    Empirical Dispersion Energy =           0.0000000000000000
    PCM Polarization Energy =               0.0000000000000000
    EFP Energy =                            0.0000000000000000
    Total Energy =                       -134.2890020439828334
    Molecular point group: c1
  Basis Set: CC-PVTZ
  Basis Set:

  -Total Gradient:
     Atom            X                  Y                   Z
    ------   -----------------  -----------------  -----------------
       1       -0.000004463083     0.000000921196     0.000002896317
       2        0.001047657255     0.002101345878    -0.000347821770
       3       -0.002021315096    -0.002503700750     0.000982722277
       4       -0.000016301523     0.000009130608    -0.000003903065
       5       -0.000011628893     0.000014043853     0.000012764962
       6        0.003010020592    -0.001425023347    -0.002251423882
       7        0.000001905662    -0.000002523968     0.000004962895
       8       -0.001998981947     0.001808637149     0.001548771299
       9       -0.000009194994     0.000004555703     0.000037825625
      10        0.000002302028    -0.000007386322     0.000013205344

  **** Optimization is complete! (in 5 steps) ****
    Final optimized geometry and variables:
    Molecular point group: c1

    Geometry (in Angstrom), charge = 0, multiplicity = 1:

    H            1.757881929895     0.160631872504    -0.295821362972
    C            1.113230771366    -0.469429702739     0.305293379048
    N           -0.172286669995     0.168028835578     0.471986479556
    H            1.585342825376    -0.590317464070     1.272320837710
    H            1.067466321503    -1.450506757131    -0.172331150723
    C           -0.935672437304     0.352573312816    -0.748614055707
    H           -0.713167695914    -0.303683181229     1.160847653244
    H           -1.708649861838    -0.400598551241    -0.886944385229
    H           -0.280543668914     0.322513220134    -1.609837773917
    H           -1.428675175660     1.318698379753    -0.747635938058

  Mulliken Charges: (a.u.)
   Center  Symbol    Alpha    Beta     Spin     Total
       1     H     0.45691  0.45691  0.00000  0.08618
       2     C     3.08093  3.08093  0.00000 -0.16186
       3     N     3.63534  3.63534  0.00000 -0.27069
       4     H     0.45321  0.45321  0.00000  0.09357
       5     H     0.47495  0.47495  0.00000  0.05009
       6     C     3.07952  3.07952  0.00000 -0.15904
       7     H     0.43883  0.43883  0.00000  0.12234
       8     H     0.46536  0.46536  0.00000  0.06928
       9     H     0.45999  0.45999  0.00000  0.08002
      10     H     0.45495  0.45495  0.00000  0.09011

   Total alpha = 13.00000, Total beta = 13.00000, Total charge =  0.00000

*** Psi4 exiting successfully. Buy a developer a beer!
