  ==> Input File <==

--------------------------------------------------------------------------
set {
	reference rhf
	basis 6-31G*
}

set_num_threads( 4 )
memory 2 gb

molecule MOL {
0 1

H	 -3.420663	 1.227371	 -1.044276
O	 -3.452007	 0.283848	 -0.965577
C	 -3.181085	 -0.079926	 0.364119
C	 -1.765924	 0.277073	 0.805136
H	 -3.327791	 -1.152017	 0.410903
H	 -3.905698	 0.375695	 1.036898
C	 -0.863838	 -0.941111	 1.007091
H	 -1.321892	 0.944675	 0.066147
H	 -1.829439	 0.848298	 1.729739
C	 0.559949	 -0.570712	 1.427582
H	 -0.836005	 -1.520225	 0.089179
H	 -1.306295	 -1.588194	 1.762677
C	 1.455288	 -1.795468	 1.633559
H	 0.992421	 0.083134	 0.674009
H	 0.526267	 0.007293	 2.350284
C	 2.866946	 -1.480118	 2.141429
H	 1.526187	 -2.350273	 0.699289
H	 0.973730	 -2.462548	 2.345545
C	 3.736991	 -0.697101	 1.156385
H	 3.365312	 -2.417348	 2.377055
H	 2.797699	 -0.930421	 3.078041
H	 3.813986	 -1.217267	 0.205261
H	 4.742789	 -0.571847	 1.545640
H	 3.339069	 0.293112	 0.960680

	symmetry c1
}
set optking {
	frozen_dihedral = ("
		7 4 3 2
	")
}

ee = optimize('scf')
oeprop('DIPOLE', 'QUADRUPOLE', 'MULLIKEN_CHARGES')
f=open( 'psi4out.xyz', 'w' )
f.write( "24  " )
f.write( str(ee) + "\n" )
f.write( MOL.save_string_xyz() )
f.close()
--------------------------------------------------------------------------

    Molecular point group: c1
  Charge       = 0
  Multiplicity = 1
  Basis Set: 6-31G*
  Basis Set:
  @DF-RHF Final Energy:  -349.24124973342049
    Total Energy =                       -349.2412497334202044
    Molecular point group: c1
  Basis Set: 6-31G*
  Basis Set:
  Basis Set: 6-31G*
  Basis Set:
  @DF-RHF Final Energy:  -349.24153703876232
    Total Energy =                       -349.2415370387623170
  Basis Set: 6-31G*
  Basis Set:
  Basis Set: 6-31G*
  Basis Set:
  @DF-RHF Final Energy:  -349.24161066425671
    Total Energy =                       -349.2416106642565978
  Basis Set: 6-31G*
  Basis Set:
  Basis Set: 6-31G*
  Basis Set:
  @DF-RHF Final Energy:  -349.24160692356651
    Total Energy =                       -349.2416069235666782
  Basis Set: 6-31G*
  Basis Set:
  Basis Set: 6-31G*
  Basis Set:
  @DF-RHF Final Energy:  -349.24161220807014
    Total Energy =                       -349.2416122080702507
  Basis Set: 6-31G*
  Basis Set:
  Basis Set: 6-31G*
  Basis Set:
  @DF-RHF Final Energy:  -349.24161098817802
    Total Energy =                       -349.2416109881780812
  Basis Set: 6-31G*
  Basis Set:
  Basis Set: 6-31G*
  Basis Set:
  @DF-RHF Final Energy:  -349.24161238530218
    Total Energy =                       -349.2416123853023464
  Basis Set: 6-31G*
  Basis Set:
  Charge       = 0
  Multiplicity = 1
  Basis Set: 6-31G*
  Basis Set:

    Orbital Energies (a.u.)
    -----------------------

    Doubly Occupied:

       1A    -20.551221     2A    -11.266988     3A    -11.216528
       4A    -11.215942     5A    -11.215108     6A    -11.213938
       7A    -11.213157     8A    -11.207887     9A     -1.357753
      10A     -1.090268    11A     -1.048606    12A     -0.984203
      13A     -0.913605    14A     -0.850957    15A     -0.804971
      16A     -0.777573    17A     -0.685110    18A     -0.647138
      19A     -0.624062    20A     -0.617552    21A     -0.596305
      22A     -0.584208    23A     -0.564706    24A     -0.533157
      25A     -0.519127    26A     -0.516405    27A     -0.490546
      28A     -0.479173    29A     -0.465327    30A     -0.460936
      31A     -0.457642    32A     -0.453086    33A     -0.415842

  @DF-RHF Final Energy:  -349.24161237771955

   => Energetics <=

    Nuclear Repulsion Energy =            380.9532742708806836
    One-Electron Energy =               -1228.3117245766156884
    Two-Electron Energy =                 498.1168379280152863
    DFT Exchange-Correlation Energy =       0.0000000000000000
    Empirical Dispersion Energy =           0.0000000000000000
    PCM Polarization Energy =               0.0000000000000000
    EFP Energy =                            0.0000000000000000
    Total Energy =                       -349.2416123777197186
    Molecular point group: c1
  Basis Set: 6-31G*
  Basis Set:

  -Total Gradient:
     Atom            X                  Y                   Z
    ------   -----------------  -----------------  -----------------
       1       -0.000000261820     0.000000095965    -0.000007675855
       2       -0.000501227526     0.001384551819     0.000464631360
       3        0.000514987640    -0.001907019268    -0.000123156295
       4        0.000386978623     0.000608604012    -0.001698424004
       5       -0.000000405025    -0.000002638649     0.000009701105
       6        0.000002668619    -0.000003738476     0.000005526574
       7       -0.000403867763    -0.000077435065     0.001354076029
       8       -0.000003118348    -0.000000941943     0.000001521080
       9        0.000006201884     0.000004880837     0.000003701469
      10        0.000002870222    -0.000002178870    -0.000007994146
      11        0.000002083705    -0.000002251420    -0.000003397250
      12        0.000005501901    -0.000003107715     0.000001625189
      13       -0.000005944671    -0.000002531377     0.000005226281
      14        0.000002465352     0.000000673374    -0.000003827889
      15       -0.000000947190    -0.000001255224    -0.000003102907
      16       -0.000000667225     0.000000682163     0.000002319333
      17        0.000000119298     0.000000518157     0.000000929664
      18       -0.000005009947     0.000000562435    -0.000000276632
      19       -0.000002119062     0.000001847383    -0.000000304022
      20       -0.000001271086     0.000000462604    -0.000003346087
      21        0.000002643823    -0.000002488396     0.000002684314
      22        0.000000940834    -0.000000356199     0.000001546590
      23       -0.000000372417     0.000001808343     0.000000459974
      24       -0.000002249811     0.000001255504    -0.000002443875

  **** Optimization is complete! (in 8 steps) ****
    Final optimized geometry and variables:
    Molecular point group: c1

    Geometry (in Angstrom), charge = 0, multiplicity = 1:

    H           -3.315504119176     1.826639558140    -1.954117033789
    O           -3.330186142352     0.882823904543    -1.880566083339
    C           -3.058938266318     0.517659182130    -0.550378673121
    C           -1.631464208747     0.878938842258    -0.097783898898
    H           -3.210583903847    -0.553043379114    -0.509185024880
    H           -3.793611345239     0.967921881630     0.113588867520
    C           -0.727690267715    -0.339704383102     0.104928376665
    H           -1.191751311419     1.535455143309    -0.844076015042
    H           -1.669290996982     1.446796141202     0.829310047069
    C            0.696947282304     0.026736354284     0.523251323099
    H           -0.698943358074    -0.916565940094    -0.817426582854
    H           -1.169143611566    -0.989380355154     0.858892784476
    C            1.591006153315    -1.199225510299     0.727843575630
    H            1.127966776434     0.680323414246    -0.230885854519
    H            0.663923673665     0.604200690272     1.446322823061
    C            3.003378379987    -0.885054457055     1.234430843232
    H            1.660901205606    -1.753447887706    -0.206782173891
    H            1.109706084762    -1.866297889339     1.440203263958
    C            3.872539278750    -0.101671530350     0.248952264187
    H            3.501286069940    -1.822810048462     1.468649746286
    H            2.935315786071    -0.336194922189     2.171622592587
    H            3.948353997471    -0.621118695787    -0.702585692418
    H            4.878731902591     0.022855511052     0.637360276956
    H            3.474772766111     0.888764043622     0.054291751920

  Mulliken Charges: (a.u.)
   Center  Symbol    Alpha    Beta     Spin     Total
       1     H     0.28359  0.28359  0.00000  0.43282
       2     O     4.36979  4.36979  0.00000 -0.73957
       3     C     2.99790  2.99790  0.00000  0.00421
       4     C     3.16971  3.16971  0.00000 -0.33941
       5     H     0.41305  0.41305  0.00000  0.17390
       6     H     0.42930  0.42930  0.00000  0.14139
       7     C     3.15750  3.15750  0.00000 -0.31500
       8     H     0.41818  0.41818  0.00000  0.16364
       9     H     0.42234  0.42234  0.00000  0.15532
      10     C     3.15434  3.15434  0.00000 -0.30868
      11     H     0.41688  0.41688  0.00000  0.16625
      12     H     0.42351  0.42351  0.00000  0.15297
      13     C     3.15259  3.15259  0.00000 -0.30519
      14     H     0.42082  0.42082  0.00000  0.15836
      15     H     0.42491  0.42491  0.00000  0.15017
      16     C     3.15233  3.15233  0.00000 -0.30467
      17     H     0.42328  0.42328  0.00000  0.15343
      18     H     0.42255  0.42255  0.00000  0.15490
      19     C     3.24115  3.24115  0.00000 -0.48230
      20     H     0.42094  0.42094  0.00000  0.15812
      21     H     0.42373  0.42373  0.00000  0.15254
      22     H     0.42188  0.42188  0.00000  0.15623
      23     H     0.41940  0.41940  0.00000  0.16121
      24     H     0.42032  0.42032  0.00000  0.15936

   Total alpha = 33.00000, Total beta = 33.00000, Total charge = -0.00000
