  ==> Input File <==

--------------------------------------------------------------------------
set {
	reference rhf
	basis 6-31G*
}

set_num_threads( 1 )
memory 2 gb

molecule MOL {
0 1

H	 -2.493912	 -2.553549	 0.306048
C	 -2.865315	 -1.680068	 -0.244146
C	 -2.689389	 -0.359936	 0.462192
O	 -3.362673	 -1.815730	 -1.314651
C	 -1.244692	 -0.128803	 0.926609
H	 -3.026541	 0.429611	 -0.199360
H	 -3.347120	 -0.371623	 1.330471
C	 -0.252658	 0.041456	 -0.226725
H	 -1.222933	 0.756707	 1.554846
H	 -0.932088	 -0.957194	 1.560490
C	 1.180775	 0.282413	 0.250794
H	 -0.572165	 0.873265	 -0.851110
H	 -0.274412	 -0.839580	 -0.865351
C	 2.148627	 -0.814315	 -0.201312
H	 1.516199	 1.249228	 -0.115937
H	 1.192670	 0.346017	 1.338083
C	 3.580890	 -0.659131	 0.322722
H	 2.166869	 -0.852443	 -1.289387
H	 1.762857	 -1.776509	 0.128956
C	 4.324889	 0.564933	 -0.213704
H	 4.142010	 -1.551473	 0.056605
H	 3.564836	 -0.624694	 1.410140
H	 4.342616	 0.565491	 -1.300421
H	 3.866655	 1.493402	 0.110242
H	 5.353900	 0.572371	 0.132816

	symmetry c1
}
set optking {
	frozen_dihedral = ("
		6 3 5 8,
		6 3 2 4,
		3 5 8 12,
		8 11 14 18,
		20 17 14 18
	")
}

ee = energy('scf')
oeprop('DIPOLE', 'QUADRUPOLE', 'MULLIKEN_CHARGES')
f=open( 'psi4out.xyz', 'w' )
f.write( "25  " )
f.write( str(ee) + "\n" )
f.write( MOL.save_string_xyz() )
f.close()
--------------------------------------------------------------------------

    Molecular point group: c1

    Geometry (in Angstrom), charge = 0, multiplicity = 1:

       Center              X                  Y                   Z               Mass
    ------------   -----------------  -----------------  -----------------  -----------------
           H         -2.592076184435    -2.043479273852     0.343337703404     1.007825032070
           C         -2.963479184435    -1.169998273852    -0.206856296596    12.000000000000
           C         -2.787553184435     0.150133726148     0.499481703404    12.000000000000
           O         -3.460837184435    -1.305660273852    -1.277361296596    15.994914619560
           C         -1.342856184435     0.381266726148     0.963898703404    12.000000000000
           H         -3.124705184435     0.939680726148    -0.162070296596     1.007825032070
           H         -3.445284184435     0.138446726148     1.367760703404     1.007825032070
           C         -0.350822184435     0.551525726148    -0.189435296596    12.000000000000
           H         -1.321097184435     1.266776726148     1.592135703404     1.007825032070
           H         -1.030252184435    -0.447124273852     1.597779703404     1.007825032070
           C          1.082610815565     0.792482726148     0.288083703404    12.000000000000
           H         -0.670329184435     1.383334726148    -0.813820296596     1.007825032070
           H         -0.372576184435    -0.329510273852    -0.828061296596     1.007825032070
           C          2.050462815565    -0.304245273852    -0.164022296596    12.000000000000
           H          1.418034815565     1.759297726148    -0.078647296596     1.007825032070
           H          1.094505815565     0.856086726148     1.375372703404     1.007825032070
           C          3.482725815565    -0.149061273852     0.360011703404    12.000000000000
           H          2.068704815565    -0.342373273852    -1.252097296596     1.007825032070
           H          1.664692815565    -1.266439273852     0.166245703404     1.007825032070
           C          4.226724815565     1.075002726148    -0.176414296596    12.000000000000
           H          4.043845815565    -1.041403273852     0.093894703404     1.007825032070
           H          3.466671815565    -0.114624273852     1.447429703404     1.007825032070
           H          4.244451815565     1.075560726148    -1.263131296596     1.007825032070
           H          3.768490815565     2.003471726148     0.147531703404     1.007825032070
           H          5.255735815565     1.082440726148     0.170105703404     1.007825032070

  Charge       = 0
  Multiplicity = 1
  Basis Set: 6-31G*
  Basis Set:

    Orbital Energies (a.u.)
    -----------------------

    Doubly Occupied:

       1A    -20.561851     2A    -11.326059     3A    -11.235685
       4A    -11.234247     5A    -11.222293     6A    -11.218554
       7A    -11.218071     8A    -11.217648     9A    -11.210555
      10A     -1.401840    11A     -1.104451    12A     -1.069394
      13A     -1.013201    14A     -0.941681    15A     -0.876862
      16A     -0.820465    17A     -0.788111    18A     -0.782621
      19A     -0.665306    20A     -0.655656    21A     -0.631518
      22A     -0.625343    23A     -0.606077    24A     -0.591744
      25A     -0.579524    26A     -0.554934    27A     -0.530829
      28A     -0.524793    29A     -0.511209    30A     -0.496645
      31A     -0.489973    32A     -0.479891    33A     -0.463567
      34A     -0.453034    35A     -0.441816    36A     -0.409434

  @DF-RHF Final Energy:  -387.11638640731724

   => Energetics <=

    Nuclear Repulsion Energy =            441.5618524607139079
    One-Electron Energy =               -1399.4466592913854583
    Two-Electron Energy =                 570.7684204233526089
    DFT Exchange-Correlation Energy =       0.0000000000000000
    Empirical Dispersion Energy =           0.0000000000000000
    PCM Polarization Energy =               0.0000000000000000
    EFP Energy =                            0.0000000000000000
    Total Energy =                       -387.1163864073189416

  Mulliken Charges: (a.u.)
   Center  Symbol    Alpha    Beta     Spin     Total
       1     H     0.43277  0.43277  0.00000  0.13446
       2     C     2.83060  2.83060  0.00000  0.33879
       3     C     3.20877  3.20877  0.00000 -0.41753
       4     O     4.23786  4.23786  0.00000 -0.47571
       5     C     3.16897  3.16897  0.00000 -0.33795
       6     H     0.39968  0.39968  0.00000  0.20064
       7     H     0.40688  0.40688  0.00000  0.18623
       8     C     3.15748  3.15748  0.00000 -0.31496
       9     H     0.41208  0.41208  0.00000  0.17583
      10     H     0.41944  0.41944  0.00000  0.16112
      11     C     3.15721  3.15721  0.00000 -0.31442
      12     H     0.41578  0.41578  0.00000  0.16845
      13     H     0.41543  0.41543  0.00000  0.16914
      14     C     3.15547  3.15547  0.00000 -0.31093
      15     H     0.41670  0.41670  0.00000  0.16660
      16     H     0.42156  0.42156  0.00000  0.15688
      17     C     3.15318  3.15318  0.00000 -0.30636
      18     H     0.42131  0.42131  0.00000  0.15738
      19     H     0.42304  0.42304  0.00000  0.15391
      20     C     3.24131  3.24131  0.00000 -0.48262
      21     H     0.42030  0.42030  0.00000  0.15941
      22     H     0.42355  0.42355  0.00000  0.15291
      23     H     0.42154  0.42154  0.00000  0.15691
      24     H     0.42036  0.42036  0.00000  0.15927
      25     H     0.41872  0.41872  0.00000  0.16256

   Total alpha = 36.00000, Total beta = 36.00000, Total charge =  0.00000
