  ==> Input File <==

--------------------------------------------------------------------------
set {
	reference rhf
	basis cc-pvtz
}

set_num_threads( 4 )
memory 2 gb

molecule MOL {
0 1

H	 -0.939693	 0.000281	 1.681345
O	 -0.046262	 -0.000157	 1.387678
C	 -0.000837	 0.000006	 -0.025491
C	 -0.704365	 -1.246041	 -0.559872
C	 -0.665888	 1.267651	 -0.558339
C	 1.479247	 -0.022446	 -0.381912
H	 -0.654272	 -1.292170	 -1.641610
H	 -1.752614	 -1.247475	 -0.276602
H	 -0.244794	 -2.139004	 -0.155059
H	 -0.614330	 1.313564	 -1.640014
H	 -1.713628	 1.300800	 -0.275116
H	 -0.179251	 2.145644	 -0.152412
H	 1.618011	 -0.023877	 -1.456635
H	 1.949991	 -0.906914	 0.028364
H	 1.976865	 0.846653	 0.029500

	symmetry c1
}
set optking {
	frozen_dihedral = ("
		4 3 2 1
	")
}

ee = optimize('scf')
oeprop('DIPOLE', 'QUADRUPOLE', 'MULLIKEN_CHARGES')
f=open( 'psi4out.xyz', 'w' )
f.write( "15  " )
f.write( str(ee) + "\n" )
f.write( MOL.save_string_xyz() )
f.close()
--------------------------------------------------------------------------

    Molecular point group: c1
  Charge       = 0
  Multiplicity = 1
  Basis Set: CC-PVTZ
  Basis Set:
  @DF-RHF Final Energy:  -232.24680289259811
    Total Energy =                       -232.2468028925981685
    Molecular point group: c1
  Basis Set: CC-PVTZ
  Basis Set:
  Charge       = 0
  Multiplicity = 1
  Basis Set: CC-PVTZ
  Basis Set:

    Orbital Energies (a.u.)
    -----------------------

    Doubly Occupied:

       1A    -20.542251     2A    -11.280775     3A    -11.209440
       4A    -11.209137     5A    -11.203887     6A     -1.365002
       7A     -1.065205     8A     -0.942074     9A     -0.940451
      10A     -0.778502    11A     -0.672672    12A     -0.624327
      13A     -0.622795    14A     -0.575954    15A     -0.557598
      16A     -0.532722    17A     -0.517035    18A     -0.511294
      19A     -0.504680    20A     -0.458831    21A     -0.428769

  @DF-RHF Final Energy:  -232.24680295198283

   => Energetics <=

    Nuclear Repulsion Energy =            200.6798879355546319
    One-Electron Energy =                -712.7665764353707800
    Two-Electron Energy =                 279.8398855478332052
    DFT Exchange-Correlation Energy =       0.0000000000000000
    Empirical Dispersion Energy =           0.0000000000000000
    PCM Polarization Energy =               0.0000000000000000
    EFP Energy =                            0.0000000000000000
    Total Energy =                       -232.2468029519828860
    Molecular point group: c1
  Basis Set: CC-PVTZ
  Basis Set:

  -Total Gradient:
     Atom            X                  Y                   Z
    ------   -----------------  -----------------  -----------------
       1       -0.000001205482    -0.000077882905    -0.000002555480
       2       -0.000022507858     0.000123349872     0.000001621911
       3        0.000061966663    -0.000059056319    -0.000018609800
       4       -0.000054103441     0.000024439318    -0.000011065424
       5        0.000007783719    -0.000020754899     0.000030763384
       6        0.000008872498     0.000013284656    -0.000001570156
       7       -0.000004163269     0.000000418569     0.000003959071
       8       -0.000003256488    -0.000002816755     0.000000670792
       9        0.000005790928     0.000004821532     0.000002132917
      10        0.000004683361    -0.000006029377    -0.000002654907
      11       -0.000001864699     0.000000763508    -0.000002226474
      12       -0.000001069942    -0.000003768560    -0.000000104207
      13       -0.000000165964     0.000005873200    -0.000000113793
      14       -0.000011334613    -0.000000990708     0.000000068597
      15        0.000010574588    -0.000001651131    -0.000000316433

  **** Optimization is complete! (in 2 steps) ****
    Final optimized geometry and variables:
    Molecular point group: c1

    Geometry (in Angstrom), charge = 0, multiplicity = 1:

    H           -0.939763274515     0.001323081069     1.681125730894
    O           -0.046324406003     0.000538624289     1.387618122252
    C           -0.000727079446     0.000040268678    -0.025474049270
    C           -0.704396051658    -1.245952515950    -0.559687408016
    C           -0.665922354471     1.267486732621    -0.558509160593
    C            1.479319208880    -0.022223855805    -0.381862896939
    H           -0.654489320209    -1.291989677950    -1.641391006269
    H           -1.752652776936    -1.247248414032    -0.276370232231
    H           -0.244829251103    -2.139009418085    -0.155044064535
    H           -0.614416159491     1.313194235149    -1.640202029735
    H           -1.713564397384     1.300604314470    -0.275056974287
    H           -0.179297962635     2.145517712684    -0.152704902861
    H            1.618087605238    -0.021825257807    -1.456567475157
    H            1.949815474447    -0.907471597548     0.026985786823
    H            1.977115328288     0.846088606494     0.030984809730

  Mulliken Charges: (a.u.)
   Center  Symbol    Alpha    Beta     Spin     Total
       1     H     0.39576  0.39576  0.00000  0.20848
       2     O     4.21097  4.21097  0.00000 -0.42195
       3     C     2.87836  2.87836  0.00000  0.24328
       4     C     3.15037  3.15037  0.00000 -0.30074
       5     C     3.15009  3.15009  0.00000 -0.30018
       6     C     3.14316  3.14316  0.00000 -0.28632
       7     H     0.45545  0.45545  0.00000  0.08911
       8     H     0.45598  0.45598  0.00000  0.08804
       9     H     0.44642  0.44642  0.00000  0.10717
      10     H     0.45561  0.45561  0.00000  0.08878
      11     H     0.45591  0.45591  0.00000  0.08819
      12     H     0.44651  0.44651  0.00000  0.10698
      13     H     0.45872  0.45872  0.00000  0.08256
      14     H     0.44842  0.44842  0.00000  0.10315
      15     H     0.44828  0.44828  0.00000  0.10345

   Total alpha = 21.00000, Total beta = 21.00000, Total charge =  0.00000
