  ==> Input File <==

--------------------------------------------------------------------------
set {
	reference rhf
	basis 6-31G*
}

set_num_threads( 1 )
memory 2 gb

molecule MOL {
0 1

H	 -4.363321	 -1.031888	 -0.653467
C	 -3.499960	 -0.777897	 -0.069723
C	 -2.301078	 -1.090015	 -0.504770
H	 -3.643685	 -0.269373	 0.864973
O	 -1.180634	 -0.819263	 0.215062
H	 -2.135314	 -1.592742	 -1.441244
C	 0.051604	 -1.018856	 -0.387932
C	 1.043764	 0.054862	 -0.001873
H	 -0.017620	 -1.041351	 -1.469781
H	 0.437898	 -1.966374	 -0.042284
F	 2.212596	 -0.199467	 -0.571921
F	 0.652529	 1.252447	 -0.405055
F	 1.230877	 0.110694	 1.300533

	symmetry c1
}
set optking {
	frozen_dihedral = ("
		11 8 7 9,
		6 3 2 1,
		6 3 5 7
	")
}

ee = energy('scf')
oeprop('DIPOLE', 'QUADRUPOLE', 'MULLIKEN_CHARGES')
f=open( 'psi4out.xyz', 'w' )
f.write( "13  " )
f.write( str(ee) + "\n" )
f.write( MOL.save_string_xyz() )
f.close()
--------------------------------------------------------------------------

    Molecular point group: c1

    Geometry (in Angstrom), charge = 0, multiplicity = 1:

       Center              X                  Y                   Z               Mass
    ------------   -----------------  -----------------  -----------------  -----------------
           H         -4.305137683453    -0.786493576023    -0.615794245166     1.007825032070
           C         -3.441776683453    -0.532502576023    -0.032050245166    12.000000000000
           C         -2.242894683453    -0.844620576023    -0.467097245166    12.000000000000
           H         -3.585501683453    -0.023978576023     0.902645754834     1.007825032070
           O         -1.122450683453    -0.573868576023     0.252734754834    15.994914619560
           H         -2.077130683453    -1.347347576023    -1.403571245166     1.007825032070
           C          0.109787316547    -0.773461576023    -0.350259245166    12.000000000000
           C          1.101947316547     0.300256423977     0.035799754834    12.000000000000
           H          0.040563316547    -0.795956576023    -1.432108245166     1.007825032070
           H          0.496081316547    -1.720979576023    -0.004611245166     1.007825032070
           F          2.270779316547     0.045927423977    -0.534248245166    18.998403224000
           F          0.710712316547     1.497841423977    -0.367382245166    18.998403224000
           F          1.289060316547     0.356088423977     1.338205754834    18.998403224000

  Charge       = 0
  Multiplicity = 1
  Basis Set: 6-31G*
  Basis Set:

    Orbital Energies (a.u.)
    -----------------------

    Doubly Occupied:

       1A    -26.344884     2A    -26.339752     3A    -26.338121
       4A    -20.606576     5A    -11.505149     6A    -11.318465
       7A    -11.302970     8A    -11.218498     9A     -1.739822
      10A     -1.638870    11A     -1.634938    12A     -1.437342
      13A     -1.086482    14A     -1.016353    15A     -0.923272
      16A     -0.836774    17A     -0.829126    18A     -0.807832
      19A     -0.801512    20A     -0.718304    21A     -0.713442
      22A     -0.696557    23A     -0.679158    24A     -0.658375
      25A     -0.651742    26A     -0.643280    27A     -0.640740
      28A     -0.574524    29A     -0.560789    30A     -0.528333
      31A     -0.513988    32A     -0.352871

  @DF-RHF Final Energy:  -527.53294219719169

   => Energetics <=

    Nuclear Repulsion Energy =            406.2898377535248642
    One-Electron Energy =               -1536.3278574661374023
    Two-Electron Energy =                 602.5050775154213625
    DFT Exchange-Correlation Energy =       0.0000000000000000
    Empirical Dispersion Energy =           0.0000000000000000
    PCM Polarization Energy =               0.0000000000000000
    EFP Energy =                            0.0000000000000000
    Total Energy =                       -527.5329421971912325

  Mulliken Charges: (a.u.)
   Center  Symbol    Alpha    Beta     Spin     Total
       1     H     0.40710  0.40710  0.00000  0.18580
       2     C     3.23478  3.23478  0.00000 -0.46955
       3     C     2.89664  2.89664  0.00000  0.20671
       4     H     0.40037  0.40037  0.00000  0.19927
       5     O     4.30425  4.30425  0.00000 -0.60851
       6     H     0.40809  0.40809  0.00000  0.18383
       7     C     3.04986  3.04986  0.00000 -0.09972
       8     C     2.45325  2.45325  0.00000  1.09350
       9     H     0.40681  0.40681  0.00000  0.18639
      10     H     0.40262  0.40262  0.00000  0.19476
      11     F     4.68318  4.68318  0.00000 -0.36635
      12     F     4.67787  4.67787  0.00000 -0.35574
      13     F     4.67520  4.67520  0.00000 -0.35039

   Total alpha = 32.00000, Total beta = 32.00000, Total charge =  0.00000
