  ==> Input File <==

--------------------------------------------------------------------------
set {
	reference rhf
	basis 6-31G*
}

set_num_threads( 4 )
memory 2 gb

molecule MOL {
0 1

H	 -1.748661	 -2.220942	 -0.005015
C	 -1.343207	 -1.225221	 -0.013879
N	 -0.055091	 -1.100174	 -0.261126
C	 -2.150779	 -0.125890	 0.222726
C	 0.449969	 0.122615	 -0.277109
H	 -3.200618	 -0.238980	 0.422496
N	 -1.660212	 1.097703	 0.209594
C	 -0.371804	 1.219904	 -0.038265
C	 1.928147	 0.267347	 -0.541394
H	 0.029131	 2.217482	 -0.051283
C	 2.577882	 -1.052534	 -0.970080
H	 2.063374	 1.006804	 -1.323559
H	 2.419515	 0.648054	 0.348434
H	 3.633176	 -0.907571	 -1.178260
H	 2.103969	 -1.436674	 -1.865804
H	 2.489011	 -1.803371	 -0.191199

	symmetry c1
}
set optking {
	frozen_dihedral = ("
		12 9 5 3
	")
}

ee = optimize('scf')
oeprop('DIPOLE', 'QUADRUPOLE', 'MULLIKEN_CHARGES')
f=open( 'psi4out.xyz', 'w' )
f.write( "16  " )
f.write( str(ee) + "\n" )
f.write( MOL.save_string_xyz() )
f.close()
--------------------------------------------------------------------------

    Molecular point group: c1
  Charge       = 0
  Multiplicity = 1
  Basis Set: 6-31G*
  Basis Set:
  @DF-RHF Final Energy:  -340.75636096400240
    Total Energy =                       -340.7563609640023969
    Molecular point group: c1
  Basis Set: 6-31G*
  Basis Set:
  Basis Set: 6-31G*
  Basis Set:
  @DF-RHF Final Energy:  -340.75696522175934
    Total Energy =                       -340.7569652217594012
  Basis Set: 6-31G*
  Basis Set:
  Basis Set: 6-31G*
  Basis Set:
  @DF-RHF Final Energy:  -340.75712018843507
    Total Energy =                       -340.7571201884350103
  Basis Set: 6-31G*
  Basis Set:
  Basis Set: 6-31G*
  Basis Set:
  @DF-RHF Final Energy:  -340.75714393652447
    Total Energy =                       -340.7571439365245283
  Basis Set: 6-31G*
  Basis Set:
  Basis Set: 6-31G*
  Basis Set:
  @DF-RHF Final Energy:  -340.75716241564413
    Total Energy =                       -340.7571624156443022
  Basis Set: 6-31G*
  Basis Set:
  Basis Set: 6-31G*
  Basis Set:
  @DF-RHF Final Energy:  -340.75716677860885
    Total Energy =                       -340.7571667786089051
  Basis Set: 6-31G*
  Basis Set:
  Charge       = 0
  Multiplicity = 1
  Basis Set: 6-31G*
  Basis Set:

    Orbital Energies (a.u.)
    -----------------------

    Doubly Occupied:

       1A    -15.586594     2A    -15.581620     3A    -11.283470
       4A    -11.274582     5A    -11.272940     6A    -11.270267
       7A    -11.234864     8A    -11.212023     9A     -1.313203
      10A     -1.221877    11A     -1.083133    12A     -1.013545
      13A     -0.910498    14A     -0.888120    15A     -0.823610
      16A     -0.717890    17A     -0.704780    18A     -0.657370
      19A     -0.628153    20A     -0.603238    21A     -0.565338
      22A     -0.558838    23A     -0.521277    24A     -0.503098
      25A     -0.500389    26A     -0.484437    27A     -0.430600
      28A     -0.394571    29A     -0.343989

  @DF-RHF Final Energy:  -340.75716719841529

   => Energetics <=

    Nuclear Repulsion Energy =            349.7058705703195187
    One-Electron Energy =               -1153.7574463937917244
    Two-Electron Energy =                 463.2944086250570308
    DFT Exchange-Correlation Energy =       0.0000000000000000
    Empirical Dispersion Energy =           0.0000000000000000
    PCM Polarization Energy =               0.0000000000000000
    EFP Energy =                            0.0000000000000000
    Total Energy =                       -340.7571671984151180
    Molecular point group: c1
  Basis Set: 6-31G*
  Basis Set:

  -Total Gradient:
     Atom            X                  Y                   Z
    ------   -----------------  -----------------  -----------------
       1        0.000004046683     0.000002312422    -0.000045838562
       2        0.000017124364     0.000008788086     0.000061970294
       3       -0.000050930104    -0.000019159217    -0.000123149984
       4        0.000027728771    -0.000021575258     0.000107046406
       5        0.000025737695    -0.000020436243     0.000158357712
       6       -0.000015947228     0.000010706335    -0.000056670254
       7        0.000034439740     0.000007287396    -0.000006962009
       8       -0.000043510058    -0.000004974886    -0.000104260199
       9        0.000035170527     0.000109632199     0.000059227662
      10        0.000010814561     0.000011112485     0.000032677397
      11       -0.000018773284    -0.000038464216     0.000005078201
      12       -0.000014812343    -0.000073532232    -0.000079313186
      13       -0.000012866556    -0.000006257364    -0.000007538759
      14       -0.000003300267     0.000024062163     0.000006904116
      15       -0.000000168214     0.000003075004     0.000003462045
      16        0.000005245711     0.000007423331    -0.000010990880

  **** Optimization is complete! (in 7 steps) ****
    Final optimized geometry and variables:
    Molecular point group: c1

    Geometry (in Angstrom), charge = 0, multiplicity = 1:

    H           -1.781333303044    -2.086185441144     0.218060664762
    C           -1.356530311104    -1.098776448118     0.210936487784
    N           -0.060588808929    -1.002376734508    -0.046626411713
    C           -2.133064320978     0.011347850528     0.458067167861
    C            0.471053325682     0.200506752882    -0.059894209416
    H           -3.183716296315    -0.075044612701     0.665447793787
    N           -1.611217342265     1.229449552165     0.445958363441
    C           -0.329189845299     1.320946830825     0.189938437707
    C            1.950070586765     0.363574993333    -0.338982246993
    H            0.098495633211     2.308461590091     0.177534978496
    C            2.662717806553    -0.920706849933    -0.751925989934
    H            2.072702804785     1.116711872476    -1.113440196732
    H            2.423198256755     0.773750325697     0.550652814682
    H            3.710931122229    -0.714574420643    -0.943009543530
    H            2.227780023818    -1.338829451154    -1.652047356458
    H            2.597782152988    -1.673506710944     0.023474056971

  Mulliken Charges: (a.u.)
   Center  Symbol    Alpha    Beta     Spin     Total
       1     H     0.39401  0.39401  0.00000  0.21198
       2     C     2.98874  2.98874  0.00000  0.02252
       3     N     3.76071  3.76071  0.00000 -0.52141
       4     C     3.00018  3.00018  0.00000 -0.00036
       5     C     2.86974  2.86974  0.00000  0.26052
       6     H     0.39423  0.39423  0.00000  0.21153
       7     N     3.72979  3.72979  0.00000 -0.45957
       8     C     2.99365  2.99365  0.00000  0.01270
       9     C     3.17598  3.17598  0.00000 -0.35196
      10     H     0.39503  0.39503  0.00000  0.20994
      11     C     3.23475  3.23475  0.00000 -0.46950
      12     H     0.41072  0.41072  0.00000  0.17856
      13     H     0.40868  0.40868  0.00000  0.18264
      14     H     0.42030  0.42030  0.00000  0.15941
      15     H     0.41331  0.41331  0.00000  0.17338
      16     H     0.41018  0.41018  0.00000  0.17964

   Total alpha = 29.00000, Total beta = 29.00000, Total charge =  0.00000
