  ==> Input File <==

--------------------------------------------------------------------------
set {
	reference rhf
	basis 6-31G*
}

set_num_threads( 1 )
memory 2 gb

molecule MOL {
0 1

H	 2.241089	 0.044189	 2.205716
O	 1.544188	 0.590490	 1.871689
C	 1.135793	 0.118896	 0.612333
C	 0.031547	 1.023609	 0.088541
H	 0.758019	 -0.898930	 0.691113
H	 1.975690	 0.099340	 -0.078531
C	 -1.134819	 0.293262	 -0.585751
H	 0.474374	 1.714721	 -0.623187
H	 -0.338529	 1.620940	 0.920081
C	 -1.917817	 -0.639439	 0.339494
H	 -0.758119	 -0.268455	 -1.433105
H	 -1.813832	 1.041889	 -0.986690
H	 -2.777680	 -1.057197	 -0.174994
H	 -1.310268	 -1.471279	 0.680599
H	 -2.283753	 -0.111424	 1.216626

	symmetry c1
}
set optking {
	frozen_dihedral = ("
		8 4 7 11,
		1 2 3 4
	")
}

ee = energy('scf')
oeprop('DIPOLE', 'QUADRUPOLE', 'MULLIKEN_CHARGES')
f=open( 'psi4out.xyz', 'w' )
f.write( "15  " )
f.write( str(ee) + "\n" )
f.write( MOL.save_string_xyz() )
f.close()
--------------------------------------------------------------------------

    Molecular point group: c1

    Geometry (in Angstrom), charge = 0, multiplicity = 1:

       Center              X                  Y                   Z               Mass
    ------------   -----------------  -----------------  -----------------  -----------------
           H          2.265219185381    -0.222036327493     1.695012079133     1.007825032070
           O          1.568318185381     0.324264672507     1.360985079133    15.994914619560
           C          1.159923185381    -0.147329327493     0.101629079133    12.000000000000
           C          0.055677185381     0.757383672507    -0.422162920867    12.000000000000
           H          0.782149185381    -1.165155327493     0.180409079133     1.007825032070
           H          1.999820185381    -0.166885327493    -0.589234920867     1.007825032070
           C         -1.110688814619     0.027036672507    -1.096454920867    12.000000000000
           H          0.498504185381     1.448495672507    -1.133890920867     1.007825032070
           H         -0.314398814619     1.354714672507     0.409377079133     1.007825032070
           C         -1.893686814619    -0.905664327493    -0.171209920867    12.000000000000
           H         -0.733988814619    -0.534680327493    -1.943808920867     1.007825032070
           H         -1.789701814619     0.775663672507    -1.497393920867     1.007825032070
           H         -2.753549814619    -1.323422327493    -0.685697920867     1.007825032070
           H         -1.286137814619    -1.737504327493     0.169895079133     1.007825032070
           H         -2.259622814619    -0.377649327493     0.705922079133     1.007825032070

  Charge       = 0
  Multiplicity = 1
  Basis Set: 6-31G*
  Basis Set:

    Orbital Energies (a.u.)
    -----------------------

    Doubly Occupied:

       1A    -20.551575     2A    -11.265635     3A    -11.217333
       4A    -11.209960     5A    -11.208556     6A     -1.358061
       7A     -1.068956     8A     -0.969854     9A     -0.869113
      10A     -0.782712    11A     -0.696623    12A     -0.650968
      13A     -0.619252    14A     -0.573012    15A     -0.555371
      16A     -0.540353    17A     -0.506177    18A     -0.476408
      19A     -0.470246    20A     -0.456151    21A     -0.428275

  @DF-RHF Final Energy:  -232.13786015075158

   => Energetics <=

    Nuclear Repulsion Energy =            189.3182765345511029
    One-Electron Energy =                -689.9630036157500399
    Two-Electron Energy =                 268.5068669304466766
    DFT Exchange-Correlation Energy =       0.0000000000000000
    Empirical Dispersion Energy =           0.0000000000000000
    PCM Polarization Energy =               0.0000000000000000
    EFP Energy =                            0.0000000000000000
    Total Energy =                       -232.1378601507522603

  Mulliken Charges: (a.u.)
   Center  Symbol    Alpha    Beta     Spin     Total
       1     H     0.28197  0.28197  0.00000  0.43607
       2     O     4.37101  4.37101  0.00000 -0.74202
       3     C     2.99427  2.99427  0.00000  0.01147
       4     C     3.16542  3.16542  0.00000 -0.33084
       5     H     0.43079  0.43079  0.00000  0.13842
       6     H     0.43045  0.43045  0.00000  0.13909
       7     C     3.15987  3.15987  0.00000 -0.31975
       8     H     0.41857  0.41857  0.00000  0.16285
       9     H     0.40578  0.40578  0.00000  0.18845
      10     C     3.24072  3.24072  0.00000 -0.48145
      11     H     0.42394  0.42394  0.00000  0.15211
      12     H     0.41882  0.41882  0.00000  0.16235
      13     H     0.41905  0.41905  0.00000  0.16190
      14     H     0.42106  0.42106  0.00000  0.15787
      15     H     0.41827  0.41827  0.00000  0.16347

   Total alpha = 21.00000, Total beta = 21.00000, Total charge = -0.00000
