                              Psi4 1.0.54 Driver

  ==> Input File <==

--------------------------------------------------------------------------
set {
	reference rhf
	basis cc-pvtz
}

set_num_threads( 4 )
memory 2 gb

molecule MOL {
0 1

O	 0.754265	 0.220970	 0.924647
C	 0.029490	 0.077183	 0.000078
C	 -1.232113	 -0.748027	 0.000015
O	 0.239483	 0.635943	 -1.180143
C	 -2.501422	 0.088592	 -0.000052
H	 -1.188777	 -1.400384	 -0.865133
H	 -1.188857	 -1.400312	 0.865225
H	 -2.548170	 0.725504	 -0.873205
H	 -3.371613	 -0.556398	 -0.000040
H	 -2.548215	 0.725571	 0.873047
C	 1.392735	 1.440800	 -1.321065
H	 1.363131	 2.273023	 -0.633487
H	 1.384318	 1.797773	 -2.338083
H	 2.285907	 0.862594	 -1.136224

	symmetry c1
}
set optking {
	frozen_dihedral = ("
		4 2 3 6
	")
}

ee,wfn = optimize('scf', return_wfn=True)
oeprop( wfn, 'DIPOLE', 'QUADRUPOLE', 'MULLIKEN_CHARGES')
f=open( 'psi4out.xyz', 'w' )
f.write( "14  " )
f.write( str(ee) + "\n" )
f.write( MOL.save_string_xyz() )
f.close()
--------------------------------------------------------------------------

    Molecular point group: c1
  Charge       = 0
  Multiplicity = 1
  Basis Set: CC-PVTZ
  Basis Set:
  @DF-RHF Final Energy:  -305.98576892753681
    Total Energy =                       -305.9857689275370376
    Molecular point group: c1
  Basis Set: CC-PVTZ
  Basis Set:
  Basis Set: CC-PVTZ
  Basis Set:
  @DF-RHF Final Energy:  -305.98611377592209
    Total Energy =                       -305.9861137759218082
  Basis Set: CC-PVTZ
  Basis Set:
  Basis Set: CC-PVTZ
  Basis Set:
  @DF-RHF Final Energy:  -305.98615675138205
    Total Energy =                       -305.9861567513818272
  Basis Set: CC-PVTZ
  Basis Set:
  Basis Set: CC-PVTZ
  Basis Set:
  @DF-RHF Final Energy:  -305.98620726589434
    Total Energy =                       -305.9862072658942225
  Basis Set: CC-PVTZ
  Basis Set:
  Basis Set: CC-PVTZ
  Basis Set:
  @DF-RHF Final Energy:  -305.98621530869423
    Total Energy =                       -305.9862153086943408
  Basis Set: CC-PVTZ
  Basis Set:
  Charge       = 0
  Multiplicity = 1
  Basis Set: CC-PVTZ
  Basis Set:

    Orbital Energies (a.u.)
    -----------------------

    Doubly Occupied:

       1A    -20.597881     2A    -20.533658     3A    -11.364274
       4A    -11.279259     5A    -11.236100     6A    -11.225101
       7A     -1.472753     8A     -1.365563     9A     -1.068653
      10A     -0.977299    11A     -0.885333    12A     -0.776373
      13A     -0.698991    14A     -0.682913    15A     -0.676660
      16A     -0.619850    17A     -0.593149    18A     -0.570747
      19A     -0.544976    20A     -0.520151    21A     -0.512473
      22A     -0.506087    23A     -0.460096    24A     -0.437681

  @DF-RHF Final Energy:  -305.98621554750025

   => Energetics <=

    Nuclear Repulsion Energy =            248.6606330850845836
    One-Electron Energy =                -910.0816638247274568
    Two-Electron Energy =                 355.4348151921426506
    DFT Exchange-Correlation Energy =       0.0000000000000000
    Empirical Dispersion Energy =           0.0000000000000000
    PCM Polarization Energy =               0.0000000000000000
    EFP Energy =                            0.0000000000000000
    Total Energy =                       -305.9862155475002510
    Molecular point group: c1
  Basis Set: CC-PVTZ
  Basis Set:

  -Total Gradient:
     Atom            X                  Y                   Z
    ------   -----------------  -----------------  -----------------
       1        0.000011018556     0.000004221915    -0.000033768091
       2        0.000012266119    -0.000068407142    -0.000014496716
       3       -0.000080732497     0.000108123211     0.000008721259
       4        0.000026702286    -0.000026206847     0.000018672793
       5        0.000022407515    -0.000033348354    -0.000004663296
       6        0.000023924330    -0.000030091783     0.000021680379
       7       -0.000005006063    -0.000030761762     0.000012426817
       8       -0.000002968050     0.000012966050    -0.000008520471
       9       -0.000010323915    -0.000008137106    -0.000000407035
      10        0.000011598958    -0.000001406833    -0.000003384040
      11       -0.000057951122     0.000099222791     0.000018481693
      12        0.000029932093     0.000010947629    -0.000010796903
      13        0.000016832171    -0.000002580107    -0.000010623509
      14        0.000002299620    -0.000034541660     0.000006677119

  **** Optimization is complete! (in 6 steps) ****
    Final optimized geometry and variables:
    Molecular point group: c1

    Geometry (in Angstrom), charge = 0, multiplicity = 1:

    O            0.961950984555    -0.109769105846     1.190906999300
    C            0.233400377430    -0.246661973441     0.267673585885
    C           -1.027732005048    -1.070818311457     0.281985721079
    O            0.434602784836     0.330407790835    -0.905623076622
    C           -2.283389264601    -0.196395018286     0.262761038267
    H           -1.020222186194    -1.721963794022    -0.583503133295
    H           -1.001405131093    -1.680010732642     1.173200775683
    H           -2.325604143118     0.406694082275    -0.634440240154
    H           -3.168745952115    -0.818423313922     0.294865459515
    H           -2.308015761974     0.464475094536     1.120959087750
    C            1.573862595188     1.156941249515    -1.035520518097
    H            1.530436633171     1.978637532126    -0.336147564646
    H            1.559047513824     1.527831507320    -2.047515914214
    H            2.476370360466     0.591016208417    -0.858665811367

  Mulliken Charges: (a.u.)
   Center  Symbol    Alpha    Beta     Spin     Total
       1     O     4.19997  4.19997  0.00000 -0.39995
       2     C     2.79869  2.79869  0.00000  0.40262
       3     C     3.08430  3.08430  0.00000 -0.16860
       4     O     4.15076  4.15076  0.00000 -0.30152
       5     C     3.15115  3.15115  0.00000 -0.30230
       6     H     0.44649  0.44649  0.00000  0.10702
       7     H     0.43713  0.43713  0.00000  0.12573
       8     H     0.44683  0.44683  0.00000  0.10634
       9     H     0.44738  0.44738  0.00000  0.10524
      10     H     0.44838  0.44838  0.00000  0.10324
      11     C     3.03597  3.03597  0.00000 -0.07194
      12     H     0.45453  0.45453  0.00000  0.09095
      13     H     0.44563  0.44563  0.00000  0.10874
      14     H     0.45278  0.45278  0.00000  0.09443

   Total alpha = 24.00000, Total beta = 24.00000, Total charge =  0.00000

*** Psi4 exiting successfully. Buy a developer a beer!
