  ==> Input File <==

--------------------------------------------------------------------------
set {
	reference rhf
	basis cc-pvtz
}

set_num_threads( 4 )
memory 2 gb

molecule MOL {
0 1

H	 -1.507437	 -0.240120	 -0.150442
N	 -0.625934	 -0.663929	 -0.000707
C	 -0.577294	 -2.092361	 0.204992
C	 0.468494	 0.129045	 -0.002160
H	 -1.150815	 -2.378341	 1.078650
H	 0.449787	 -2.378890	 0.353652
H	 -0.967740	 -2.622406	 -0.655613
C	 1.785715	 -0.615093	 0.000603
O	 0.413285	 1.323206	 0.000532
H	 1.866994	 -1.243310	 -0.878792
H	 2.591506	 0.100263	 0.006422
H	 1.860358	 -1.250360	 0.875522

	symmetry c1
}
set optking {
	frozen_dihedral = ("
		3 2 4 9
	")
}

ee = optimize('scf')
oeprop('DIPOLE', 'QUADRUPOLE', 'MULLIKEN_CHARGES')
f=open( 'psi4out.xyz', 'w' )
f.write( "12  " )
f.write( str(ee) + "\n" )
f.write( MOL.save_string_xyz() )
f.close()
--------------------------------------------------------------------------

    Molecular point group: c1
  Charge       = 0
  Multiplicity = 1
  Basis Set: CC-PVTZ
  Basis Set:
  @DF-RHF Final Energy:  -247.09099203120738
    Total Energy =                       -247.0909920312074064
    Molecular point group: c1
  Basis Set: CC-PVTZ
  Basis Set:
  Basis Set: CC-PVTZ
  Basis Set:
  @DF-RHF Final Energy:  -247.09303398351975
    Total Energy =                       -247.0930339835196037
  Basis Set: CC-PVTZ
  Basis Set:
  Basis Set: CC-PVTZ
  Basis Set:
  @DF-RHF Final Energy:  -247.09580063862444
    Total Energy =                       -247.0958006386243824
  Basis Set: CC-PVTZ
  Basis Set:
  Basis Set: CC-PVTZ
  Basis Set:
  @DF-RHF Final Energy:  -247.09631457938863
    Total Energy =                       -247.0963145793884337
  Basis Set: CC-PVTZ
  Basis Set:
  @DF-RHF Final Energy:  -247.09642613784837
    Total Energy =                       -247.0964261378483116
  @DF-RHF Final Energy:  -247.09645119650006
    Total Energy =                       -247.0964511964999701
  @DF-RHF Final Energy:  -247.09649281705754
    Total Energy =                       -247.0964928170575945
  @DF-RHF Final Energy:  -247.09653826718321
    Total Energy =                       -247.0965382671830639
  @DF-RHF Final Energy:  -247.09670349205896
    Total Energy =                       -247.0967034920590777
  @DF-RHF Final Energy:  -247.09717640820537
    Total Energy =                       -247.0971764082054278
  @DF-RHF Final Energy:  -247.09726161115756
    Total Energy =                       -247.0972616111574780
  Basis Set: CC-PVTZ
  Basis Set:
  @DF-RHF Final Energy:  -247.09733877189248
    Total Energy =                       -247.0973387718924528
  Basis Set: CC-PVTZ
  Basis Set:
  Basis Set: CC-PVTZ
  Basis Set:
  @DF-RHF Final Energy:  -247.09735549874941
    Total Energy =                       -247.0973554987490388
  Basis Set: CC-PVTZ
  Basis Set:
  Basis Set: CC-PVTZ
  Basis Set:
  @DF-RHF Final Energy:  -247.09735878541184
    Total Energy =                       -247.0973587854116431
  Basis Set: CC-PVTZ
  Basis Set:
  Charge       = 0
  Multiplicity = 1
  Basis Set: CC-PVTZ
  Basis Set:

    Orbital Energies (a.u.)
    -----------------------

    Doubly Occupied:

       1A    -20.506033     2A    -15.573551     3A    -11.337203
       4A    -11.269335     5A    -11.228299     6A     -1.388297
       7A     -1.231608     8A     -1.006467     9A     -0.958192
      10A     -0.784057    11A     -0.676028    12A     -0.669741
      13A     -0.643333    14A     -0.586198    15A     -0.579510
      16A     -0.562598    17A     -0.557144    18A     -0.518133
      19A     -0.416308    20A     -0.388386

  @DF-RHF Final Energy:  -247.09735905401942

   => Energetics <=

    Nuclear Repulsion Energy =            181.7543782144557554
    One-Electron Energy =                -695.9426352050618334
    Two-Electron Energy =                 267.0908979365867140
    DFT Exchange-Correlation Energy =       0.0000000000000000
    Empirical Dispersion Energy =           0.0000000000000000
    PCM Polarization Energy =               0.0000000000000000
    EFP Energy =                            0.0000000000000000
    Total Energy =                       -247.0973590540193641
    Molecular point group: c1
  Basis Set: CC-PVTZ
  Basis Set:

  -Total Gradient:
     Atom            X                  Y                   Z
    ------   -----------------  -----------------  -----------------
       1        0.000003232429     0.000010073322    -0.000004127030
       2        0.000062299335    -0.000086118929    -0.000156214621
       3       -0.000051937852     0.000058056893     0.000130819258
       4        0.000014496415     0.000027911848    -0.000164762677
       5        0.000006581981     0.000002443590    -0.000000943247
       6       -0.000004665095    -0.000018380725     0.000010919541
       7       -0.000002515334    -0.000001211632     0.000001273470
       8        0.000023131961     0.000000352576    -0.000102272680
       9       -0.000044916500     0.000016573761     0.000194721714
      10       -0.000001208321     0.000007763092     0.000034445628
      11       -0.000006376785    -0.000006009996     0.000012509883
      12        0.000001877768    -0.000011453794     0.000043630760

  **** Optimization is complete! (in 15 steps) ****
    Final optimized geometry and variables:
    Molecular point group: c1

    Geometry (in Angstrom), charge = 0, multiplicity = 1:

    H           -1.739015112945     0.174058994343    -0.223864159972
    N           -0.874479163862    -0.306776344069    -0.146510611492
    C           -0.912577172076    -1.716097667127     0.159897324006
    C            0.196753580085     0.518381059055    -0.050546400264
    H           -0.816979286578    -1.920130863701     1.221735699163
    H           -0.135102687231    -2.254175530595    -0.364026662037
    H           -1.861204719720    -2.112184697502    -0.172440794884
    C            1.542728644710    -0.129002386324     0.177532031204
    O            0.077953138004     1.703008304976    -0.159834537717
    H            1.788022781010    -0.798036182401    -0.638417069646
    H            2.285297354655     0.649112194142     0.239663598393
    H            1.546311806152    -0.707147800733     1.093843048880

  Mulliken Charges: (a.u.)
   Center  Symbol    Alpha    Beta     Spin     Total
       1     H     0.41157  0.41157  0.00000  0.17686
       2     N     3.60577  3.60577  0.00000 -0.21154
       3     C     3.08630  3.08630  0.00000 -0.17260
       4     C     2.84601  2.84601  0.00000  0.30798
       5     H     0.45575  0.45575  0.00000  0.08849
       6     H     0.45324  0.45324  0.00000  0.09353
       7     H     0.44363  0.44363  0.00000  0.11274
       8     C     3.16156  3.16156  0.00000 -0.32312
       9     O     4.21045  4.21045  0.00000 -0.42090
      10     H     0.44648  0.44648  0.00000  0.10704
      11     H     0.42931  0.42931  0.00000  0.14139
      12     H     0.44992  0.44992  0.00000  0.10016

   Total alpha = 20.00000, Total beta = 20.00000, Total charge = -0.00000
