  ==> Input File <==

--------------------------------------------------------------------------
set {
	reference rhf
	basis 6-31G*
}

set_num_threads( 4 )
memory 2 gb

molecule MOL {
0 1

H	 -2.397401	 -2.885389	 -1.782305
O	 -2.416862	 -2.073513	 -1.296113
C	 -1.108529	 -1.700407	 -0.947332
C	 -1.177863	 -0.397191	 -0.171080
H	 -0.639328	 -2.472387	 -0.338889
H	 -0.496420	 -1.571116	 -1.838930
C	 0.198102	 0.111031	 0.262842
H	 -1.811680	 -0.550330	 0.698145
H	 -1.673100	 0.344473	 -0.791686
C	 1.331804	 -0.827780	 -0.158768
H	 0.361943	 1.100838	 -0.156218
H	 0.217265	 0.229072	 1.345532
C	 2.723619	 -0.410569	 0.329459
H	 1.342964	 -0.912588	 -1.244120
H	 1.116806	 -1.824343	 0.220779
C	 3.243875	 0.895854	 -0.272975
H	 3.424222	 -1.207124	 0.091250
H	 2.714788	 -0.329854	 1.414619
H	 3.251977	 0.848779	 -1.358681
H	 2.637085	 1.747371	 0.016682
H	 4.259473	 1.094070	 0.055697

	symmetry c1
}
set optking {
	frozen_dihedral = ("
		8 4 7 10
	")
}

ee = optimize('scf')
oeprop('DIPOLE', 'QUADRUPOLE', 'MULLIKEN_CHARGES')
f=open( 'psi4out.xyz', 'w' )
f.write( "21  " )
f.write( str(ee) + "\n" )
f.write( MOL.save_string_xyz() )
f.close()
--------------------------------------------------------------------------

    Molecular point group: c1
  Charge       = 0
  Multiplicity = 1
  Basis Set: 6-31G*
  Basis Set:
  @DF-RHF Final Energy:  -310.19725146156634
    Total Energy =                       -310.1972514615664522
    Molecular point group: c1
  Basis Set: 6-31G*
  Basis Set:
  Basis Set: 6-31G*
  Basis Set:
  @DF-RHF Final Energy:  -310.19703440988985
    Total Energy =                       -310.1970344098899659
  Basis Set: 6-31G*
  Basis Set:
  Basis Set: 6-31G*
  Basis Set:
  @DF-RHF Final Energy:  -310.20175929497680
    Total Energy =                       -310.2017592949766822
  Basis Set: 6-31G*
  Basis Set:
  Basis Set: 6-31G*
  Basis Set:
  @DF-RHF Final Energy:  -310.20260902663864
    Total Energy =                       -310.2026090266385268
  Basis Set: 6-31G*
  Basis Set:
  @DF-RHF Final Energy:  -310.20269626353934
    Total Energy =                       -310.2026962635392238
  @DF-RHF Final Energy:  -310.20276993473323
    Total Energy =                       -310.2027699347332259
  Basis Set: 6-31G*
  Basis Set:
  @DF-RHF Final Energy:  -310.20277149882236
    Total Energy =                       -310.2027714988225853
  Basis Set: 6-31G*
  Basis Set:
  Basis Set: 6-31G*
  Basis Set:
  @DF-RHF Final Energy:  -310.20276528038335
    Total Energy =                       -310.2027652803832325
  Basis Set: 6-31G*
  Basis Set:
  Basis Set: 6-31G*
  Basis Set:
  @DF-RHF Final Energy:  -310.20277330516564
    Total Energy =                       -310.2027733051656355
  Basis Set: 6-31G*
  Basis Set:
  Charge       = 0
  Multiplicity = 1
  Basis Set: 6-31G*
  Basis Set:

    Orbital Energies (a.u.)
    -----------------------

    Doubly Occupied:

       1A    -20.551111     2A    -11.266338     3A    -11.217020
       4A    -11.216380     5A    -11.215580     6A    -11.210633
       7A    -11.209062     8A     -1.357885     9A     -1.084152
      10A     -1.028926    11A     -0.951212    12A     -0.886701
      13A     -0.815531    14A     -0.763192    15A     -0.694597
      16A     -0.659343    17A     -0.620573    18A     -0.607708
      19A     -0.585608    20A     -0.567066    21A     -0.541799
      22A     -0.523041    23A     -0.512731    24A     -0.488711
      25A     -0.480128    26A     -0.460003    27A     -0.451335
      28A     -0.443486    29A     -0.427240

  @DF-RHF Final Energy:  -310.20277334634261

   => Energetics <=

    Nuclear Repulsion Energy =            316.4654832597861969
    One-Electron Energy =               -1047.6623329062367702
    Two-Electron Energy =                 420.9940763001079631
    DFT Exchange-Correlation Energy =       0.0000000000000000
    Empirical Dispersion Energy =           0.0000000000000000
    PCM Polarization Energy =               0.0000000000000000
    EFP Energy =                            0.0000000000000000
    Total Energy =                       -310.2027733463426102
    Molecular point group: c1
  Basis Set: 6-31G*
  Basis Set:

  -Total Gradient:
     Atom            X                  Y                   Z
    ------   -----------------  -----------------  -----------------
       1       -0.000007317754    -0.000000009748    -0.000004425018
       2       -0.000011552728     0.000004905944    -0.000029523006
       3       -0.000017537999    -0.000046551490     0.000085755348
       4        0.000301278863    -0.000671099467    -0.000156292114
       5        0.000003486471    -0.000004479549    -0.000016417458
       6       -0.000007005824     0.000016867696     0.000004653057
       7       -0.000118059797    -0.000209891797     0.000620733788
       8       -0.000206040280     0.000618809162    -0.000070910473
       9       -0.000002801056     0.000027654316     0.000008896501
      10        0.000055197643     0.000245701974    -0.000457376879
      11       -0.000001929109    -0.000000013470    -0.000003917938
      12       -0.000003911174     0.000006066166    -0.000000455403
      13       -0.000003823204     0.000006835842     0.000026808423
      14        0.000000901066    -0.000014661097    -0.000005991468
      15       -0.000003916413     0.000017666469     0.000000215812
      16        0.000005326118    -0.000006105998    -0.000002871543
      17       -0.000000274696     0.000015558247    -0.000008854887
      18        0.000016594147    -0.000009605367     0.000011445364
      19        0.000004015288     0.000002585041    -0.000000888169
      20       -0.000000935845    -0.000005076667    -0.000001584080
      21       -0.000001693721     0.000004843796     0.000001000142

  **** Optimization is complete! (in 10 steps) ****
    Final optimized geometry and variables:
    Molecular point group: c1

    Geometry (in Angstrom), charge = 0, multiplicity = 1:

    H           -3.035976390496    -2.116429255878    -1.424124995956
    O           -2.941851557711    -1.316938455842    -0.926234042995
    C           -1.582275212321    -1.094965065192    -0.645021922148
    C           -1.502244538838     0.196550360897     0.156905401083
    H           -1.173378024454    -1.929616329199    -0.080927463918
    H           -1.014731740508    -1.012399567446    -1.569025285485
    C           -0.089610435535     0.684170694760     0.582305217754
    H           -2.126734616654     0.065491672739     1.034321739203
    H           -1.989104219936     0.962964096960    -0.436959585830
    C            1.103073728273    -0.207732346871     0.209014604465
    H            0.071694523295     1.670086986596     0.160099959174
    H           -0.078342358292     0.821149222785     1.660291322430
    C            2.448426556545     0.314205917042     0.729716388239
    H            1.165783431866    -0.318783576949    -0.871266925802
    H            0.952050102580    -1.205254945685     0.613031148404
    C            2.914638995141     1.626991952842     0.097240572189
    H            3.203634485728    -0.446120447727     0.545958374306
    H            2.394375133764     0.432157405981     1.810047687737
    H            2.961359018111     1.543488838517    -0.985344221152
    H            2.254512841472     2.453430878843     0.337385897030
    H            3.906788584809     1.891493699789     0.449894143891

  Mulliken Charges: (a.u.)
   Center  Symbol    Alpha    Beta     Spin     Total
       1     H     0.28130  0.28130  0.00000  0.43739
       2     O     4.37278  4.37278  0.00000 -0.74556
       3     C     2.99401  2.99401  0.00000  0.01198
       4     C     3.16392  3.16392  0.00000 -0.32783
       5     H     0.43131  0.43131  0.00000  0.13738
       6     H     0.43138  0.43138  0.00000  0.13724
       7     C     3.16228  3.16228  0.00000 -0.32457
       8     H     0.41219  0.41219  0.00000  0.17563
       9     H     0.41195  0.41195  0.00000  0.17610
      10     C     3.15930  3.15930  0.00000 -0.31861
      11     H     0.41712  0.41712  0.00000  0.16576
      12     H     0.41975  0.41975  0.00000  0.16051
      13     C     3.15194  3.15194  0.00000 -0.30387
      14     H     0.42351  0.42351  0.00000  0.15298
      15     H     0.42153  0.42153  0.00000  0.15693
      16     C     3.24151  3.24151  0.00000 -0.48302
      17     H     0.42091  0.42091  0.00000  0.15818
      18     H     0.42273  0.42273  0.00000  0.15455
      19     H     0.42237  0.42237  0.00000  0.15525
      20     H     0.41928  0.41928  0.00000  0.16145
      21     H     0.41893  0.41893  0.00000  0.16214

   Total alpha = 29.00000, Total beta = 29.00000, Total charge = -0.00000
