  ==> Input File <==

--------------------------------------------------------------------------
set {
	reference rhf
	basis 6-31G*
}

set_num_threads( 1 )
memory 2 gb

molecule MOL {
0 1

H	 -3.240697	 -1.041369	 -0.276106
O	 -2.310168	 -0.871793	 -0.309793
C	 -2.026376	 0.340750	 0.341611
C	 -0.673256	 0.843270	 -0.132153
H	 -2.792215	 1.080697	 0.115987
H	 -2.013526	 0.200402	 1.421792
C	 0.486613	 -0.083066	 0.235839
H	 -0.715586	 0.970948	 -1.210718
H	 -0.508072	 1.829858	 0.297090
C	 1.840406	 0.433480	 -0.254303
H	 0.300215	 -1.068318	 -0.178947
H	 0.519509	 -0.203625	 1.318070
C	 3.000220	 -0.489290	 0.118523
H	 1.809207	 0.553576	 -1.335192
H	 2.021860	 1.424500	 0.157276
H	 2.864959	 -1.479103	 -0.307933
H	 3.946603	 -0.099227	 -0.243630
H	 3.080049	 -0.602997	 1.196117

	symmetry c1
}
set optking {
	frozen_dihedral = ("
		14 10 7 11,
		10 7 4 8,
		2 3 4 8
	")
}

ee = energy('scf')
oeprop('DIPOLE', 'QUADRUPOLE', 'MULLIKEN_CHARGES')
f=open( 'psi4out.xyz', 'w' )
f.write( "18  " )
f.write( str(ee) + "\n" )
f.write( MOL.save_string_xyz() )
f.close()
--------------------------------------------------------------------------

    Molecular point group: c1

    Geometry (in Angstrom), charge = 0, multiplicity = 1:

       Center              X                  Y                   Z               Mass
    ------------   -----------------  -----------------  -----------------  -----------------
           H         -3.239492602446    -1.043356360716    -0.272931487751     1.007825032070
           O         -2.308963602446    -0.873780360716    -0.306618487751    15.994914619560
           C         -2.025171602446     0.338762639284     0.344785512249    12.000000000000
           C         -0.672051602446     0.841282639284    -0.128978487751    12.000000000000
           H         -2.791010602446     1.078709639284     0.119161512249     1.007825032070
           H         -2.012321602446     0.198414639284     1.424966512249     1.007825032070
           C          0.487817397554    -0.085053360716     0.239013512249    12.000000000000
           H         -0.714381602446     0.968960639284    -1.207543487751     1.007825032070
           H         -0.506867602446     1.827870639284     0.300264512249     1.007825032070
           C          1.841610397554     0.431492639284    -0.251128487751    12.000000000000
           H          0.301419397554    -1.070305360716    -0.175772487751     1.007825032070
           H          0.520713397554    -0.205612360716     1.321244512249     1.007825032070
           C          3.001424397554    -0.491277360716     0.121697512249    12.000000000000
           H          1.810411397554     0.551588639284    -1.332017487751     1.007825032070
           H          2.023064397554     1.422512639284     0.160450512249     1.007825032070
           H          2.866163397554    -1.481090360716    -0.304758487751     1.007825032070
           H          3.947807397554    -0.101214360716    -0.240455487751     1.007825032070
           H          3.081253397554    -0.604984360716     1.199291512249     1.007825032070

  Charge       = 0
  Multiplicity = 1
  Basis Set: 6-31G*
  Basis Set:

    Orbital Energies (a.u.)
    -----------------------

    Doubly Occupied:

       1A    -20.552645     2A    -11.268020     3A    -11.211461
       4A    -11.210480     5A    -11.206091     6A    -11.204209
       7A     -1.359650     8A     -1.074465     9A     -1.008423
      10A     -0.912738    11A     -0.817590    12A     -0.784080
      13A     -0.703782    14A     -0.645574    15A     -0.621096
      16A     -0.579021    17A     -0.573037    18A     -0.554241
      19A     -0.519458    20A     -0.507644    21A     -0.488552
      22A     -0.466503    23A     -0.457990    24A     -0.442312
      25A     -0.430938

  @DF-RHF Final Energy:  -271.17932549572038

   => Energetics <=

    Nuclear Repulsion Energy =            249.0184196682426148
    One-Electron Energy =                -861.1953559914295511
    Two-Electron Energy =                 340.9976108274665876
    DFT Exchange-Correlation Energy =       0.0000000000000000
    Empirical Dispersion Energy =           0.0000000000000000
    PCM Polarization Energy =               0.0000000000000000
    EFP Energy =                            0.0000000000000000
    Total Energy =                       -271.1793254957203771

  Mulliken Charges: (a.u.)
   Center  Symbol    Alpha    Beta     Spin     Total
       1     H     0.28023  0.28023  0.00000  0.43955
       2     O     4.37012  4.37012  0.00000 -0.74025
       3     C     2.99783  2.99783  0.00000  0.00434
       4     C     3.15869  3.15869  0.00000 -0.31739
       5     H     0.43025  0.43025  0.00000  0.13950
       6     H     0.43080  0.43080  0.00000  0.13839
       7     C     3.15346  3.15346  0.00000 -0.30692
       8     H     0.41660  0.41660  0.00000  0.16681
       9     H     0.42497  0.42497  0.00000  0.15006
      10     C     3.15172  3.15172  0.00000 -0.30344
      11     H     0.40769  0.40769  0.00000  0.18462
      12     H     0.42685  0.42685  0.00000  0.14630
      13     C     3.23894  3.23894  0.00000 -0.47787
      14     H     0.42271  0.42271  0.00000  0.15458
      15     H     0.42534  0.42534  0.00000  0.14932
      16     H     0.42079  0.42079  0.00000  0.15842
      17     H     0.42048  0.42048  0.00000  0.15904
      18     H     0.42253  0.42253  0.00000  0.15495

   Total alpha = 25.00000, Total beta = 25.00000, Total charge =  0.00000
