                              Psi4 1.0.54 Driver

  ==> Input File <==

--------------------------------------------------------------------------
set {
	reference rhf
	basis cc-pvtz
}

set_num_threads( 4 )
memory 2 gb

molecule MOL {
0 1

H	 1.994885	 -1.443739	 -0.165903
O	 1.675515	 -0.612943	 -0.465627
C	 1.135873	 0.113391	 0.608264
C	 0.027642	 1.012027	 0.090274
H	 1.902972	 0.727968	 1.072615
H	 0.756163	 -0.561896	 1.370018
C	 -1.138737	 0.285728	 -0.581921
H	 0.464661	 1.708096	 -0.618252
H	 -0.340737	 1.603071	 0.925246
C	 -1.933983	 -0.631436	 0.343653
H	 -0.763151	 -0.285569	 -1.422081
H	 -1.808359	 1.035291	 -0.992333
H	 -2.789188	 -1.049673	 -0.174718
H	 -1.335629	 -1.461368	 0.700418
H	 -2.305435	 -0.092167	 1.209725

	symmetry c1
}
set optking {
	frozen_dihedral = ("
		1 2 3 4
	")
}

ee,wfn = optimize('scf', return_wfn=True)
oeprop( wfn, 'DIPOLE', 'QUADRUPOLE', 'MULLIKEN_CHARGES')
f=open( 'psi4out.xyz', 'w' )
f.write( "15  " )
f.write( str(ee) + "\n" )
f.write( MOL.save_string_xyz() )
f.close()
--------------------------------------------------------------------------

    Molecular point group: c1
  Charge       = 0
  Multiplicity = 1
  Basis Set: CC-PVTZ
  Basis Set:
  @DF-RHF Final Energy:  -232.23676523739977
    Total Energy =                       -232.2367652373995952
    Molecular point group: c1
  Basis Set: CC-PVTZ
  Basis Set:
  Basis Set: CC-PVTZ
  Basis Set:
  @DF-RHF Final Energy:  -232.23681139046633
    Total Energy =                       -232.2368113904664710
  Basis Set: CC-PVTZ
  Basis Set:
  Basis Set: CC-PVTZ
  Basis Set:
  @DF-RHF Final Energy:  -232.23683291862042
    Total Energy =                       -232.2368329186202800
  Basis Set: CC-PVTZ
  Basis Set:
  Charge       = 0
  Multiplicity = 1
  Basis Set: CC-PVTZ
  Basis Set:

    Orbital Energies (a.u.)
    -----------------------

    Doubly Occupied:

       1A    -20.545960     2A    -11.265483     3A    -11.210893
       4A    -11.208793     5A    -11.205652     6A     -1.363684
       7A     -1.066354     8A     -0.972821     9A     -0.871162
      10A     -0.776551    11A     -0.708006    12A     -0.649426
      13A     -0.609043    14A     -0.579764    15A     -0.564189
      16A     -0.535573    17A     -0.510042    18A     -0.478913
      19A     -0.469245    20A     -0.454697    21A     -0.431937

  @DF-RHF Final Energy:  -232.23683243741417

   => Energetics <=

    Nuclear Repulsion Energy =            191.6811168525368032
    One-Electron Energy =                -694.8795148415051699
    Two-Electron Energy =                 270.9615655515542585
    DFT Exchange-Correlation Energy =       0.0000000000000000
    Empirical Dispersion Energy =           0.0000000000000000
    PCM Polarization Energy =               0.0000000000000000
    EFP Energy =                            0.0000000000000000
    Total Energy =                       -232.2368324374141366
    Molecular point group: c1
  Basis Set: CC-PVTZ
  Basis Set:

  -Total Gradient:
     Atom            X                  Y                   Z
    ------   -----------------  -----------------  -----------------
       1       -0.001407828417    -0.000439781841    -0.000337396251
       2        0.001454421807     0.000494654576     0.000627274797
       3        0.000468156470     0.000844895248    -0.000136414631
       4       -0.000601624613    -0.000858230195     0.000002540713
       5       -0.000057061570    -0.000161100253    -0.000093771864
       6       -0.000034938691     0.000003535288    -0.000118541652
       7       -0.000032364592     0.000130945842     0.000071963452
       8        0.000036063089     0.000032192456    -0.000053209691
       9        0.000072292404     0.000003412857     0.000024484027
      10        0.000029015863     0.000020978807     0.000007234904
      11        0.000013747526     0.000004787183    -0.000064392728
      12       -0.000016186217     0.000028430543    -0.000003386984
      13       -0.000012097262    -0.000043107142    -0.000014151954
      14        0.000102598888    -0.000055861016     0.000106658451
      15       -0.000014194682    -0.000005752354    -0.000018890589

  **** Optimization is complete! (in 4 steps) ****
    Final optimized geometry and variables:
    Molecular point group: c1

    Geometry (in Angstrom), charge = 0, multiplicity = 1:

    H            2.046436232311    -1.416800332818    -0.194202513254
    O            1.720119243726    -0.583304756731    -0.474601592196
    C            1.136068610721     0.103876570338     0.603719750418
    C            0.024839370127     1.002902479563     0.091366795315
    H            1.886671986751     0.708215909594     1.104770696100
    H            0.747460226013    -0.597967236502     1.334802887967
    C           -1.142746915226     0.277559399310    -0.578272988889
    H            0.460500903916     1.699969271324    -0.617488950906
    H           -0.339849355441     1.594960744990     0.927475485314
    C           -1.952533284260    -0.619716032643     0.354599481167
    H           -0.765566631303    -0.307239062079    -1.408719404557
    H           -1.804600821888     1.025389104007    -1.003904227383
    H           -2.799220096945    -1.050509516238    -0.167465528332
    H           -1.361433875838    -1.441670684941     0.741956423275
    H           -2.337700607459    -0.061106535963     1.202012526953

  Mulliken Charges: (a.u.)
   Center  Symbol    Alpha    Beta     Spin     Total
       1     H     0.39350  0.39350  0.00000  0.21299
       2     O     4.20304  4.20304  0.00000 -0.40607
       3     C     2.97723  2.97723  0.00000  0.04553
       4     C     3.09231  3.09231  0.00000 -0.18461
       5     H     0.46056  0.46056  0.00000  0.07888
       6     H     0.47177  0.47177  0.00000  0.05646
       7     C     3.08977  3.08977  0.00000 -0.17954
       8     H     0.44757  0.44757  0.00000  0.10486
       9     H     0.45450  0.45450  0.00000  0.09101
      10     C     3.15410  3.15410  0.00000 -0.30820
      11     H     0.44677  0.44677  0.00000  0.10646
      12     H     0.44996  0.44996  0.00000  0.10007
      13     H     0.44624  0.44624  0.00000  0.10752
      14     H     0.45668  0.45668  0.00000  0.08664
      15     H     0.45600  0.45600  0.00000  0.08799

   Total alpha = 21.00000, Total beta = 21.00000, Total charge = -0.00000

*** Psi4 exiting successfully. Buy a developer a beer!
