  ==> Input File <==

--------------------------------------------------------------------------
set {
	reference rhf
	basis cc-pvtz
}

set_num_threads( 4 )
memory 2 gb

molecule MOL {
0 1

O	 -2.817697	 1.304178	 0.001046
C	 -2.664672	 0.129869	 0.003507
C	 -3.797908	 -0.860100	 -0.001145
O	 -1.481217	 -0.452708	 0.001092
H	 -4.408836	 -0.679689	 -0.875387
H	 -3.443486	 -1.878443	 -0.002770
H	 -4.412123	 -0.683688	 0.871605
C	 -0.332055	 0.384012	 -0.000250
C	 0.892252	 -0.506059	 -0.000295
H	 -0.360822	 1.020205	 -0.874146
H	 -0.359817	 1.021310	 0.872861
C	 1.873292	 -0.133742	 1.107541
H	 1.379907	 -0.433572	 -0.967046
H	 0.577071	 -1.538057	 0.115055
C	 3.116447	 -1.018784	 1.127401
H	 2.175654	 0.903968	 0.990438
H	 1.373692	 -0.198266	 2.070978
C	 4.096500	 -0.647820	 2.235051
H	 3.617531	 -0.953782	 0.165764
H	 2.815559	 -2.056007	 1.244537
H	 4.442526	 0.374472	 2.125366
H	 4.966301	 -1.294171	 2.221550
H	 3.634228	 -0.735982	 3.212490

	symmetry c1
}
set optking {
	frozen_dihedral = ("
		13 9 8 10
	")
}

ee = optimize('scf')
oeprop('DIPOLE', 'QUADRUPOLE', 'MULLIKEN_CHARGES')
f=open( 'psi4out.xyz', 'w' )
f.write( "23  " )
f.write( str(ee) + "\n" )
f.write( MOL.save_string_xyz() )
f.close()
--------------------------------------------------------------------------

    Molecular point group: c1
  Charge       = 0
  Multiplicity = 1
  Basis Set: CC-PVTZ
  Basis Set:
  @DF-RHF Final Energy:  -423.12888801705066
    Total Energy =                       -423.1288880170502580
    Molecular point group: c1
  Basis Set: CC-PVTZ
  Basis Set:
  Basis Set: CC-PVTZ
  Basis Set:
  @DF-RHF Final Energy:  -423.12900399252288
    Total Energy =                       -423.1290039925231667
  Basis Set: CC-PVTZ
  Basis Set:
  Basis Set: CC-PVTZ
  Basis Set:
  @DF-RHF Final Energy:  -423.12916545655037
    Total Energy =                       -423.1291654565505951
  Basis Set: CC-PVTZ
  Basis Set:
  Basis Set: CC-PVTZ
  Basis Set:
  @DF-RHF Final Energy:  -423.12928323508680
    Total Energy =                       -423.1292832350867457
  Basis Set: CC-PVTZ
  Basis Set:
  Basis Set: CC-PVTZ
  Basis Set:
  @DF-RHF Final Energy:  -423.12929975685631
    Total Energy =                       -423.1292997568560850
  Basis Set: CC-PVTZ
  Basis Set:
  Basis Set: CC-PVTZ
  Basis Set:
  @DF-RHF Final Energy:  -423.12930172108094
    Total Energy =                       -423.1293017210811058
  Basis Set: CC-PVTZ
  Basis Set:
  Charge       = 0
  Multiplicity = 1
  Basis Set: CC-PVTZ
  Basis Set:

    Orbital Energies (a.u.)
    -----------------------

    Doubly Occupied:

       1A    -20.595565     2A    -20.529249     3A    -11.365935
       4A    -11.279946     5A    -11.230612     6A    -11.222189
       7A    -11.220362     8A    -11.218665     9A    -11.210626
      10A     -1.470419    11A     -1.363330    12A     -1.093136
      13A     -1.041899    14A     -1.003263    15A     -0.931506
      16A     -0.843197    17A     -0.801374    18A     -0.779839
      19A     -0.691367    20A     -0.685384    21A     -0.669911
      22A     -0.647066    23A     -0.608528    24A     -0.584807
      25A     -0.583239    26A     -0.571289    27A     -0.559363
      28A     -0.536385    29A     -0.526671    30A     -0.503355
      31A     -0.497874    32A     -0.475327    33A     -0.471348
      34A     -0.466564    35A     -0.449039    36A     -0.438641

  @DF-RHF Final Energy:  -423.12930187015860

   => Energetics <=

    Nuclear Repulsion Energy =            451.4045146307402661
    One-Electron Energy =               -1470.7330877891631644
    Two-Electron Energy =                 596.1992712882645264
    DFT Exchange-Correlation Energy =       0.0000000000000000
    Empirical Dispersion Energy =           0.0000000000000000
    PCM Polarization Energy =               0.0000000000000000
    EFP Energy =                            0.0000000000000000
    Total Energy =                       -423.1293018701583151
    Molecular point group: c1
  Basis Set: CC-PVTZ
  Basis Set:

  -Total Gradient:
     Atom            X                  Y                   Z
    ------   -----------------  -----------------  -----------------
       1        0.000004187685    -0.000009615392     0.000024875319
       2       -0.000020844417     0.000012839442    -0.000030329671
       3        0.000000106462    -0.000001793430     0.000000374586
       4        0.000021970712     0.000002461254     0.000064277042
       5       -0.000006771327    -0.000003567806    -0.000002815192
       6        0.000000169636     0.000000803086    -0.000000222585
       7        0.000005379730     0.000002952549    -0.000002619099
       8        0.001587937889     0.002228116609     0.001339786635
       9       -0.001666565008    -0.002335720214    -0.001068948864
      10       -0.001033123530    -0.001464725073    -0.001007139380
      11       -0.000012687112    -0.000005905095     0.000014819050
      12        0.000007009074     0.000008584733    -0.000017674600
      13        0.001129667658     0.001567883619     0.000678078478
      14       -0.000014879577    -0.000000405536     0.000000607220
      15       -0.000004285650    -0.000000455287    -0.000001508827
      16       -0.000000288404     0.000012560966     0.000011956013
      17        0.000006184822    -0.000013495797    -0.000007529258
      18       -0.000001095326    -0.000001423722     0.000003509437
      19       -0.000006977756     0.000001882437    -0.000002442284
      20        0.000004482033    -0.000001176896     0.000003039850
      21       -0.000000678953    -0.000001104797    -0.000001877230
      22        0.000000130145     0.000000153470    -0.000000289877
      23        0.000000971215     0.000001150880     0.000002073240

  **** Optimization is complete! (in 7 steps) ****
    Final optimized geometry and variables:
    Molecular point group: c1

    Geometry (in Angstrom), charge = 0, multiplicity = 1:

    O           -2.682180929563     1.506474165169    -0.525151579467
    C           -2.538914808003     0.330718174576    -0.514449504087
    C           -3.681413658214    -0.648974642276    -0.528311646887
    O           -1.361332446865    -0.262104965758    -0.488272000204
    H           -4.276618980762    -0.470625740319    -1.413828613606
    H           -3.336876262212    -1.670681866539    -0.515481600628
    H           -4.307745443205    -0.459049102100     0.332987333686
    C           -0.203171521959     0.568841962694    -0.477238165495
    C            1.034439176933    -0.329543281089    -0.461895964470
    H           -0.236093420258     1.197566683698    -1.354349491889
    H           -0.248001970301     1.206798670255     0.393399096672
    C            2.031797570505     0.049821900569     0.631330630068
    H            1.534484098013    -0.275710360838    -1.422752794367
    H            0.715558677165    -1.354990376610    -0.325562993679
    C            3.286586212285    -0.817366559559     0.625363917346
    H            2.317315389259     1.092934713801     0.515420732656
    H            1.545085338161    -0.026196135621     1.600496306610
    C            4.277969285360    -0.442950939669     1.721900449470
    H            3.773246424289    -0.737599976323    -0.342819814626
    H            3.001529490808    -1.859880180918     0.737347659564
    H            4.608206697492     0.585081085390     1.616619900450
    H            5.156344345689    -1.077005428123     1.689532213115
    H            3.831549079885    -0.546383649009     2.705226931953

  Mulliken Charges: (a.u.)
   Center  Symbol    Alpha    Beta     Spin     Total
       1     O     4.20280  4.20280  0.00000 -0.40560
       2     C     2.81063  2.81063  0.00000  0.37873
       3     C     3.13895  3.13895  0.00000 -0.27789
       4     O     4.14643  4.14643  0.00000 -0.29287
       5     H     0.44214  0.44214  0.00000  0.11572
       6     H     0.44222  0.44222  0.00000  0.11557
       7     H     0.44230  0.44230  0.00000  0.11541
       8     C     2.98465  2.98465  0.00000  0.03071
       9     C     3.09107  3.09107  0.00000 -0.18214
      10     H     0.45094  0.45094  0.00000  0.09813
      11     H     0.45301  0.45301  0.00000  0.09399
      12     C     3.09529  3.09529  0.00000 -0.19058
      13     H     0.45024  0.45024  0.00000  0.09951
      14     H     0.44477  0.44477  0.00000  0.11045
      15     C     3.08613  3.08613  0.00000 -0.17226
      16     H     0.45248  0.45248  0.00000  0.09504
      17     H     0.45197  0.45197  0.00000  0.09605
      18     C     3.14941  3.14941  0.00000 -0.29883
      19     H     0.45388  0.45388  0.00000  0.09224
      20     H     0.45358  0.45358  0.00000  0.09283
      21     H     0.45466  0.45466  0.00000  0.09068
      22     H     0.44789  0.44789  0.00000  0.10421
      23     H     0.45455  0.45455  0.00000  0.09089

   Total alpha = 36.00000, Total beta = 36.00000, Total charge =  0.00000
