  ==> Input File <==

--------------------------------------------------------------------------
set {
	reference rhf
	basis 6-31G*
}

set_num_threads( 4 )
memory 2 gb

molecule MOL {
0 1

H	 1.630278	 0.069849	 1.367966
C	 0.928144	 -0.484033	 0.778805
C	 0.922020	 -1.867295	 0.773667
C	 0.000000	 0.183220	 0.000000
H	 1.634659	 -2.404452	 1.371642
C	 0.000000	 -2.555744	 0.000000
N	 0.000000	 1.642018	 0.000000
C	 -0.928144	 -0.484034	 -0.778805
H	 0.000000	 -3.630640	 0.000000
C	 -0.922020	 -1.867295	 -0.773667
O	 1.057097	 2.196749	 0.000000
O	 -1.057097	 2.196749	 0.000000
H	 -1.630278	 0.069849	 -1.367966
H	 -1.634659	 -2.404452	 -1.371642

	symmetry c1
}
set optking {
	frozen_dihedral = ("
		2 4 7 11
	")
}

ee = optimize('scf')
oeprop('DIPOLE', 'QUADRUPOLE', 'MULLIKEN_CHARGES')
f=open( 'psi4out.xyz', 'w' )
f.write( "14  " )
f.write( str(ee) + "\n" )
f.write( MOL.save_string_xyz() )
f.close()
--------------------------------------------------------------------------

    Molecular point group: c1
  Charge       = 0
  Multiplicity = 1
  Basis Set: 6-31G*
  Basis Set:
  @DF-RHF Final Energy:  -434.17065887582481
    Total Energy =                       -434.1706588758245289
    Molecular point group: c1
  Basis Set: 6-31G*
  Basis Set:
  Basis Set: 6-31G*
  Basis Set:
  @DF-RHF Final Energy:  -434.16440624891897
    Total Energy =                       -434.1644062489187945
  Basis Set: 6-31G*
  Basis Set:
  Basis Set: 6-31G*
  Basis Set:
  @DF-RHF Final Energy:  -434.17088409937088
    Total Energy =                       -434.1708840993705962
  Basis Set: 6-31G*
  Basis Set:
  Basis Set: 6-31G*
  Basis Set:
  @DF-RHF Final Energy:  -434.17106390028596
    Total Energy =                       -434.1710639002857306
  Basis Set: 6-31G*
  Basis Set:
  Charge       = 0
  Multiplicity = 1
  Basis Set: 6-31G*
  Basis Set:

    Orbital Energies (a.u.)
    -----------------------

    Doubly Occupied:

       1A    -20.603299     2A    -20.603204     3A    -15.855297
       4A    -11.305534     5A    -11.271514     6A    -11.271221
       7A    -11.266440     8A    -11.262148     9A    -11.261964
      10A     -1.635200    11A     -1.418954    12A     -1.202463
      13A     -1.095144    14A     -1.053547    15A     -0.957884
      16A     -0.867952    17A     -0.825833    18A     -0.782407
      19A     -0.733310    20A     -0.729182    21A     -0.712128
      22A     -0.651736    23A     -0.649692    24A     -0.624429
      25A     -0.556013    26A     -0.540397    27A     -0.530874
      28A     -0.490491    29A     -0.487377    30A     -0.450728
      31A     -0.371458    32A     -0.366240

  @DF-RHF Final Energy:  -434.17106415242574

   => Energetics <=

    Nuclear Repulsion Energy =            417.0108563680470297
    One-Electron Energy =               -1417.4957220896628769
    Two-Electron Energy =                 566.3138015691894225
    DFT Exchange-Correlation Energy =       0.0000000000000000
    Empirical Dispersion Energy =           0.0000000000000000
    PCM Polarization Energy =               0.0000000000000000
    EFP Energy =                            0.0000000000000000
    Total Energy =                       -434.1710641524264247
    Molecular point group: c1
  Basis Set: 6-31G*
  Basis Set:

  -Total Gradient:
     Atom            X                  Y                   Z
    ------   -----------------  -----------------  -----------------
       1       -0.000003877821    -0.000007461637    -0.000006397755
       2       -0.002932385152    -0.000149054883     0.003367239824
       3       -0.000046624977     0.000030911497     0.000076690587
       4        0.004288493068     0.000238464977    -0.006856508216
       5        0.000004518101    -0.000000166990    -0.000006190734
       6        0.000052542117     0.000001678436    -0.000109640918
       7       -0.001475322859    -0.000171403526     0.008562099883
       8        0.000010689852     0.000030400649     0.000054245731
       9       -0.000009135727     0.000000134389     0.000017175412
      10       -0.000005790048    -0.000017148397     0.000042730880
      11        0.000150255469     0.000086455962    -0.005133499791
      12       -0.000042098440    -0.000054913346     0.000012834022
      13        0.000009393647     0.000002443713    -0.000019669857
      14       -0.000000657235     0.000009659153    -0.000001109066

  **** Optimization is complete! (in 5 steps) ****
    Final optimized geometry and variables:
    Molecular point group: c1

    Geometry (in Angstrom), charge = 0, multiplicity = 1:

    H            1.648618747590     0.075217195614     1.347953674027
    C            0.938323860606    -0.480441016325     0.767700859555
    C            0.919790090730    -1.864122583026     0.776626768669
    C            0.018552457601     0.183090689982    -0.020271246321
    H            1.621929605129    -2.401999792031     1.386222052302
    C           -0.001169500510    -2.551186086419     0.000491420571
    N           -0.001744854895     1.639076393163     0.010645886215
    C           -0.930215714500    -0.478144022029    -0.775256083821
    H           -0.006334434315    -3.625996253539     0.005018053713
    C           -0.920573581447    -1.861802302650    -0.775899657365
    O            1.050745100097     2.201463368835     0.047860881431
    O           -1.066594130999     2.175977575589    -0.038576609781
    H           -1.647635368229     0.078329459872    -1.345456621250
    H           -1.634988612316    -2.398453227191    -1.372186791442

  Mulliken Charges: (a.u.)
   Center  Symbol    Alpha    Beta     Spin     Total
       1     H     0.36986  0.36986  0.00000  0.26028
       2     C     3.08655  3.08655  0.00000 -0.17309
       3     C     3.10707  3.10707  0.00000 -0.21414
       4     C     2.90970  2.90970  0.00000  0.18061
       5     H     0.38846  0.38846  0.00000  0.22308
       6     C     3.08849  3.08849  0.00000 -0.17697
       7     N     3.25363  3.25363  0.00000  0.49273
       8     C     3.08490  3.08490  0.00000 -0.16981
       9     H     0.38932  0.38932  0.00000  0.22136
      10     C     3.10747  3.10747  0.00000 -0.21494
      11     O     4.22746  4.22746  0.00000 -0.45491
      12     O     4.22895  4.22895  0.00000 -0.45790
      13     H     0.36972  0.36972  0.00000  0.26056
      14     H     0.38844  0.38844  0.00000  0.22313

   Total alpha = 32.00000, Total beta = 32.00000, Total charge = -0.00000
