  ==> Input File <==

--------------------------------------------------------------------------
set {
	reference rhf
	basis 6-31G*
}

set_num_threads( 4 )
memory 2 gb

molecule MOL {
0 1

H	 2.845955	 -0.323208	 0.022310
C	 1.900140	 0.071967	 -0.330070
C	 0.778463	 -0.508087	 0.517968
H	 1.782469	 -0.206877	 -1.370777
H	 1.922247	 1.149867	 -0.254252
N	 -0.540928	 0.005139	 0.058438
H	 0.716718	 -1.581298	 0.454712
H	 0.859711	 -0.198647	 1.550086
O	 -0.550444	 1.005366	 -0.588655
O	 -1.504206	 -0.626300	 0.371296

	symmetry c1
}
set optking {
	frozen_dihedral = ("
		9 6 3 2
	")
}

ee = optimize('scf')
oeprop('DIPOLE', 'QUADRUPOLE', 'MULLIKEN_CHARGES')
f=open( 'psi4out.xyz', 'w' )
f.write( "10  " )
f.write( str(ee) + "\n" )
f.write( MOL.save_string_xyz() )
f.close()
--------------------------------------------------------------------------

    Molecular point group: c1
  Charge       = 0
  Multiplicity = 1
  Basis Set: 6-31G*
  Basis Set:
  @DF-RHF Final Energy:  -282.69970305992814
    Total Energy =                       -282.6997030599281970
    Molecular point group: c1
  Basis Set: 6-31G*
  Basis Set:
  Basis Set: 6-31G*
  Basis Set:
  @DF-RHF Final Energy:  -282.69687051113425
    Total Energy =                       -282.6968705111341933
  Basis Set: 6-31G*
  Basis Set:
  Basis Set: 6-31G*
  Basis Set:
  @DF-RHF Final Energy:  -282.69747176425392
    Total Energy =                       -282.6974717642538621
  Basis Set: 6-31G*
  Basis Set:
  Basis Set: 6-31G*
  Basis Set:
  @DF-RHF Final Energy:  -282.70033301054889
    Total Energy =                       -282.7003330105488885
  Basis Set: 6-31G*
  Basis Set:
  Basis Set: 6-31G*
  Basis Set:
  @DF-RHF Final Energy:  -282.70038126811880
    Total Energy =                       -282.7003812681188037
  Basis Set: 6-31G*
  Basis Set:
  Basis Set: 6-31G*
  Basis Set:
  @DF-RHF Final Energy:  -282.70038815333891
    Total Energy =                       -282.7003881533390199
  Basis Set: 6-31G*
  Basis Set:
  Charge       = 0
  Multiplicity = 1
  Basis Set: 6-31G*
  Basis Set:

    Orbital Energies (a.u.)
    -----------------------

    Doubly Occupied:

       1A    -20.604837     2A    -20.600460     3A    -15.850038
       4A    -11.305132     5A    -11.246709     6A     -1.633323
       7A     -1.418811     8A     -1.125713     9A     -0.967396
      10A     -0.833752    11A     -0.760807    12A     -0.748143
      13A     -0.727027    14A     -0.640082    15A     -0.593990
      16A     -0.564387    17A     -0.539581    18A     -0.487003
      19A     -0.478421    20A     -0.450535

  @DF-RHF Final Energy:  -282.70038876973473

   => Energetics <=

    Nuclear Repulsion Energy =            186.0859480316889858
    One-Electron Energy =                -754.4203771733673420
    Two-Electron Energy =                 285.6340403719436836
    DFT Exchange-Correlation Energy =       0.0000000000000000
    Empirical Dispersion Energy =           0.0000000000000000
    PCM Polarization Energy =               0.0000000000000000
    EFP Energy =                            0.0000000000000000
    Total Energy =                       -282.7003887697346727
    Molecular point group: c1
  Basis Set: 6-31G*
  Basis Set:

  -Total Gradient:
     Atom            X                  Y                   Z
    ------   -----------------  -----------------  -----------------
       1       -0.000007741152     0.000004730101    -0.000001377469
       2        0.000004182704     0.000053360190     0.000011284174
       3        0.000008947783    -0.000071525947    -0.000036568391
       4        0.000009438933     0.000004020693    -0.000005827406
       5        0.000017424727     0.000009992868    -0.000014131295
       6       -0.000024371397     0.000057863638     0.000092982728
       7       -0.000030549585    -0.000000002744    -0.000001507408
       8       -0.000028836337    -0.000001469482    -0.000007616021
       9        0.000048850023    -0.000024390721    -0.000055494098
      10        0.000002654305    -0.000032578596     0.000018255188

  **** Optimization is complete! (in 7 steps) ****
    Final optimized geometry and variables:
    Molecular point group: c1

    Geometry (in Angstrom), charge = 0, multiplicity = 1:

    H            2.861145354439    -0.340405109020     0.038890262145
    C            1.932090230296     0.077859866760    -0.332706817687
    C            0.791716041347    -0.483539852757     0.492362461306
    H            1.830228556345    -0.189925736986    -1.376786753641
    H            1.981210328928     1.154640424049    -0.257611135228
    N           -0.546393329995     0.005996313560     0.050031268217
    H            0.722217753534    -1.558777674943     0.447307734211
    H            0.852917547670    -0.191429254030     1.532456773172
    O           -0.598694962426     1.003144048863    -0.599402134042
    O           -1.486139375740    -0.633095149946     0.411609760694

  Mulliken Charges: (a.u.)
   Center  Symbol    Alpha    Beta     Spin     Total
       1     H     0.40950  0.40950  0.00000  0.18099
       2     C     3.25087  3.25087  0.00000 -0.50173
       3     C     3.09547  3.09547  0.00000 -0.19094
       4     H     0.40269  0.40269  0.00000  0.19462
       5     H     0.39629  0.39629  0.00000  0.20742
       6     N     3.21999  3.21999  0.00000  0.56001
       7     H     0.38493  0.38493  0.00000  0.23015
       8     H     0.38416  0.38416  0.00000  0.23169
       9     O     4.22745  4.22745  0.00000 -0.45491
      10     O     4.22865  4.22865  0.00000 -0.45730

   Total alpha = 20.00000, Total beta = 20.00000, Total charge =  0.00000
