                              Psi4 1.0.54 Driver

  ==> Input File <==

--------------------------------------------------------------------------
set {
	reference rhf
	basis cc-pvtz
}

set_num_threads( 4 )
memory 2 gb

molecule MOL {
0 1

H	 1.166964	 -1.062386	 0.758429
O	 1.324748	 -0.612467	 -0.052206
C	 0.706474	 0.636793	 -0.025501
C	 -0.206737	 0.858151	 1.146966
H	 0.134757	 0.715711	 -0.942678
H	 1.445203	 1.435737	 -0.051301
C	 -0.532024	 -0.041087	 2.049111
H	 -0.611877	 1.854128	 1.218662
H	 -0.162785	 -1.047780	 2.002173
H	 -1.192480	 0.200869	 2.859861

	symmetry c1
}
set optking {
	frozen_dihedral = ("
		5 3 2 1
	")
}

ee,wfn = optimize('scf', return_wfn=True)
oeprop( wfn, 'DIPOLE', 'QUADRUPOLE', 'MULLIKEN_CHARGES')
f=open( 'psi4out.xyz', 'w' )
f.write( "10  " )
f.write( str(ee) + "\n" )
f.write( MOL.save_string_xyz() )
f.close()
--------------------------------------------------------------------------

    Molecular point group: c1
  Charge       = 0
  Multiplicity = 1
  Basis Set: CC-PVTZ
  Basis Set:
  @DF-RHF Final Energy:  -191.99410655646946
    Total Energy =                       -191.9941065564694043
    Molecular point group: c1
  Basis Set: CC-PVTZ
  Basis Set:
  Basis Set: CC-PVTZ
  Basis Set:
  @DF-RHF Final Energy:  -191.99468112216363
    Total Energy =                       -191.9946811221635983
  Basis Set: CC-PVTZ
  Basis Set:
  Basis Set: CC-PVTZ
  Basis Set:
  @DF-RHF Final Energy:  -191.99501964283715
    Total Energy =                       -191.9950196428370646
  Basis Set: CC-PVTZ
  Basis Set:
  Basis Set: CC-PVTZ
  Basis Set:
  @DF-RHF Final Energy:  -191.99502542400751
    Total Energy =                       -191.9950254240074514
  Basis Set: CC-PVTZ
  Basis Set:
  Charge       = 0
  Multiplicity = 1
  Basis Set: CC-PVTZ
  Basis Set:

    Orbital Energies (a.u.)
    -----------------------

    Doubly Occupied:

       1A    -20.550915     2A    -11.278956     3A    -11.240992
       4A    -11.226600     5A     -1.372672     6A     -1.069407
       7A     -0.939298     8A     -0.778816     9A     -0.694447
      10A     -0.657237    11A     -0.636893    12A     -0.573581
      13A     -0.556244    14A     -0.485775    15A     -0.458629
      16A     -0.375419

  @DF-RHF Final Energy:  -191.99502604757379

   => Energetics <=

    Nuclear Repulsion Energy =            119.4404062858360618
    One-Electron Energy =                -497.0791041864123372
    Two-Electron Energy =                 185.6436718530024166
    DFT Exchange-Correlation Energy =       0.0000000000000000
    Empirical Dispersion Energy =           0.0000000000000000
    PCM Polarization Energy =               0.0000000000000000
    EFP Energy =                            0.0000000000000000
    Total Energy =                       -191.9950260475738730
    Molecular point group: c1
  Basis Set: CC-PVTZ
  Basis Set:

  -Total Gradient:
     Atom            X                  Y                   Z
    ------   -----------------  -----------------  -----------------
       1       -0.001957588448    -0.001022245411    -0.000880842733
       2        0.002057957843     0.001029197398     0.001309728544
       3        0.001463538005     0.000854879184    -0.001350929424
       4       -0.000052750131    -0.000068624242    -0.000069796694
       5       -0.001540863785    -0.000855328150     0.000981135559
       6        0.000014231275     0.000004043155    -0.000017024076
       7       -0.000018444202     0.000002452356    -0.000008715631
       8       -0.000005913318     0.000042358805     0.000016497295
       9        0.000021859042     0.000000655020     0.000002731315
      10        0.000017973719     0.000012611887     0.000017215844

  **** Optimization is complete! (in 5 steps) ****
    Final optimized geometry and variables:
    Molecular point group: c1

    Geometry (in Angstrom), charge = 0, multiplicity = 1:

    H            0.879993339174    -1.236211077920    -0.006074189328
    O            0.990198235333    -0.767479330846    -0.810635322336
    C            0.327050895913     0.458911267202    -0.767655210450
    C           -0.573852204275     0.678131202138     0.413753575320
    H           -0.281525867683     0.546365159410    -1.663249459877
    H            1.057034025837     1.262678526029    -0.796073047258
    C           -0.944846865755    -0.205696646745     1.313593336877
    H           -0.948983484241     1.684746423651     0.491629836168
    H           -0.632392873936    -1.234134623970     1.294629626653
    H           -1.600539042585     0.067634364437     2.117623380801

  Mulliken Charges: (a.u.)
   Center  Symbol    Alpha    Beta     Spin     Total
       1     H     0.38862  0.38862  0.00000  0.22276
       2     O     4.20307  4.20307  0.00000 -0.40613
       3     C     2.93089  2.93089  0.00000  0.13822
       4     C     3.07593  3.07593  0.00000 -0.15185
       5     H     0.46657  0.46657  0.00000  0.06686
       6     H     0.47141  0.47141  0.00000  0.05718
       7     C     3.17580  3.17580  0.00000 -0.35160
       8     H     0.42224  0.42224  0.00000  0.15552
       9     H     0.44013  0.44013  0.00000  0.11975
      10     H     0.42535  0.42535  0.00000  0.14930

   Total alpha = 16.00000, Total beta = 16.00000, Total charge = -0.00000

*** Psi4 exiting successfully. Buy a developer a beer!
