  ==> Input File <==

--------------------------------------------------------------------------
set {
	reference rhf
	basis 6-31G*
}

set_num_threads( 4 )
memory 2 gb

molecule MOL {
0 1

O	 3.225979	 0.970355	 -0.599647
C	 2.701189	 0.057885	 -0.047330
C	 1.245376	 -0.013843	 0.345420
O	 3.347903	 -1.046386	 0.304773
C	 0.344073	 0.852592	 -0.531541
H	 0.958702	 -1.059829	 0.315034
H	 1.177392	 0.282367	 1.389132
C	 -1.120514	 0.872920	 -0.080915
H	 0.407765	 0.509990	 -1.559980
H	 0.730460	 1.866062	 -0.529347
C	 -1.854257	 -0.464959	 -0.210568
H	 -1.645745	 1.616244	 -0.676169
H	 -1.177731	 1.217641	 0.950542
C	 -3.338703	 -0.366465	 0.146812
H	 -1.753758	 -0.830561	 -1.231378
H	 -1.388103	 -1.211419	 0.428549
C	 -4.080939	 -1.698604	 0.025889
H	 -3.815886	 0.369617	 -0.497946
H	 -3.440091	 0.009265	 1.163792
C	 -5.563542	 -1.590814	 0.380812
H	 -3.979796	 -2.075979	 -0.989493
H	 -3.608090	 -2.434480	 0.672944
H	 -6.062009	 -2.550543	 0.285635
H	 -6.072803	 -0.887550	 -0.272081
H	 -5.698123	 -1.248223	 1.402963
C	 4.728119	 -1.109107	 -0.004993
H	 4.882018	 -1.033965	 -1.071845
H	 5.068212	 -2.067527	 0.355250
H	 5.265056	 -0.311663	 0.488280

	symmetry c1
}
set optking {
	frozen_dihedral = ("
		6 3 2 1
	")
}

ee = optimize('scf')
oeprop('DIPOLE', 'QUADRUPOLE', 'MULLIKEN_CHARGES')
f=open( 'psi4out.xyz', 'w' )
f.write( "29  " )
f.write( str(ee) + "\n" )
f.write( MOL.save_string_xyz() )
f.close()
--------------------------------------------------------------------------

    Molecular point group: c1
  Charge       = 0
  Multiplicity = 1
  Basis Set: 6-31G*
  Basis Set:
  @DF-RHF Final Energy:  -501.04349524054010
    Total Energy =                       -501.0434952405405511
    Molecular point group: c1
  Basis Set: 6-31G*
  Basis Set:
  Basis Set: 6-31G*
  Basis Set:
  @DF-RHF Final Energy:  -501.04252639313142
    Total Energy =                       -501.0425263931322206
  Basis Set: 6-31G*
  Basis Set:
  Basis Set: 6-31G*
  Basis Set:
  @DF-RHF Final Energy:  -501.04365171962058
    Total Energy =                       -501.0436517196210389
  Basis Set: 6-31G*
  Basis Set:
  Basis Set: 6-31G*
  Basis Set:
  @DF-RHF Final Energy:  -501.04371289137089
    Total Energy =                       -501.0437128913707738
  Basis Set: 6-31G*
  Basis Set:
  Basis Set: 6-31G*
  Basis Set:
  @DF-RHF Final Energy:  -501.04369498293420
    Total Energy =                       -501.0436949829337436
  Basis Set: 6-31G*
  Basis Set:
  Basis Set: 6-31G*
  Basis Set:
  @DF-RHF Final Energy:  -501.04371500516379
    Total Energy =                       -501.0437150051631079
  Basis Set: 6-31G*
  Basis Set:
  Charge       = 0
  Multiplicity = 1
  Basis Set: 6-31G*
  Basis Set:

    Orbital Energies (a.u.)
    -----------------------

    Doubly Occupied:

       1A    -20.604416     2A    -20.544255     3A    -11.372056
       4A    -11.280723     5A    -11.234395     6A    -11.220178
       7A    -11.218004     8A    -11.216139     9A    -11.215983
      10A    -11.214589    11A    -11.209168    12A     -1.469422
      13A     -1.362184    14A     -1.098269    15A     -1.066835
      16A     -1.019412    17A     -0.977412    18A     -0.928872
      19A     -0.861801    20A     -0.799359    21A     -0.790552
      22A     -0.765371    23A     -0.700332    24A     -0.681477
      25A     -0.672304    26A     -0.651123    27A     -0.628034
      28A     -0.605218    29A     -0.595154    30A     -0.580919
      31A     -0.564444    32A     -0.553761    33A     -0.531921
      34A     -0.529693    35A     -0.515436    36A     -0.513745
      37A     -0.495495    38A     -0.478034    39A     -0.470190
      40A     -0.462698    41A     -0.459162    42A     -0.455728
      43A     -0.440159    44A     -0.435564

  @DF-RHF Final Energy:  -501.04371501152787

   => Energetics <=

    Nuclear Repulsion Energy =            610.2203036086086740
    One-Electron Energy =               -1891.5480700924956636
    Two-Electron Energy =                 780.2840514723593515
    DFT Exchange-Correlation Energy =       0.0000000000000000
    Empirical Dispersion Energy =           0.0000000000000000
    PCM Polarization Energy =               0.0000000000000000
    EFP Energy =                            0.0000000000000000
    Total Energy =                       -501.0437150115276381
    Molecular point group: c1
  Basis Set: 6-31G*
  Basis Set:

  -Total Gradient:
     Atom            X                  Y                   Z
    ------   -----------------  -----------------  -----------------
       1        0.000182098969     0.000334416012     0.000813036686
       2       -0.000232363956    -0.000498400211    -0.000991619138
       3       -0.000185908461     0.000252304634    -0.000645938661
       4        0.000013712883     0.000001644917     0.000009294194
       5        0.000011751797     0.000005607890    -0.000001597712
       6        0.000222978809    -0.000102618385     0.000820194189
       7       -0.000000434608     0.000005844303    -0.000011870612
       8       -0.000009621752     0.000000400846    -0.000008213410
       9        0.000009327107    -0.000002885188     0.000006459761
      10       -0.000000188878     0.000009451009    -0.000007135185
      11        0.000005645516    -0.000001588882     0.000018940391
      12       -0.000011901086     0.000002663617     0.000006879874
      13        0.000002863684    -0.000007419115    -0.000000926915
      14       -0.000000055176     0.000002725122    -0.000003301920
      15        0.000008803178    -0.000004133741     0.000008128095
      16       -0.000008314983     0.000004693700     0.000004956154
      17       -0.000002886355     0.000003082264    -0.000010600113
      18       -0.000002031841     0.000007377261     0.000006204598
      19        0.000003018500    -0.000008550791     0.000001095473
      20       -0.000001272823     0.000001441748    -0.000005723552
      21        0.000001177106    -0.000004486724    -0.000000686823
      22       -0.000000654339     0.000004429777     0.000001806702
      23       -0.000000056010     0.000000160685    -0.000000686365
      24       -0.000001270842     0.000000255259     0.000000524061
      25        0.000001286861    -0.000000279957    -0.000000178133
      26       -0.000013621532    -0.000009784464    -0.000015494178
      27        0.000007427253    -0.000000169302     0.000000682965
      28        0.000003980459     0.000000870026     0.000002253812
      29       -0.000003489491     0.000002947689     0.000003515764

  **** Optimization is complete! (in 7 steps) ****
    Final optimized geometry and variables:
    Molecular point group: c1

    Geometry (in Angstrom), charge = 0, multiplicity = 1:

    O            3.198549422870     1.299554684754    -0.583667246988
    C            2.692536270407     0.363450413572    -0.052838597012
    C            1.234170996514     0.257762674178     0.325542712319
    O            3.371695618448    -0.714448157105     0.316254582615
    C            0.332661359690     1.156420576503    -0.520574282510
    H            0.946016799844    -0.784642802052     0.279768990491
    H            1.171145495358     0.542749689496     1.374583270425
    C           -1.125328703737     1.188781966026    -0.050647347669
    H            0.373969566266     0.831604868453    -1.557332140882
    H            0.737157943210     2.161492222951    -0.501890802977
    C           -1.878522929895    -0.137143553184    -0.190184934318
    H           -1.648326609135     1.948422029851    -0.627004299278
    H           -1.162826433827     1.518339166303     0.986624307142
    C           -3.356778198434    -0.024426267298     0.187957937778
    H           -1.796187493413    -0.488918284906    -1.217504904089
    H           -1.413697260951    -0.898934334541     0.431471541423
    C           -4.118880932167    -1.344073788099     0.054380796099
    H           -3.831920278581     0.728928965589    -0.438102862374
    H           -3.439999353398     0.335401434415     1.212300439533
    C           -5.595247190758    -1.222059355194     0.430093366217
    H           -4.035819537003    -1.705646232134    -0.968374259402
    H           -3.648112910246    -2.097121851601     0.682911392773
    H           -6.108098061007    -2.173183533752     0.325413858661
    H           -6.102949253386    -0.501052501432    -0.204400219053
    H           -5.712131875585    -0.894876448441     1.459437610310
    C            4.765593829179    -0.712014855014     0.066246134521
    H            4.961145826670    -0.621118248179    -0.992431954082
    H            5.133047566372    -1.657001430834     0.434937022831
    H            5.243736417802     0.105020169905     0.587207196581

  Mulliken Charges: (a.u.)
   Center  Symbol    Alpha    Beta     Spin     Total
       1     O     4.28645  4.28645  0.00000 -0.57289
       2     C     2.60336  2.60336  0.00000  0.79327
       3     C     3.21150  3.21150  0.00000 -0.42299
       4     O     4.30681  4.30681  0.00000 -0.61362
       5     C     3.15687  3.15687  0.00000 -0.31375
       6     H     0.39864  0.39864  0.00000  0.20272
       7     H     0.40095  0.40095  0.00000  0.19810
       8     C     3.15653  3.15653  0.00000 -0.31305
       9     H     0.41720  0.41720  0.00000  0.16560
      10     H     0.40267  0.40267  0.00000  0.19465
      11     C     3.15489  3.15489  0.00000 -0.30979
      12     H     0.41821  0.41821  0.00000  0.16357
      13     H     0.42338  0.42338  0.00000  0.15325
      14     C     3.15036  3.15036  0.00000 -0.30071
      15     H     0.42304  0.42304  0.00000  0.15392
      16     H     0.42315  0.42315  0.00000  0.15371
      17     C     3.15144  3.15144  0.00000 -0.30288
      18     H     0.42337  0.42337  0.00000  0.15327
      19     H     0.42390  0.42390  0.00000  0.15220
      20     C     3.23935  3.23935  0.00000 -0.47870
      21     H     0.42289  0.42289  0.00000  0.15421
      22     H     0.42335  0.42335  0.00000  0.15329
      23     H     0.41923  0.41923  0.00000  0.16154
      24     H     0.42156  0.42156  0.00000  0.15688
      25     H     0.42178  0.42178  0.00000  0.15643
      26     C     3.09292  3.09292  0.00000 -0.18584
      27     H     0.40857  0.40857  0.00000  0.18286
      28     H     0.40845  0.40845  0.00000  0.18309
      29     H     0.40917  0.40917  0.00000  0.18165

   Total alpha = 44.00000, Total beta = 44.00000, Total charge = -0.00000
