  ==> Input File <==

--------------------------------------------------------------------------
set {
	reference rhf
	basis 6-31G*
}

set_num_threads( 4 )
memory 2 gb

molecule MOL {
0 1

O	 2.583780	 1.792937	 1.281549
C	 2.413531	 0.837043	 1.974399
C	 1.121206	 0.040600	 1.951800
C	 3.485880	 0.353450	 2.929051
C	 0.078872	 0.574420	 0.973633
H	 1.371476	 -0.994040	 1.720988
H	 0.723629	 0.021679	 2.965692
C	 -1.207779	 -0.252783	 0.978693
H	 0.503598	 0.590459	 -0.025106
H	 -0.145192	 1.607237	 1.221084
C	 -2.259874	 0.272531	 0.000494
H	 -0.975331	 -1.288031	 0.733182
H	 -1.627525	 -0.266032	 1.983534
C	 -3.549786	 -0.549746	 -0.000374
H	 -1.841596	 0.285546	 -1.004441
H	 -2.493660	 1.307090	 0.245503
C	 -4.809590	 0.315458	 -0.000369
H	 -3.560515	 -1.202009	 -0.871156
H	 -3.561123	 -1.202955	 0.869711
H	 -4.844746	 0.956611	 -0.876632
H	 -5.706986	 -0.295590	 -0.001609
H	 -4.845960	 0.954827	 0.877144
H	 3.768018	 -0.669059	 2.695618
H	 4.354436	 0.993109	 2.856381
H	 3.115115	 0.360276	 3.949894

	symmetry c1
}
set optking {
	frozen_dihedral = ("
		15 11 14 18
	")
}

ee = optimize('scf')
oeprop('DIPOLE', 'QUADRUPOLE', 'MULLIKEN_CHARGES')
f=open( 'psi4out.xyz', 'w' )
f.write( "25  " )
f.write( str(ee) + "\n" )
f.write( MOL.save_string_xyz() )
f.close()
--------------------------------------------------------------------------

    Molecular point group: c1
  Charge       = 0
  Multiplicity = 1
  Basis Set: 6-31G*
  Basis Set:
  @DF-RHF Final Energy:  -387.13166236325515
    Total Energy =                       -387.1316623632557139
    Molecular point group: c1
  Basis Set: 6-31G*
  Basis Set:
  Basis Set: 6-31G*
  Basis Set:
  @DF-RHF Final Energy:  -387.13191541238325
    Total Energy =                       -387.1319154123837052
  Basis Set: 6-31G*
  Basis Set:
  Basis Set: 6-31G*
  Basis Set:
  @DF-RHF Final Energy:  -387.13199827203658
    Total Energy =                       -387.1319982720366397
  Basis Set: 6-31G*
  Basis Set:
  Basis Set: 6-31G*
  Basis Set:
  @DF-RHF Final Energy:  -387.13200196792855
    Total Energy =                       -387.1320019679291136
  Basis Set: 6-31G*
  Basis Set:
  Charge       = 0
  Multiplicity = 1
  Basis Set: 6-31G*
  Basis Set:

    Orbital Energies (a.u.)
    -----------------------

    Doubly Occupied:

       1A    -20.550449     2A    -11.326286     3A    -11.231881
       4A    -11.228337     5A    -11.217095     6A    -11.216372
       7A    -11.215159     8A    -11.213347     9A    -11.208427
      10A     -1.395752    11A     -1.092687    12A     -1.054919
      13A     -1.014221    14A     -0.969102    15A     -0.890077
      16A     -0.815105    17A     -0.790300    18A     -0.729837
      19A     -0.659527    20A     -0.652290    21A     -0.628428
      22A     -0.623558    23A     -0.599487    24A     -0.586002
      25A     -0.568978    26A     -0.558820    27A     -0.534555
      28A     -0.527869    29A     -0.514733    30A     -0.489873
      31A     -0.485877    32A     -0.476114    33A     -0.463744
      34A     -0.457612    35A     -0.449008    36A     -0.399262

  @DF-RHF Final Energy:  -387.13200265115239

   => Energetics <=

    Nuclear Repulsion Energy =            438.6214909105435140
    One-Electron Energy =               -1393.8368097367977043
    Two-Electron Energy =                 568.0833161751020270
    DFT Exchange-Correlation Energy =       0.0000000000000000
    Empirical Dispersion Energy =           0.0000000000000000
    PCM Polarization Energy =               0.0000000000000000
    EFP Energy =                            0.0000000000000000
    Total Energy =                       -387.1320026511521064
    Molecular point group: c1
  Basis Set: 6-31G*
  Basis Set:

  -Total Gradient:
     Atom            X                  Y                   Z
    ------   -----------------  -----------------  -----------------
       1        0.000018470448    -0.000031633959    -0.000036235775
       2       -0.000062184423     0.000105881184     0.000137050756
       3        0.000025455174    -0.000021642689    -0.000033047895
       4        0.000022025440    -0.000029657890    -0.000038998447
       5       -0.000004727236     0.000009575245     0.000001779294
       6       -0.000017091710    -0.000020292960    -0.000001049549
       7        0.000022613892     0.000014248485    -0.000009667454
       8       -0.000034763340     0.000019526036     0.000068822134
       9        0.000014256276    -0.000005203211    -0.000001646713
      10        0.000001486840    -0.000004688201    -0.000012776032
      11       -0.002734119148     0.004123692262    -0.001358452795
      12        0.000009997519     0.000016399986    -0.000036048566
      13        0.000003412390    -0.000043380482     0.000002169303
      14        0.002462195982    -0.003748838891     0.002481092253
      15        0.001841190369    -0.002903830353     0.000741107370
      16       -0.000008732739    -0.000035846118    -0.000009502893
      17        0.000003265756     0.000033436435     0.000016954511
      18       -0.001591230872     0.002504243220    -0.001879225058
      19        0.000026784809     0.000039877855    -0.000017707534
      20        0.000005041166    -0.000007272131    -0.000002777441
      21       -0.000006679544    -0.000008823668     0.000008383437
      22       -0.000002817065     0.000002846050    -0.000010513613
      23        0.000019822156    -0.000012634092     0.000012829997
      24        0.000002632987    -0.000002258755    -0.000001383119
      25       -0.000016305134     0.000006276642    -0.000021156172

  **** Optimization is complete! (in 5 steps) ****
    Final optimized geometry and variables:
    Molecular point group: c1

    Geometry (in Angstrom), charge = 0, multiplicity = 1:

    O            2.842149841373     1.399770320611     0.145861704861
    C            2.669225184577     0.448839157435     0.844839074949
    C            1.370847088810    -0.337987490469     0.834819419333
    C            3.744532303354    -0.038506296897     1.794252913273
    C            0.325505998600     0.199382355389    -0.138263948636
    H            1.611660445785    -1.375492857396     0.606694508969
    H            0.980518209791    -0.349532100788     1.851593897519
    C           -0.966192335764    -0.618930755721    -0.122454428177
    H            0.744138581705     0.209745081589    -1.139701834692
    H            0.109789009933     1.234590584249     0.107167882448
    C           -2.027619082759    -0.082613830238    -1.087765857891
    H           -0.744303929004    -1.654960658536    -0.375445966913
    H           -1.376355358810    -0.634549195650     0.886380603581
    C           -3.314459749202    -0.932571220084    -1.108096308970
    H           -1.592364657586    -0.057213500214    -2.083542449938
    H           -2.261716716622     0.944646720360    -0.820083720309
    C           -4.589397283796    -0.087987158938    -1.160684001373
    H           -3.306471252951    -1.583476566872    -1.977989648187
    H           -3.351151289732    -1.576000306515    -0.233212123789
    H           -4.595297137182     0.556151581810    -2.035596171942
    H           -5.475884181697    -0.713568037351    -1.204482396354
    H           -4.674152840275     0.547759259497    -0.283768179759
    H            4.017183564179    -1.064306700769     1.563948999549
    H            4.617476587009     0.594022116370     1.712409464865
    H            3.380924563102    -0.023816692110     2.817577278957

  Mulliken Charges: (a.u.)
   Center  Symbol    Alpha    Beta     Spin     Total
       1     O     4.26115  4.26115  0.00000 -0.52231
       2     C     2.73571  2.73571  0.00000  0.52858
       3     C     3.21074  3.21074  0.00000 -0.42148
       4     C     3.28663  3.28663  0.00000 -0.57327
       5     C     3.14861  3.14861  0.00000 -0.29722
       6     H     0.40997  0.40997  0.00000  0.18006
       7     H     0.41005  0.41005  0.00000  0.17991
       8     C     3.15593  3.15593  0.00000 -0.31185
       9     H     0.41221  0.41221  0.00000  0.17557
      10     H     0.41226  0.41226  0.00000  0.17547
      11     C     3.15358  3.15358  0.00000 -0.30715
      12     H     0.42452  0.42452  0.00000  0.15095
      13     H     0.42496  0.42496  0.00000  0.15008
      14     C     3.15402  3.15402  0.00000 -0.30803
      15     H     0.42007  0.42007  0.00000  0.15986
      16     H     0.41989  0.41989  0.00000  0.16022
      17     C     3.23998  3.23998  0.00000 -0.47996
      18     H     0.42062  0.42062  0.00000  0.15877
      19     H     0.42127  0.42127  0.00000  0.15746
      20     H     0.42100  0.42100  0.00000  0.15801
      21     H     0.42076  0.42076  0.00000  0.15849
      22     H     0.42218  0.42218  0.00000  0.15565
      23     H     0.40873  0.40873  0.00000  0.18254
      24     H     0.39646  0.39646  0.00000  0.20707
      25     H     0.40871  0.40871  0.00000  0.18257

   Total alpha = 36.00000, Total beta = 36.00000, Total charge =  0.00000
