  ==> Input File <==

--------------------------------------------------------------------------
set {
	reference rhf
	basis cc-pvtz
}

set_num_threads( 4 )
memory 2 gb

molecule MOL {
0 1

H	 2.736284	 0.017052	 -0.438380
N	 1.761824	 0.225111	 -0.445411
C	 1.228435	 0.224756	 0.901934
C	 1.046903	 -0.699922	 -1.301592
H	 1.772109	 0.947341	 1.498291
H	 1.324292	 -0.749373	 1.385157
C	 -0.240822	 0.603931	 0.862152
H	 1.459035	 -0.647379	 -2.301961
H	 1.131291	 -1.732472	 -0.957589
C	 -0.422117	 -0.319535	 -1.338487
H	 -0.331442	 1.640399	 0.524345
H	 -0.656073	 0.546952	 1.861372
N	 -0.976577	 -0.298712	 -0.000000
H	 -0.968454	 -1.044237	 -1.930467
H	 -0.525226	 0.653314	 -1.827899
C	 -2.391156	 -0.021003	 -0.000000
H	 -2.853954	 -0.458728	 -0.875714
H	 -2.853954	 -0.458728	 0.875714
H	 -2.614037	 1.049773	 -0.000000

	symmetry c1
}
set optking {
	frozen_dihedral = ("
		7 13 16 19
	")
}

ee = optimize('scf')
oeprop('DIPOLE', 'QUADRUPOLE', 'MULLIKEN_CHARGES')
f=open( 'psi4out.xyz', 'w' )
f.write( "19  " )
f.write( str(ee) + "\n" )
f.write( MOL.save_string_xyz() )
f.close()
--------------------------------------------------------------------------

    Molecular point group: c1
  Charge       = 0
  Multiplicity = 1
  Basis Set: CC-PVTZ
  Basis Set:
  @DF-RHF Final Energy:  -305.30697102800133
    Total Energy =                       -305.3069710280012714
    Molecular point group: c1
  Basis Set: CC-PVTZ
  Basis Set:
  Basis Set: CC-PVTZ
  Basis Set:
  @DF-RHF Final Energy:  -305.30713848487540
    Total Energy =                       -305.3071384848751109
  Basis Set: CC-PVTZ
  Basis Set:
  Basis Set: CC-PVTZ
  Basis Set:
  @DF-RHF Final Energy:  -305.30715648095418
    Total Energy =                       -305.3071564809540632
  Basis Set: CC-PVTZ
  Basis Set:
  Charge       = 0
  Multiplicity = 1
  Basis Set: CC-PVTZ
  Basis Set:

    Orbital Energies (a.u.)
    -----------------------

    Doubly Occupied:

       1A    -15.536771     2A    -15.531039     3A    -11.237150
       4A    -11.237045     5A    -11.235836     6A    -11.235775
       7A    -11.233102     8A     -1.248730     9A     -1.187308
      10A     -1.023579    11A     -0.965486    12A     -0.861230
      13A     -0.858642    14A     -0.758172    15A     -0.692616
      16A     -0.633837    17A     -0.626688    18A     -0.609439
      19A     -0.604977    20A     -0.581065    21A     -0.543788
      22A     -0.530169    23A     -0.513306    24A     -0.490006
      25A     -0.466920    26A     -0.457576    27A     -0.365774
      28A     -0.348754

  @DF-RHF Final Energy:  -305.30715746296022

   => Energetics <=

    Nuclear Repulsion Energy =            340.2317475168563874
    One-Electron Energy =               -1087.8482466095115342
    Two-Electron Energy =                 442.3093416296950409
    DFT Exchange-Correlation Energy =       0.0000000000000000
    Empirical Dispersion Energy =           0.0000000000000000
    PCM Polarization Energy =               0.0000000000000000
    EFP Energy =                            0.0000000000000000
    Total Energy =                       -305.3071574629601628
    Molecular point group: c1
  Basis Set: CC-PVTZ
  Basis Set:

  -Total Gradient:
     Atom            X                  Y                   Z
    ------   -----------------  -----------------  -----------------
       1       -0.000020648579    -0.000003295843    -0.000002512034
       2       -0.000016452571    -0.000000765929     0.000006259998
       3        0.000023714636    -0.000019498917     0.000019656009
       4        0.000056278458     0.000014956622    -0.000025449033
       5       -0.000003751415    -0.000002098664    -0.000004109765
       6        0.000015016634    -0.000008621009     0.000006519987
       7        0.000409265193     0.002119680251    -0.002701570419
       8        0.000025548441    -0.000002856370    -0.000008117052
       9       -0.000011376149     0.000015403439     0.000000624346
      10       -0.000042084589    -0.000036886639     0.000112428342
      11       -0.000010600905     0.000026917029     0.000007097048
      12        0.000007184521     0.000004853937    -0.000000073393
      13       -0.000617973394    -0.002902732080     0.004877669402
      14       -0.000008018150     0.000006239767    -0.000002539959
      15        0.000007851124    -0.000002533960     0.000003899153
      16        0.000164202515     0.000772491552    -0.006929428105
      17        0.000019795082    -0.000014634438     0.000001425153
      18       -0.000010122863    -0.000000531010     0.000029836990
      19        0.000012172010     0.000033912261     0.004608383332

  **** Optimization is complete! (in 4 steps) ****
    Final optimized geometry and variables:
    Molecular point group: c1

    Geometry (in Angstrom), charge = 0, multiplicity = 1:

    H            2.747247016830     0.051227519177    -0.239180934681
    N            1.773650435778     0.263409532649    -0.250134723030
    C            1.232963617696     0.261899169730     1.094001096522
    C            1.058733498886    -0.654988718484    -1.113065316181
    H            1.770769058680     0.986602309691     1.693335755811
    H            1.328224611567    -0.711429081810     1.578980477324
    C           -0.236562886559     0.637895272430     1.043445078040
    H            1.473554177408    -0.598181666816    -2.112247764139
    H            1.139653004335    -1.689711367027    -0.774493533569
    C           -0.410468253359    -0.274033492014    -1.152594483244
    H           -0.328882351764     1.669689874724     0.693596462708
    H           -0.656137800888     0.592029962723     2.042206711291
    N           -0.970871559876    -0.271974671885     0.186302100702
    H           -0.950505283370    -0.993869915564    -1.755457549680
    H           -0.510579062019     0.703745675985    -1.632547539631
    C           -2.388092592469     0.016664339413     0.192945720562
    H           -2.872799945307    -0.441945604902    -0.657849983692
    H           -2.842553325456    -0.387260317227     1.091502609560
    H           -2.600227636519     1.087700251582     0.188314128041

  Mulliken Charges: (a.u.)
   Center  Symbol    Alpha    Beta     Spin     Total
       1     H     0.44000  0.44000  0.00000  0.11999
       2     N     3.64290  3.64290  0.00000 -0.28579
       3     C     3.04080  3.04080  0.00000 -0.08161
       4     C     3.04162  3.04162  0.00000 -0.08324
       5     H     0.45251  0.45251  0.00000  0.09499
       6     H     0.46527  0.46527  0.00000  0.06945
       7     C     3.03604  3.03604  0.00000 -0.07207
       8     H     0.45252  0.45252  0.00000  0.09497
       9     H     0.46547  0.46547  0.00000  0.06906
      10     C     3.03310  3.03310  0.00000 -0.06620
      11     H     0.46723  0.46723  0.00000  0.06553
      12     H     0.45401  0.45401  0.00000  0.09199
      13     N     3.61592  3.61592  0.00000 -0.23185
      14     H     0.45403  0.45403  0.00000  0.09194
      15     H     0.46925  0.46925  0.00000  0.06151
      16     C     3.09646  3.09646  0.00000 -0.19293
      17     H     0.45365  0.45365  0.00000  0.09269
      18     H     0.45078  0.45078  0.00000  0.09843
      19     H     0.46843  0.46843  0.00000  0.06314

   Total alpha = 28.00000, Total beta = 28.00000, Total charge = -0.00000
