  ==> Input File <==

--------------------------------------------------------------------------
set {
	reference rhf
	basis 6-31G*
}

set_num_threads( 4 )
memory 2 gb

molecule MOL {
0 1

H	 2.332609	 0.878551	 -1.051851
C	 2.357710	 0.000000	 -0.417167
C	 1.175432	 0.000000	 0.532082
H	 3.291263	 0.000000	 0.136880
H	 2.332609	 -0.878551	 -1.051851
O	 0.000000	 0.000000	 -0.221444
H	 1.206604	 0.877321	 1.177902
H	 1.206604	 -0.877321	 1.177902
C	 -1.175432	 0.000000	 0.532082
C	 -1.981399	 1.232094	 0.169843
H	 -0.938649	 0.000000	 1.595887
H	 -1.750466	 -0.903358	 0.329527
H	 -1.413464	 2.130857	 0.381931
H	 -2.905161	 1.264152	 0.739164
H	 -2.226419	 1.226232	 -0.886204

	symmetry c1
}
set optking {
	frozen_dihedral = ("
		11 9 6 3
	")
}

ee = optimize('scf')
oeprop('DIPOLE', 'QUADRUPOLE', 'MULLIKEN_CHARGES')
f=open( 'psi4out.xyz', 'w' )
f.write( "15  " )
f.write( str(ee) + "\n" )
f.write( MOL.save_string_xyz() )
f.close()
--------------------------------------------------------------------------

    Molecular point group: c1
  Charge       = 0
  Multiplicity = 1
  Basis Set: 6-31G*
  Basis Set:
  @DF-RHF Final Energy:  -232.14043589501296
    Total Energy =                       -232.1404358950130700
    Molecular point group: c1
  Basis Set: 6-31G*
  Basis Set:
  Basis Set: 6-31G*
  Basis Set:
  @DF-RHF Final Energy:  -232.14081337122943
    Total Energy =                       -232.1408133712295125
  Basis Set: 6-31G*
  Basis Set:
  Basis Set: 6-31G*
  Basis Set:
  @DF-RHF Final Energy:  -232.14092941316710
    Total Energy =                       -232.1409294131672141
  Basis Set: 6-31G*
  Basis Set:
  Charge       = 0
  Multiplicity = 1
  Basis Set: 6-31G*
  Basis Set:

    Orbital Energies (a.u.)
    -----------------------

    Doubly Occupied:

       1A    -20.547805     2A    -11.269020     3A    -11.267727
       4A    -11.208678     5A    -11.208463     6A     -1.372735
       7A     -1.042473     8A     -0.983206     9A     -0.851859
      10A     -0.822389    11A     -0.670455    12A     -0.660333
      13A     -0.628555    14A     -0.577021    15A     -0.550829
      16A     -0.537295    17A     -0.522416    18A     -0.500111
      19A     -0.485818    20A     -0.462214    21A     -0.404328

  @DF-RHF Final Energy:  -232.14093038912605

   => Energetics <=

    Nuclear Repulsion Energy =            191.4025178164523879
    One-Electron Energy =                -693.9394382049300702
    Two-Electron Energy =                 270.3959899993515137
    DFT Exchange-Correlation Energy =       0.0000000000000000
    Empirical Dispersion Energy =           0.0000000000000000
    PCM Polarization Energy =               0.0000000000000000
    EFP Energy =                            0.0000000000000000
    Total Energy =                       -232.1409303891261970
    Molecular point group: c1
  Basis Set: 6-31G*
  Basis Set:

  -Total Gradient:
     Atom            X                  Y                   Z
    ------   -----------------  -----------------  -----------------
       1        0.000000814957    -0.000005106255     0.000000281474
       2        0.000020918867     0.000022398300     0.000016572314
       3        0.000057224875     0.000295740374    -0.000044228114
       4        0.000040928493     0.000000402563    -0.000005600734
       5       -0.000012450063     0.000013362518     0.000021444463
       6       -0.000087575301    -0.000606723338     0.000045310203
       7       -0.000023842834    -0.000012057582    -0.000036258313
       8        0.000000672006     0.000010580931     0.000014804067
       9        0.000094960835     0.000766389363    -0.000072576622
      10       -0.000036751273    -0.000038447460     0.000013813740
      11       -0.000032160995    -0.000441368158     0.000037009018
      12       -0.000039933566     0.000026616323     0.000005450561
      13        0.000016914882    -0.000031515809     0.000007020437
      14       -0.000008849100     0.000003415153    -0.000000258083
      15        0.000009128218    -0.000003686924    -0.000002784412

  **** Optimization is complete! (in 4 steps) ****
    Final optimized geometry and variables:
    Molecular point group: c1

    Geometry (in Angstrom), charge = 0, multiplicity = 1:

    H            2.250093111608     0.631002283404    -1.175530466336
    C            2.285580589355    -0.255243998343    -0.552082095560
    C            1.120038914224    -0.265971975460     0.417233175651
    H            3.228881605819    -0.263322829534    -0.014447081960
    H            2.247708646689    -1.125852105459    -1.196973950947
    O           -0.067294468716    -0.255472775449    -0.320255997768
    H            1.165273008037     0.603485884754     1.071984516175
    H            1.164314467838    -1.151007264154     1.050592097218
    C           -1.259044046985    -0.228521948919     0.419520545629
    C           -2.084254781434     0.988187800987     0.037289601767
    H           -1.046817917463    -0.220052427695     1.485477959261
    H           -1.813138544422    -1.139310325255     0.211580449039
    H           -1.549141406322     1.902622287868     0.271573927695
    H           -3.029852027364     0.995843239671     0.571878154950
    H           -2.291350494102     0.981947744649    -1.026977694943

  Mulliken Charges: (a.u.)
   Center  Symbol    Alpha    Beta     Spin     Total
       1     H     0.41360  0.41360  0.00000  0.17280
       2     C     3.24448  3.24448  0.00000 -0.48897
       3     C     2.98820  2.98820  0.00000  0.02360
       4     H     0.42280  0.42280  0.00000  0.15440
       5     H     0.41314  0.41314  0.00000  0.17372
       6     O     4.31235  4.31235  0.00000 -0.62470
       7     H     0.43260  0.43260  0.00000  0.13481
       8     H     0.43163  0.43163  0.00000  0.13673
       9     C     2.98971  2.98971  0.00000  0.02058
      10     C     3.24237  3.24237  0.00000 -0.48474
      11     H     0.43064  0.43064  0.00000  0.13872
      12     H     0.42277  0.42277  0.00000  0.15446
      13     H     0.41874  0.41874  0.00000  0.16252
      14     H     0.42431  0.42431  0.00000  0.15139
      15     H     0.41266  0.41266  0.00000  0.17468

   Total alpha = 21.00000, Total beta = 21.00000, Total charge =  0.00000
