  ==> Input File <==

--------------------------------------------------------------------------
set {
	reference rhf
	basis 6-31G*
}

set_num_threads( 4 )
memory 2 gb

molecule MOL {
0 1

H	 -2.153054	 -2.250733	 0.000000
O	 -2.462445	 -1.355403	 0.000000
C	 -1.434260	 -0.483044	 0.000000
C	 -0.160282	 -0.998433	 0.214627
C	 -1.606806	 0.873172	 -0.202032
H	 -0.050522	 -2.055314	 0.369249
C	 0.931284	 -0.154718	 0.225708
H	 -2.586306	 1.284548	 -0.369080
C	 -0.495009	 1.711703	 -0.187945
H	 1.912113	 -0.560710	 0.392185
C	 0.777868	 1.209965	 0.024721
C	 -0.683838	 3.129388	 -0.400099
H	 1.624995	 1.868669	 0.032793
N	 -0.829653	 4.243740	 -0.567019

	symmetry c1
}
set optking {
	frozen_dihedral = ("
		14 12 9 5
	")
}

ee = optimize('scf')
oeprop('DIPOLE', 'QUADRUPOLE', 'MULLIKEN_CHARGES')
f=open( 'psi4out.xyz', 'w' )
f.write( "14  " )
f.write( str(ee) + "\n" )
f.write( MOL.save_string_xyz() )
f.close()
--------------------------------------------------------------------------

    Molecular point group: c1
  Charge       = 0
  Multiplicity = 1
  Basis Set: 6-31G*
  Basis Set:
  @DF-RHF Final Energy:  -397.28898701484985
    Total Energy =                       -397.2889870148502496
    Molecular point group: c1
  Basis Set: 6-31G*
  Basis Set:
  Basis Set: 6-31G*
  Basis Set:
  @DF-RHF Final Energy:  -397.04069151539647
    Total Energy =                       -397.0406915153964178
  Basis Set: 6-31G*
  Basis Set:
  Basis Set: 6-31G*
  Basis Set:
  @DF-RHF Final Energy:  -397.15442235764255
    Total Energy =                       -397.1544223576425452
  Basis Set: 6-31G*
  Basis Set:
  Basis Set: 6-31G*
  Basis Set:
  @DF-RHF Final Energy:  -397.23556854105016
    Total Energy =                       -397.2355685410499291
  Basis Set: 6-31G*
  Basis Set:
  @DF-RHF Final Energy:  -397.09406321838804
    Total Energy =                       -397.0940632183883281
  @DF-RHF Final Energy:  -397.16555692065322
    Total Energy =                       -397.1655569206535574
  @DF-RHF Final Energy:  -397.22515061468323
    Total Energy =                       -397.2251506146832298
  @DF-RHF Final Energy:  -397.06363271563237
    Total Energy =                       -397.0636327156324796
  @DF-RHF Final Energy:  -396.94036293366310
    Total Energy =                       -396.9403629336629820
  @DF-RHF Final Energy:  -396.98678651208371
    Total Energy =                       -396.9867865120839951
  @DF-RHF Final Energy:  -396.85701021103841
    Total Energy =                       -396.8570102110383004
  @DF-RHF Final Energy:  -396.76796895438167
    Total Energy =                       -396.7679689543816721
  @DF-RHF Final Energy:  -397.09303823451620
    Total Energy =                       -397.0930382345162570
  @DF-RHF Final Energy:  -397.10364322336955
    Total Energy =                       -397.1036432233696587
  @DF-RHF Final Energy:  -397.19791247016400
    Total Energy =                       -397.1979124701637147
  @DF-RHF Final Energy:  -397.27668572588982
    Total Energy =                       -397.2766857258900473
  @DF-RHF Final Energy:  -397.17042496304185
    Total Energy =                       -397.1704249630417962
  @DF-RHF Final Energy:  -397.26767026346107
    Total Energy =                       -397.2676702634612411
  @DF-RHF Final Energy:  -397.28790839332339
    Total Energy =                       -397.2879083933233915
  @DF-RHF Final Energy:  -397.28829649868226
    Total Energy =                       -397.2882964986822572
  @DF-RHF Final Energy:  -397.28842612099959
    Total Energy =                       -397.2884261209999295
  @DF-RHF Final Energy:  -397.29069653550869
    Total Energy =                       -397.2906965355083457
  @DF-RHF Final Energy:  -397.28847804195362
    Total Energy =                       -397.2884780419533399
  @DF-RHF Final Energy:  -397.29044973978552
    Total Energy =                       -397.2904497397856858
  @DF-RHF Final Energy:  -397.28853008720881
    Total Energy =                       -397.2885300872087555
  @DF-RHF Final Energy:  -397.28910239036372
    Total Energy =                       -397.2891023903638370
  @DF-RHF Final Energy:  -397.29125230725504
    Total Energy =                       -397.2912523072549220
  @DF-RHF Final Energy:  -397.29099763945089
    Total Energy =                       -397.2909976394508931
  @DF-RHF Final Energy:  -397.29142962826432
    Total Energy =                       -397.2914296282642681
  @DF-RHF Final Energy:  -397.29155052063555
    Total Energy =                       -397.2915505206359512
  @DF-RHF Final Energy:  -397.29151436239607
    Total Energy =                       -397.2915143623961285
  @DF-RHF Final Energy:  -397.29159596723662
    Total Energy =                       -397.2915959672369581
  @DF-RHF Final Energy:  -397.28778023697163
    Total Energy =                       -397.2877802369716846
  @DF-RHF Final Energy:  -397.29083374937170
    Total Energy =                       -397.2908337493714725
  @DF-RHF Final Energy:  -397.29117211570184
    Total Energy =                       -397.2911721157020111
  @DF-RHF Final Energy:  -397.29151222039405
    Total Energy =                       -397.2915122203943383
  Basis Set: 6-31G*
  Basis Set:
  @DF-RHF Final Energy:  -397.29161689311263
    Total Energy =                       -397.2916168931130869
  Basis Set: 6-31G*
  Basis Set:
  Basis Set: 6-31G*
  Basis Set:
  @DF-RHF Final Energy:  -397.29158818811965
    Total Energy =                       -397.2915881881198175
  Basis Set: 6-31G*
  Basis Set:
  Basis Set: 6-31G*
  Basis Set:
  @DF-RHF Final Energy:  -397.29158037555175
    Total Energy =                       -397.2915803755520301
  Basis Set: 6-31G*
  Basis Set:
  Charge       = 0
  Multiplicity = 1
  Basis Set: 6-31G*
  Basis Set:

    Orbital Energies (a.u.)
    -----------------------

    Doubly Occupied:

       1A    -20.613315     2A    -15.573696     3A    -11.326470
       4A    -11.293571     5A    -11.274805     6A    -11.264438
       7A    -11.259469     8A    -11.258958     9A    -11.258140
      10A     -1.433769    11A     -1.231197    12A     -1.181862
      13A     -1.062723    14A     -1.039773    15A     -0.899302
      16A     -0.857519    17A     -0.794226    18A     -0.714429
      19A     -0.692533    20A     -0.670474    21A     -0.628497
      22A     -0.613933    23A     -0.595438    24A     -0.564212
      25A     -0.547176    26A     -0.537028    27A     -0.525831
      28A     -0.473135    29A     -0.470861    30A     -0.362600
      31A     -0.336807

  @DF-RHF Final Energy:  -397.29157187524072

   => Energetics <=

    Nuclear Repulsion Energy =            379.3797378852651718
    One-Electron Energy =               -1290.6302485971145870
    Two-Electron Energy =                 513.9589388366086951
    DFT Exchange-Correlation Energy =       0.0000000000000000
    Empirical Dispersion Energy =           0.0000000000000000
    PCM Polarization Energy =               0.0000000000000000
    EFP Energy =                            0.0000000000000000
    Total Energy =                       -397.2915718752407201
    Molecular point group: c1
  Basis Set: 6-31G*
  Basis Set:

  -Total Gradient:
     Atom            X                  Y                   Z
    ------   -----------------  -----------------  -----------------
       1        0.000070384830    -0.000036883846    -0.000118241406
       2       -0.000264148332     0.000094033811     0.000297833772
       3       -0.000000274955    -0.000297152484    -0.000380541785
       4        0.000358045880    -0.000130034229     0.000291151094
       5        0.000040359533     0.000276442479     0.000297075536
       6       -0.000144802151     0.000213174896    -0.000094149610
       7       -0.000044061622     0.000213736378    -0.000090492702
       8       -0.000021753877    -0.000126239165    -0.000151565243
       9       -0.001211038846    -0.000072825819    -0.000854571154
      10        0.000006332984    -0.000053397260    -0.000066486395
      11        0.000194979911    -0.000270176090     0.000284846896
      12        0.002419687492    -0.000531898249     0.001400282942
      13       -0.000021567462     0.000055534389    -0.000004576527
      14       -0.001382143382     0.000665685184    -0.000810565419

    Molecular point group: c1

    Geometry (in Angstrom), charge = 0, multiplicity = 1:

    H           -1.571037307037    -3.035462153081     0.134520293211
    O           -1.796681348552    -2.122125641798     0.024693358179
    C           -0.697786957950    -1.341650095459     0.067440727606
    C            0.575123232580    -1.846700256659     0.281631193659
    C           -0.883098568769     0.021496087122    -0.109789945850
    H            0.716545079583    -2.904908539192     0.418360385142
    C            1.664657816642    -0.990166607343     0.318269232193
    H           -1.871955136578     0.402369080984    -0.277874499150
    C            0.215795115627     0.864086199975    -0.070161676832
    H            2.646969000230    -1.393109515002     0.483503632640
    C            1.498867121808     0.369513922184     0.145564454140
    C            0.019418333903     2.284919298988    -0.256739765695
    H            2.337861669437     1.038141728670     0.173648656263
    N           -0.160964912712     3.395277202902    -0.417693388067

  Mulliken Charges: (a.u.)
   Center  Symbol    Alpha    Beta     Spin     Total
       1     H     0.26885  0.26885  0.00000  0.46229
       2     O     4.37533  4.37533  0.00000 -0.75065
       3     C     2.79294  2.79294  0.00000  0.41412
       4     C     3.13496  3.13496  0.00000 -0.26992
       5     C     3.11176  3.11176  0.00000 -0.22352
       6     H     0.39601  0.39601  0.00000  0.20799
       7     C     3.09430  3.09430  0.00000 -0.18859
       8     H     0.37302  0.37302  0.00000  0.25396
       9     C     2.99249  2.99249  0.00000  0.01502
      10     H     0.38896  0.38896  0.00000  0.22207
      11     C     3.09976  3.09976  0.00000 -0.19951
      12     C     2.86517  2.86517  0.00000  0.26967
      13     H     0.38172  0.38172  0.00000  0.23655
      14     N     3.72473  3.72473  0.00000 -0.44946

   Total alpha = 31.00000, Total beta = 31.00000, Total charge =  0.00000
