  ==> Input File <==

--------------------------------------------------------------------------
set {
	reference rhf
	basis 6-31G*
}

set_num_threads( 4 )
memory 2 gb

molecule MOL {
0 1

O	 -1.276010	 1.052711	 -0.768302
C	 -1.204840	 0.067374	 -0.106123
C	 -2.388195	 -0.672128	 0.458071
O	 -0.067104	 -0.527208	 0.221609
H	 -2.388023	 -1.694060	 0.097175
H	 -3.300579	 -0.174919	 0.164318
H	 -2.315377	 -0.706351	 1.539059
C	 -0.110042	 -1.822128	 0.837455
C	 1.174195	 -1.945811	 1.638096
C	 -0.251326	 -2.894821	 -0.231196
H	 -0.965439	 -1.847921	 1.496347
H	 1.242927	 -1.154794	 2.376212
H	 1.202415	 -2.899789	 2.154295
H	 2.039546	 -1.882158	 0.987121
H	 -0.261272	 -3.878766	 0.226810
H	 -1.175119	 -2.769252	 -0.781482
H	 0.581145	 -2.849633	 -0.926149

	symmetry c1
}
set optking {
	frozen_dihedral = ("
		8 4 2 1
	")
}

ee = optimize('scf')
oeprop('DIPOLE', 'QUADRUPOLE', 'MULLIKEN_CHARGES')
f=open( 'psi4out.xyz', 'w' )
f.write( "17  " )
f.write( str(ee) + "\n" )
f.write( MOL.save_string_xyz() )
f.close()
--------------------------------------------------------------------------

    Molecular point group: c1
  Charge       = 0
  Multiplicity = 1
  Basis Set: 6-31G*
  Basis Set:
  @DF-RHF Final Energy:  -344.88353997659749
    Total Energy =                       -344.8835399765970919
    Molecular point group: c1
  Basis Set: 6-31G*
  Basis Set:
  Basis Set: 6-31G*
  Basis Set:
  @DF-RHF Final Energy:  -344.89387290760823
    Total Energy =                       -344.8938729076081700
  Basis Set: 6-31G*
  Basis Set:
  Basis Set: 6-31G*
  Basis Set:
  @DF-RHF Final Energy:  -344.89702614962454
    Total Energy =                       -344.8970261496241392
  Basis Set: 6-31G*
  Basis Set:
  Basis Set: 6-31G*
  Basis Set:
  @DF-RHF Final Energy:  -344.89820783257773
    Total Energy =                       -344.8982078325776683
  Basis Set: 6-31G*
  Basis Set:
  @DF-RHF Final Energy:  -344.89878395110094
    Total Energy =                       -344.8987839511005404
  @DF-RHF Final Energy:  -344.89907088168593
    Total Energy =                       -344.8990708816857023
  @DF-RHF Final Energy:  -344.89924038837705
    Total Energy =                       -344.8992403883767679
  Basis Set: 6-31G*
  Basis Set:
  @DF-RHF Final Energy:  -344.89926901513081
    Total Energy =                       -344.8992690151308693
  Basis Set: 6-31G*
  Basis Set:
  Basis Set: 6-31G*
  Basis Set:
  @DF-RHF Final Energy:  -344.89931782212147
    Total Energy =                       -344.8993178221214748
  Basis Set: 6-31G*
  Basis Set:
  Basis Set: 6-31G*
  Basis Set:
  @DF-RHF Final Energy:  -344.89932701333402
    Total Energy =                       -344.8993270133342435
  Basis Set: 6-31G*
  Basis Set:
  Charge       = 0
  Multiplicity = 1
  Basis Set: 6-31G*
  Basis Set:

    Orbital Energies (a.u.)
    -----------------------

    Doubly Occupied:

       1A    -20.596842     2A    -20.536130     3A    -11.375147
       4A    -11.305207     5A    -11.241923     6A    -11.229432
       7A    -11.225738     8A     -1.460105     9A     -1.362161
      10A     -1.078739    11A     -1.017017    12A     -0.957754
      13A     -0.861787    14A     -0.774659    15A     -0.699277
      16A     -0.665587    17A     -0.661858    18A     -0.622396
      19A     -0.596239    20A     -0.585235    21A     -0.563008
      22A     -0.556642    23A     -0.546100    24A     -0.531707
      25A     -0.508692    26A     -0.491178    27A     -0.438620
      28A     -0.430882

  @DF-RHF Final Energy:  -344.89932786675138

   => Energetics <=

    Nuclear Repulsion Energy =            322.1553695607302643
    One-Electron Energy =               -1108.2692719255064731
    Two-Electron Energy =                 441.2145744980247741
    DFT Exchange-Correlation Energy =       0.0000000000000000
    Empirical Dispersion Energy =           0.0000000000000000
    PCM Polarization Energy =               0.0000000000000000
    EFP Energy =                            0.0000000000000000
    Total Energy =                       -344.8993278667514346
    Molecular point group: c1
  Basis Set: 6-31G*
  Basis Set:

  -Total Gradient:
     Atom            X                  Y                   Z
    ------   -----------------  -----------------  -----------------
       1       -0.000072371898    -0.000151122322    -0.000236446471
       2        0.000058755818     0.000242448009     0.000265908853
       3       -0.000024852566    -0.000078021868    -0.000121888965
       4       -0.000013098756     0.000054310738     0.000226509826
       5       -0.000012290213     0.000026650152     0.000030133447
       6        0.000002654756     0.000004423152     0.000003457704
       7        0.000021253610     0.000027351931     0.000016013058
       8        0.000041977297    -0.000085800805    -0.000229970184
       9        0.000000595959    -0.000026343214     0.000024090711
      10       -0.000021653063     0.000002964343     0.000020068089
      11        0.000022900352    -0.000017050077    -0.000006606129
      12       -0.000003177016    -0.000002412091    -0.000003542478
      13        0.000015506488    -0.000005739118     0.000010575129
      14       -0.000008528431    -0.000000387360    -0.000000386369
      15       -0.000001259700     0.000001380304    -0.000000443711
      16       -0.000002980349     0.000000385231    -0.000004778774
      17       -0.000003432286     0.000006962992     0.000007306266

  **** Optimization is complete! (in 11 steps) ****
    Final optimized geometry and variables:
    Molecular point group: c1

    Geometry (in Angstrom), charge = 0, multiplicity = 1:

    O           -0.614596446338     1.986890539073    -1.053826264087
    C           -0.670480243624     1.013537923456    -0.381032086791
    C           -1.977611531561     0.507817776545     0.189967060493
    O            0.453264379415     0.361221289132    -0.085900480696
    H           -2.187485457047    -0.510801108485    -0.113377495219
    H           -2.763101762186     1.155280905053    -0.168182203263
    H           -1.958763179182     0.537567873633     1.274134525967
    C            0.518479315158    -0.919293184696     0.534060076117
    C            1.806421297665    -0.932072212794     1.340501231515
    C            0.487673733122    -2.002784430444    -0.534800512904
    H           -0.318859045770    -1.042970141873     1.208315028897
    H            1.797088032931    -0.142272222278     2.082426913133
    H            1.924956997675    -1.883499685628     1.848560839320
    H            2.659377401956    -0.777429634573     0.689733380745
    H            0.558490385010    -2.985663550624    -0.080352377530
    H           -0.429737240295    -1.964610059161    -1.112625216138
    H            1.320025053277    -1.875661036830    -1.217666601268

  Mulliken Charges: (a.u.)
   Center  Symbol    Alpha    Beta     Spin     Total
       1     O     4.26785  4.26785  0.00000 -0.53570
       2     C     2.61182  2.61182  0.00000  0.77636
       3     C     3.31141  3.31141  0.00000 -0.62282
       4     O     4.30789  4.30789  0.00000 -0.61578
       5     H     0.40433  0.40433  0.00000  0.19134
       6     H     0.38722  0.38722  0.00000  0.22557
       7     H     0.40183  0.40183  0.00000  0.19635
       8     C     2.93030  2.93030  0.00000  0.13940
       9     C     3.23899  3.23899  0.00000 -0.47798
      10     C     3.24462  3.24462  0.00000 -0.48924
      11     H     0.41692  0.41692  0.00000  0.16616
      12     H     0.40995  0.40995  0.00000  0.18011
      13     H     0.41887  0.41887  0.00000  0.16227
      14     H     0.40804  0.40804  0.00000  0.18393
      15     H     0.41700  0.41700  0.00000  0.16599
      16     H     0.41649  0.41649  0.00000  0.16703
      17     H     0.40649  0.40649  0.00000  0.18703

   Total alpha = 28.00000, Total beta = 28.00000, Total charge = -0.00000
