  ==> Input File <==

--------------------------------------------------------------------------
set {
	reference rhf
	basis 6-31G*
}

set_num_threads( 1 )
memory 2 gb

molecule MOL {
0 1

H	 3.041906	 -0.078346	 0.305805
O	 2.346107	 0.485021	 -0.001068
C	 1.135793	 0.118896	 0.612333
C	 0.031547	 1.023609	 0.088541
H	 1.207718	 0.229882	 1.692794
H	 0.905438	 -0.924555	 0.409237
C	 -1.134819	 0.293262	 -0.585751
H	 0.474374	 1.714721	 -0.623187
H	 -0.338529	 1.620940	 0.920081
C	 -1.917817	 -0.639439	 0.339494
H	 -0.758119	 -0.268455	 -1.433105
H	 -1.813832	 1.041889	 -0.986690
H	 -2.777680	 -1.057197	 -0.174994
H	 -1.310268	 -1.471279	 0.680599
H	 -2.283753	 -0.111424	 1.216626

	symmetry c1
}
set optking {
	frozen_dihedral = ("
		8 4 7 11,
		1 2 3 4
	")
}

ee = energy('scf')
oeprop('DIPOLE', 'QUADRUPOLE', 'MULLIKEN_CHARGES')
f=open( 'psi4out.xyz', 'w' )
f.write( "15  " )
f.write( str(ee) + "\n" )
f.write( MOL.save_string_xyz() )
f.close()
--------------------------------------------------------------------------

    Molecular point group: c1

    Geometry (in Angstrom), charge = 0, multiplicity = 1:

       Center              X                  Y                   Z               Mass
    ------------   -----------------  -----------------  -----------------  -----------------
           H          2.890421973151    -0.321557277630     0.205077650554     1.007825032070
           O          2.194622973151     0.241809722370    -0.101795349446    15.994914619560
           C          0.984308973151    -0.124315277630     0.511605650554    12.000000000000
           C         -0.119937026849     0.780397722370    -0.012186349446    12.000000000000
           H          1.056233973151    -0.013329277630     1.592066650554     1.007825032070
           H          0.753953973151    -1.167766277630     0.308509650554     1.007825032070
           C         -1.286303026849     0.050050722370    -0.686478349446    12.000000000000
           H          0.322889973151     1.471509722370    -0.723914349446     1.007825032070
           H         -0.490013026849     1.377728722370     0.819353650554     1.007825032070
           C         -2.069301026849    -0.882650277630     0.238766650554    12.000000000000
           H         -0.909603026849    -0.511666277630    -1.533832349446     1.007825032070
           H         -1.965316026849     0.798677722370    -1.087417349446     1.007825032070
           H         -2.929164026849    -1.300408277630    -0.275721349446     1.007825032070
           H         -1.461752026849    -1.714490277630     0.579871650554     1.007825032070
           H         -2.435237026849    -0.354635277630     1.115898650554     1.007825032070

  Charge       = 0
  Multiplicity = 1
  Basis Set: 6-31G*
  Basis Set:

    Orbital Energies (a.u.)
    -----------------------

    Doubly Occupied:

       1A    -20.551562     2A    -11.265854     3A    -11.216053
       4A    -11.210724     5A    -11.209748     6A     -1.358208
       7A     -1.068833     8A     -0.970723     9A     -0.870286
      10A     -0.781255    11A     -0.702150    12A     -0.648307
      13A     -0.604558    14A     -0.589258    15A     -0.557785
      16A     -0.534767    17A     -0.510649    18A     -0.476130
      19A     -0.470840    20A     -0.455320    21A     -0.427777

  @DF-RHF Final Energy:  -232.13736224430642

   => Energetics <=

    Nuclear Repulsion Energy =            188.6797611508983437
    One-Electron Energy =                -688.6727632761685527
    Two-Electron Energy =                 267.8556398809644179
    DFT Exchange-Correlation Energy =       0.0000000000000000
    Empirical Dispersion Energy =           0.0000000000000000
    PCM Polarization Energy =               0.0000000000000000
    EFP Energy =                            0.0000000000000000
    Total Energy =                       -232.1373622443057911

  Mulliken Charges: (a.u.)
   Center  Symbol    Alpha    Beta     Spin     Total
       1     H     0.28213  0.28213  0.00000  0.43575
       2     O     4.37171  4.37171  0.00000 -0.74342
       3     C     2.99360  2.99360  0.00000  0.01280
       4     C     3.16683  3.16683  0.00000 -0.33365
       5     H     0.43051  0.43051  0.00000  0.13897
       6     H     0.43004  0.43004  0.00000  0.13991
       7     C     3.15825  3.15825  0.00000 -0.31650
       8     H     0.40181  0.40181  0.00000  0.19638
       9     H     0.42178  0.42178  0.00000  0.15645
      10     C     3.24258  3.24258  0.00000 -0.48516
      11     H     0.41887  0.41887  0.00000  0.16227
      12     H     0.42010  0.42010  0.00000  0.15979
      13     H     0.41787  0.41787  0.00000  0.16426
      14     H     0.42223  0.42223  0.00000  0.15554
      15     H     0.42169  0.42169  0.00000  0.15663

   Total alpha = 21.00000, Total beta = 21.00000, Total charge =  0.00000
