                              Psi4 1.0.54 Driver

  ==> Input File <==

--------------------------------------------------------------------------
set {
	reference rhf
	basis cc-pvtz
}

set_num_threads( 4 )
memory 2 gb

molecule MOL {
0 1

O	 2.867923	 1.354148	 0.031431
C	 2.839448	 0.168917	 0.098713
C	 1.541047	 -0.612091	 0.094791
C	 4.109769	 -0.645655	 0.193480
C	 0.288398	 0.247429	 0.000314
H	 1.586699	 -1.318883	 -0.730696
H	 1.523070	 -1.221873	 0.995262
C	 -0.993089	 -0.581367	 -0.000217
H	 0.337821	 0.850073	 -0.899403
H	 0.274237	 0.947271	 0.828054
C	 -2.258482	 0.271340	 0.000669
H	 -1.002280	 -1.233920	 -0.870484
H	 -1.002061	 -1.235367	 0.868958
C	 -3.544441	 -0.550271	 -0.000253
H	 -2.250545	 0.925250	 -0.867923
H	 -2.250598	 0.923423	 0.870642
C	 -4.804551	 0.308747	 0.000556
H	 -3.553737	 -1.201524	 -0.870151
H	 -3.553831	 -1.203282	 0.868313
H	 -4.842050	 0.949078	 -0.874436
H	 -5.698404	 -0.304480	 -0.000254
H	 -4.842277	 0.947103	 0.876982
H	 4.173233	 -1.337907	 -0.638871
H	 4.966631	 0.010191	 0.186818
H	 4.108591	 -1.235486	 1.103502

	symmetry c1
}
set optking {
	frozen_dihedral = ("
		9 5 8 12
	")
}

ee,wfn = optimize('scf', return_wfn=True)
oeprop( wfn, 'DIPOLE', 'QUADRUPOLE', 'MULLIKEN_CHARGES')
f=open( 'psi4out.xyz', 'w' )
f.write( "25  " )
f.write( str(ee) + "\n" )
f.write( MOL.save_string_xyz() )
f.close()
--------------------------------------------------------------------------

    Molecular point group: c1
  Charge       = 0
  Multiplicity = 1
  Basis Set: CC-PVTZ
  Basis Set:
  @DF-RHF Final Energy:  -387.27461259602342
    Total Energy =                       -387.2746125960235304
    Molecular point group: c1
  Basis Set: CC-PVTZ
  Basis Set:
  Basis Set: CC-PVTZ
  Basis Set:
  @DF-RHF Final Energy:  -387.27461932134469
    Total Energy =                       -387.2746193213444030
  Basis Set: CC-PVTZ
  Basis Set:
  Basis Set: CC-PVTZ
  Basis Set:
  @DF-RHF Final Energy:  -387.27458461586701
    Total Energy =                       -387.2745846158669565
  Basis Set: CC-PVTZ
  Basis Set:
  Basis Set: CC-PVTZ
  Basis Set:
  @DF-RHF Final Energy:  -387.27462248721105
    Total Energy =                       -387.2746224872105358
  Basis Set: CC-PVTZ
  Basis Set:
  Charge       = 0
  Multiplicity = 1
  Basis Set: CC-PVTZ
  Basis Set:

    Orbital Energies (a.u.)
    -----------------------

    Doubly Occupied:

       1A    -20.538869     2A    -11.320488     3A    -11.230119
       4A    -11.226579     5A    -11.215273     6A    -11.214654
       7A    -11.213528     8A    -11.211481     9A    -11.206451
      10A     -1.398901    11A     -1.095198    12A     -1.057654
      13A     -1.015568    14A     -0.970174    15A     -0.891496
      16A     -0.814735    17A     -0.791343    18A     -0.730969
      19A     -0.663082    20A     -0.654266    21A     -0.633291
      22A     -0.626785    23A     -0.596953    24A     -0.585235
      25A     -0.567698    26A     -0.559947    27A     -0.541393
      28A     -0.527080    29A     -0.513297    30A     -0.491892
      31A     -0.490083    32A     -0.473952    33A     -0.463844
      34A     -0.463100    35A     -0.452713    36A     -0.401360

  @DF-RHF Final Energy:  -387.27462303658552

   => Energetics <=

    Nuclear Repulsion Energy =            439.1301713994203624
    One-Electron Energy =               -1395.1106879183007550
    Two-Electron Energy =                 568.7058934822944138
    DFT Exchange-Correlation Energy =       0.0000000000000000
    Empirical Dispersion Energy =           0.0000000000000000
    PCM Polarization Energy =               0.0000000000000000
    EFP Energy =                            0.0000000000000000
    Total Energy =                       -387.2746230365860356
    Molecular point group: c1
  Basis Set: CC-PVTZ
  Basis Set:

  -Total Gradient:
     Atom            X                  Y                   Z
    ------   -----------------  -----------------  -----------------
       1       -0.000014630275     0.000016471250    -0.000003344431
       2        0.000014813257    -0.000005113294     0.000006639856
       3       -0.000011396499     0.000008107769     0.000006121224
       4       -0.000002783427    -0.000003886713     0.000002005210
       5       -0.000522228629     0.000799063424     0.000321948640
       6       -0.000000791406     0.000000088852    -0.000000153984
       7        0.000006772649    -0.000004090402     0.000001780494
       8        0.000506008749    -0.000773332593     0.000393297521
       9        0.000355554391    -0.000547915284    -0.000354490633
      10       -0.000001744961    -0.000000136832     0.000003024478
      11        0.000012066564    -0.000004416351     0.000018026713
      12       -0.000335208264     0.000523691490    -0.000396607311
      13       -0.000003577714     0.000000680241     0.000001643165
      14       -0.000006971832    -0.000000901921     0.000003816095
      15       -0.000000006955    -0.000001430024     0.000001909200
      16       -0.000005932139     0.000004731179     0.000002901249
      17        0.000003874911     0.000001355869    -0.000005933892
      18        0.000000952800    -0.000002399944     0.000000276449
      19        0.000000664203     0.000001535136     0.000001607469
      20       -0.000001617209     0.000002139692    -0.000000302442
      21        0.000001031691    -0.000000224928    -0.000002054068
      22        0.000000741831    -0.000002128874    -0.000000220289
      23        0.000004233761    -0.000006040200    -0.000002568672
      24       -0.000003631279     0.000001108075    -0.000000697909
      25        0.000003805788    -0.000006955612     0.000001375867

  **** Optimization is complete! (in 5 steps) ****
    Final optimized geometry and variables:
    Molecular point group: c1

    Geometry (in Angstrom), charge = 0, multiplicity = 1:

    O            2.868776290494     1.353029036355    -0.030803418404
    C            2.840645315678     0.168058666974     0.040420124724
    C            1.541950440204    -0.612506982844     0.053754063570
    C            4.111628798473    -0.646911379182     0.123451700956
    C            0.288365609802     0.247393748244    -0.028909940196
    H            1.577877567595    -1.321570926871    -0.770329576175
    H            1.534355367550    -1.219810327435     0.956007363246
    C           -0.992165506520    -0.583114542761    -0.026777883336
    H            0.333977061149     0.849690711788    -0.928976757372
    H            0.279646732043     0.944392592702     0.801198204173
    C           -2.257918240591     0.269527430301    -0.032314136004
    H           -1.000790238002    -1.234876445283    -0.897556334285
    H           -1.003687800772    -1.234531440244     0.844145533819
    C           -3.543632067635    -0.552293643459    -0.047269566654
    H           -2.243126144952     0.927310509801    -0.897960415540
    H           -2.257254578758     0.917786918581     0.840531276036
    C           -4.803923584550     0.306424442691    -0.051361071496
    H           -3.546289419412    -1.198901987354    -0.920666014096
    H           -3.559394195631    -1.209976459475     0.817728890443
    H           -4.834862664682     0.951598196518    -0.923060165596
    H           -5.697590056947    -0.306997699167    -0.062436398094
    H           -4.848556716691     0.939918053914     0.828276092418
    H            4.165084349781    -1.342027345206    -0.707209745761
    H            4.968824038348     0.008324237097     0.104664872242
    H            4.120534128542    -1.233572844176     1.035483965091

  Mulliken Charges: (a.u.)
   Center  Symbol    Alpha    Beta     Spin     Total
       1     O     4.17077  4.17077  0.00000 -0.34153
       2     C     2.86225  2.86225  0.00000  0.27550
       3     C     3.11406  3.11406  0.00000 -0.22813
       4     C     3.15126  3.15126  0.00000 -0.30251
       5     C     3.08297  3.08297  0.00000 -0.16594
       6     H     0.44559  0.44559  0.00000  0.10883
       7     H     0.44566  0.44566  0.00000  0.10869
       8     C     3.09015  3.09015  0.00000 -0.18031
       9     H     0.44583  0.44583  0.00000  0.10834
      10     H     0.44621  0.44621  0.00000  0.10757
      11     C     3.08617  3.08617  0.00000 -0.17234
      12     H     0.45569  0.45569  0.00000  0.08861
      13     H     0.45623  0.45623  0.00000  0.08754
      14     C     3.08430  3.08430  0.00000 -0.16861
      15     H     0.45374  0.45374  0.00000  0.09252
      16     H     0.45392  0.45392  0.00000  0.09215
      17     C     3.15036  3.15036  0.00000 -0.30071
      18     H     0.45516  0.45516  0.00000  0.08968
      19     H     0.45524  0.45524  0.00000  0.08951
      20     H     0.45475  0.45475  0.00000  0.09049
      21     H     0.44869  0.44869  0.00000  0.10263
      22     H     0.45482  0.45482  0.00000  0.09036
      23     H     0.45042  0.45042  0.00000  0.09916
      24     H     0.43536  0.43536  0.00000  0.12928
      25     H     0.45039  0.45039  0.00000  0.09922

   Total alpha = 36.00000, Total beta = 36.00000, Total charge = -0.00000

*** Psi4 exiting successfully. Buy a developer a beer!
