                              Psi4 1.0.54 Driver

  ==> Input File <==

--------------------------------------------------------------------------
set {
	reference rhf
	basis cc-pvtz
}

set_num_threads( 4 )
memory 2 gb

molecule MOL {
0 1

H	 -2.171709	 0.882708	 0.500286
C	 -2.016894	 0.001719	 -0.114152
O	 -0.775228	 0.000056	 -0.739966
H	 -2.760846	 0.003757	 -0.898169
H	 -2.174774	 -0.879864	 0.498643
C	 -0.614357	 0.642080	 -1.989448
C	 0.855407	 0.421087	 -2.329800
C	 -1.498501	 -0.002570	 -3.058726
C	 -0.903721	 2.140482	 -1.881492
H	 1.071052	 -0.638543	 -2.382573
H	 1.485278	 0.855168	 -1.563680
H	 1.105857	 0.873594	 -3.281893
H	 -1.336323	 -1.073396	 -3.085158
H	 -1.259001	 0.402632	 -4.034606
H	 -2.551048	 0.179760	 -2.881346
H	 -0.322834	 2.578800	 -1.078910
H	 -0.638140	 2.639063	 -2.806025
H	 -1.951329	 2.340734	 -1.694451

	symmetry c1
}
set optking {
	frozen_dihedral = ("
		6 3 2 5
	")
}

ee,wfn = optimize('scf', return_wfn=True)
oeprop( wfn, 'DIPOLE', 'QUADRUPOLE', 'MULLIKEN_CHARGES')
f=open( 'psi4out.xyz', 'w' )
f.write( "18  " )
f.write( str(ee) + "\n" )
f.write( MOL.save_string_xyz() )
f.close()
--------------------------------------------------------------------------

    Molecular point group: c1
  Charge       = 0
  Multiplicity = 1
  Basis Set: CC-PVTZ
  Basis Set:
  @DF-RHF Final Energy:  -271.27301721745999
    Total Energy =                       -271.2730172174597101
    Molecular point group: c1
  Basis Set: CC-PVTZ
  Basis Set:
  Basis Set: CC-PVTZ
  Basis Set:
  @DF-RHF Final Energy:  -271.27471788725057
    Total Energy =                       -271.2747178872506311
  Basis Set: CC-PVTZ
  Basis Set:
  Basis Set: CC-PVTZ
  Basis Set:
  @DF-RHF Final Energy:  -271.27568318250451
    Total Energy =                       -271.2756831825043946
  Basis Set: CC-PVTZ
  Basis Set:
  Basis Set: CC-PVTZ
  Basis Set:
  @DF-RHF Final Energy:  -271.27571876298362
    Total Energy =                       -271.2757187629835016
  Basis Set: CC-PVTZ
  Basis Set:
  Basis Set: CC-PVTZ
  Basis Set:
  @DF-RHF Final Energy:  -271.27573521716903
    Total Energy =                       -271.2757352171690854
  Basis Set: CC-PVTZ
  Basis Set:
  Basis Set: CC-PVTZ
  Basis Set:
  @DF-RHF Final Energy:  -271.27577925193884
    Total Energy =                       -271.2757792519387863
  Basis Set: CC-PVTZ
  Basis Set:
  Charge       = 0
  Multiplicity = 1
  Basis Set: CC-PVTZ
  Basis Set:

    Orbital Energies (a.u.)
    -----------------------

    Doubly Occupied:

       1A    -20.539386     2A    -11.280425     3A    -11.258473
       4A    -11.207810     5A    -11.206424     6A    -11.201873
       7A     -1.372559     8A     -1.074266     9A     -0.946945
      10A     -0.940682    11A     -0.913320    12A     -0.753723
      13A     -0.656435    14A     -0.646692    15A     -0.640035
      16A     -0.592113    17A     -0.573102    18A     -0.552780
      19A     -0.536920    20A     -0.525036    21A     -0.515353
      22A     -0.490470    23A     -0.488280    24A     -0.440223
      25A     -0.405775

  @DF-RHF Final Energy:  -271.27577918022502

   => Energetics <=

    Nuclear Repulsion Energy =            272.6588043073141421
    One-Electron Energy =                -908.3509725313840590
    Two-Electron Energy =                 364.4163890438449016
    DFT Exchange-Correlation Energy =       0.0000000000000000
    Empirical Dispersion Energy =           0.0000000000000000
    PCM Polarization Energy =               0.0000000000000000
    EFP Energy =                            0.0000000000000000
    Total Energy =                       -271.2757791802250722
    Molecular point group: c1
  Basis Set: CC-PVTZ
  Basis Set:

  -Total Gradient:
     Atom            X                  Y                   Z
    ------   -----------------  -----------------  -----------------
       1       -0.000016921724     0.000041071048     0.000080879301
       2        0.000790682196     0.000301771080     0.001464141373
       3        0.000583993221     0.001815190143     0.000876729359
       4       -0.000100484355    -0.000009584435    -0.000049831836
       5       -0.000783502874    -0.000749915574    -0.001597282029
       6       -0.000426857828    -0.001363226582    -0.000843531845
       7        0.000032612794     0.000012342816     0.000005399789
       8       -0.000034914541    -0.000012030882     0.000059763808
       9       -0.000004968013    -0.000040639996     0.000007917227
      10       -0.000029924534    -0.000010775272    -0.000016044486
      11        0.000039254040    -0.000020829984     0.000020208212
      12        0.000012014354     0.000028696464     0.000008863617
      13        0.000034306532    -0.000023354103    -0.000012996125
      14       -0.000001297039     0.000031924810     0.000009226726
      15       -0.000078329087    -0.000017382101    -0.000001129885
      16        0.000008271435     0.000002486117     0.000025384491
      17        0.000013149435     0.000021057528    -0.000036064559
      18       -0.000037084008    -0.000006801076    -0.000001633141

  **** Optimization is complete! (in 7 steps) ****
    Final optimized geometry and variables:
    Molecular point group: c1

    Geometry (in Angstrom), charge = 0, multiplicity = 1:

    H           -1.282181096421     0.291290301921     2.224443269982
    C           -1.224184703213    -0.530734896490     1.517644190260
    O            0.021493584431    -0.584049422857     0.897102739287
    H           -2.042778458782    -0.432921639310     0.814163298907
    H           -1.364344137548    -1.461662548438     2.050199427500
    C            0.237181406026     0.113959920742    -0.313293496383
    C            1.732200233646    -0.039299956658    -0.570514801290
    C           -0.552246004151    -0.527396823275    -1.456377804203
    C           -0.118762551267     1.594292265253    -0.167291591888
    H            1.992300075160    -1.087684732574    -0.643223452230
    H            2.298543989590     0.392521524729     0.244841289030
    H            2.019846261637     0.453391236630    -1.491787481732
    H           -0.319065689307    -1.582951138534    -1.523187478759
    H           -0.293942935607    -0.059603409466    -2.399182470349
    H           -1.621989637412    -0.422846303589    -1.325777863311
    H            0.419453559496     2.030860799666     0.665571172060
    H            0.148969956050     2.135819785167    -1.066709164626
    H           -1.179279012681     1.740139134808    -0.001244078764

  Mulliken Charges: (a.u.)
   Center  Symbol    Alpha    Beta     Spin     Total
       1     H     0.46236  0.46236  0.00000  0.07529
       2     C     3.04436  3.04436  0.00000 -0.08872
       3     O     4.19207  4.19207  0.00000 -0.38414
       4     H     0.46942  0.46942  0.00000  0.06116
       5     H     0.44531  0.44531  0.00000  0.10938
       6     C     2.87796  2.87796  0.00000  0.24409
       7     C     3.14234  3.14234  0.00000 -0.28469
       8     C     3.15957  3.15957  0.00000 -0.31914
       9     C     3.16409  3.16409  0.00000 -0.32819
      10     H     0.44852  0.44852  0.00000  0.10295
      11     H     0.44936  0.44936  0.00000  0.10128
      12     H     0.45925  0.45925  0.00000  0.08150
      13     H     0.44650  0.44650  0.00000  0.10700
      14     H     0.44963  0.44963  0.00000  0.10073
      15     H     0.44847  0.44847  0.00000  0.10307
      16     H     0.44574  0.44574  0.00000  0.10851
      17     H     0.44678  0.44678  0.00000  0.10645
      18     H     0.44827  0.44827  0.00000  0.10346

   Total alpha = 25.00000, Total beta = 25.00000, Total charge = -0.00000

*** Psi4 exiting successfully. Buy a developer a beer!
