                              Psi4 1.0.54 Driver

  ==> Input File <==

--------------------------------------------------------------------------
set {
	reference rhf
	basis cc-pvtz
}

set_num_threads( 4 )
memory 2 gb

molecule MOL {
0 1

O	 -2.971968	 0.987644	 0.759956
C	 -2.664672	 0.129869	 0.003507
C	 -3.576935	 -0.406797	 -1.066096
O	 -1.481217	 -0.452708	 0.001092
H	 -3.873254	 0.411753	 -1.708165
H	 -3.103023	 -1.179994	 -1.649374
H	 -4.469619	 -0.794411	 -0.593927
C	 -0.332055	 0.384012	 -0.000250
C	 0.892252	 -0.506059	 -0.000295
H	 -0.360822	 1.020205	 -0.874146
H	 -0.359817	 1.021310	 0.872861
C	 2.188199	 0.299473	 -0.001416
H	 0.857046	 -1.152781	 -0.871031
H	 0.857910	 -1.151798	 0.871202
C	 3.437151	 -0.577593	 -0.000991
H	 2.209565	 0.950707	 -0.871712
H	 2.210062	 0.952234	 0.867721
C	 4.732399	 0.226982	 -0.000914
H	 3.417321	 -1.229122	 -0.869998
H	 3.416993	 -1.228707	 0.868337
H	 4.797903	 0.863451	 -0.876963
H	 5.598517	 -0.424436	 -0.000420
H	 4.797415	 0.864118	 0.874691

	symmetry c1
}
set optking {
	frozen_dihedral = ("
		1 2 4 8
	")
}

ee,wfn = optimize('scf', return_wfn=True)
oeprop( wfn, 'DIPOLE', 'QUADRUPOLE', 'MULLIKEN_CHARGES')
f=open( 'psi4out.xyz', 'w' )
f.write( "23  " )
f.write( str(ee) + "\n" )
f.write( MOL.save_string_xyz() )
f.close()
--------------------------------------------------------------------------

    Molecular point group: c1
  Charge       = 0
  Multiplicity = 1
  Basis Set: CC-PVTZ
  Basis Set:
  @DF-RHF Final Energy:  -423.12230960008560
    Total Energy =                       -423.1223096000849182
    Molecular point group: c1
  Basis Set: CC-PVTZ
  Basis Set:
  Basis Set: CC-PVTZ
  Basis Set:
  @DF-RHF Final Energy:  -422.97313803420815
    Total Energy =                       -422.9731380342083185
  Basis Set: CC-PVTZ
  Basis Set:
  Basis Set: CC-PVTZ
  Basis Set:
  @DF-RHF Final Energy:  -423.08592579646887
    Total Energy =                       -423.0859257964691551
  Basis Set: CC-PVTZ
  Basis Set:
  Basis Set: CC-PVTZ
  Basis Set:
  @DF-RHF Final Energy:  -423.12039825224429
    Total Energy =                       -423.1203982522443994
  Basis Set: CC-PVTZ
  Basis Set:
  @DF-RHF Final Energy:  -423.10350161475986
    Total Energy =                       -423.1035016147600345
  @DF-RHF Final Energy:  -423.11924183231230
    Total Energy =                       -423.1192418323123547
  @DF-RHF Final Energy:  -423.12322322351150
    Total Energy =                       -423.1232232235113315
  @DF-RHF Final Energy:  -423.12334632993048
    Total Energy =                       -423.1233463299303139
  @DF-RHF Final Energy:  -423.12339015877171
    Total Energy =                       -423.1233901587718265
  @DF-RHF Final Energy:  -423.12330454576221
    Total Energy =                       -423.1233045457621529
  @DF-RHF Final Energy:  -423.02909914613520
    Total Energy =                       -423.0290991461349677
  @DF-RHF Final Energy:  -423.10958401740822
    Total Energy =                       -423.1095840174077694
  @DF-RHF Final Energy:  -423.11777603727967
    Total Energy =                       -423.1177760372796683
  @DF-RHF Final Energy:  -423.12326958351582
    Total Energy =                       -423.1232695835159348
  @DF-RHF Final Energy:  -423.12347370958776
    Total Energy =                       -423.1234737095878700
  @DF-RHF Final Energy:  -423.12363744096012
    Total Energy =                       -423.1236374409602377
  @DF-RHF Final Energy:  -423.12394321506878
    Total Energy =                       -423.1239432150684934
  @DF-RHF Final Energy:  -423.11975992546365
    Total Energy =                       -423.1197599254641091
  @DF-RHF Final Energy:  -423.12459078511921
    Total Energy =                       -423.1245907851193806
  @DF-RHF Final Energy:  -423.12483413294945
    Total Energy =                       -423.1248341329494451
  @DF-RHF Final Energy:  -423.12478371573974
    Total Energy =                       -423.1247837157403637
  @DF-RHF Final Energy:  -423.12515657495237
    Total Energy =                       -423.1251565749523706
  Basis Set: CC-PVTZ
  Basis Set:
  @DF-RHF Final Energy:  -423.12517597369214
    Total Energy =                       -423.1251759736920803
  Basis Set: CC-PVTZ
  Basis Set:
  Basis Set: CC-PVTZ
  Basis Set:
  @DF-RHF Final Energy:  -423.12518929705067
    Total Energy =                       -423.1251892970503832
  Basis Set: CC-PVTZ
  Basis Set:
  Basis Set: CC-PVTZ
  Basis Set:
  @DF-RHF Final Energy:  -423.12519489767294
    Total Energy =                       -423.1251948976725998
  Basis Set: CC-PVTZ
  Basis Set:
  Charge       = 0
  Multiplicity = 1
  Basis Set: CC-PVTZ
  Basis Set:

    Orbital Energies (a.u.)
    -----------------------

    Doubly Occupied:

       1A    -20.582564     2A    -20.538429     3A    -11.368044
       4A    -11.283596     5A    -11.232515     6A    -11.222724
       7A    -11.222004     8A    -11.219861     9A    -11.211318
      10A     -1.463545    11A     -1.366328    12A     -1.095097
      13A     -1.041350    14A     -1.006148    15A     -0.931852
      16A     -0.841718    17A     -0.803359    18A     -0.774599
      19A     -0.698436    20A     -0.686757    21A     -0.662347
      22A     -0.649272    23A     -0.613164    24A     -0.589677
      25A     -0.585149    26A     -0.570335    27A     -0.557263
      28A     -0.547267    29A     -0.517207    30A     -0.504883
      31A     -0.495700    32A     -0.478772    33A     -0.472120
      34A     -0.469541    35A     -0.452630    36A     -0.436593

  @DF-RHF Final Energy:  -423.12519582646325

   => Energetics <=

    Nuclear Repulsion Energy =            449.7137082426939969
    One-Electron Energy =               -1467.2934824625585861
    Two-Electron Energy =                 594.4545783934012206
    DFT Exchange-Correlation Energy =       0.0000000000000000
    Empirical Dispersion Energy =           0.0000000000000000
    PCM Polarization Energy =               0.0000000000000000
    EFP Energy =                            0.0000000000000000
    Total Energy =                       -423.1251958264633686
    Molecular point group: c1
  Basis Set: CC-PVTZ
  Basis Set:

  -Total Gradient:
     Atom            X                  Y                   Z
    ------   -----------------  -----------------  -----------------
       1       -0.003958315419    -0.003795638552     0.006978294627
       2        0.006495047823     0.004126712242    -0.013337452401
       3        0.000168818676     0.000220796397    -0.000147508479
       4       -0.004269322465     0.002332662745     0.012987113219
       5        0.000035382493     0.000008578126    -0.000078027505
       6       -0.000016115312    -0.000068436309     0.000087991339
       7       -0.000049794855    -0.000011600283    -0.000014526657
       8        0.001571229474    -0.002827624582    -0.006448557077
       9        0.000027459620     0.000018549767     0.000032082238
      10        0.000026866297     0.000016664029    -0.000016960351
      11        0.000025791099    -0.000021332950    -0.000005524725
      12       -0.000010439353    -0.000011261062    -0.000047261150
      13       -0.000015927540     0.000005460047    -0.000024041220
      14       -0.000019497852    -0.000009174734     0.000023511859
      15        0.000018588732     0.000002800383     0.000022944865
      16        0.000011824908    -0.000000241647    -0.000023818049
      17        0.000021968230    -0.000002330898     0.000015205912
      18       -0.000044803877     0.000005156205    -0.000004042135
      19       -0.000023061725     0.000002527771    -0.000027599453
      20       -0.000005027241    -0.000008164795     0.000020487918
      21        0.000008015941    -0.000004361614    -0.000009389701
      22       -0.000004848129    -0.000003673387     0.000007265553
      23        0.000006160467     0.000023933102     0.000009811369

  **** Optimization is complete! (in 26 steps) ****
    Final optimized geometry and variables:
    Molecular point group: c1

    Geometry (in Angstrom), charge = 0, multiplicity = 1:

    O           -3.111606554001     0.768553568903    -0.327409062560
    C           -2.605033763123    -0.263073478269    -0.594503356443
    C           -3.250756738333    -1.344586925441    -1.411231818388
    O           -1.414290265710    -0.636904610125    -0.117544635377
    H           -2.667857879622    -1.509618547042    -2.309828445287
    H           -3.249778427681    -2.269487721428    -0.849033028576
    H           -4.258308510156    -1.062201222642    -1.670644733884
    C           -0.337889530752     0.283366574187    -0.233240879752
    C            0.877874520670    -0.322623020078     0.433697468321
    H           -0.149940232609     0.466173352998    -1.286139900365
    H           -0.613066413521     1.220248060311     0.230368308125
    C            2.097386131997     0.590570179684     0.350017129199
    H            1.095438680374    -1.277916905535    -0.032799682082
    H            0.636536476973    -0.527441470544     1.471482436892
    C            3.333814144598    -0.001809912264     1.020343070454
    H            2.323548168980     0.800863600105    -0.692759726304
    H            1.865706255946     1.547618898973     0.810678842744
    C            4.552149408590     0.911439304246     0.939880480659
    H            3.567831616044    -0.957285440982     0.559317652518
    H            3.109347193618    -0.212931035730     2.062008707517
    H            4.823179538407     1.113127781264    -0.091131436580
    H            5.410876425956     0.462503572184     1.425271606766
    H            4.360105149306     1.863920060279     1.422450334106

  Mulliken Charges: (a.u.)
   Center  Symbol    Alpha    Beta     Spin     Total
       1     O     4.18353  4.18353  0.00000 -0.36706
       2     C     2.80889  2.80889  0.00000  0.38222
       3     C     3.13811  3.13811  0.00000 -0.27621
       4     O     4.16326  4.16326  0.00000 -0.32651
       5     H     0.44997  0.44997  0.00000  0.10006
       6     H     0.44370  0.44370  0.00000  0.11261
       7     H     0.43814  0.43814  0.00000  0.12373
       8     C     2.97505  2.97505  0.00000  0.04991
       9     C     3.08465  3.08465  0.00000 -0.16929
      10     H     0.46524  0.46524  0.00000  0.06952
      11     H     0.44743  0.44743  0.00000  0.10513
      12     C     3.09922  3.09922  0.00000 -0.19845
      13     H     0.45086  0.45086  0.00000  0.09829
      14     H     0.44778  0.44778  0.00000  0.10443
      15     C     3.08505  3.08505  0.00000 -0.17010
      16     H     0.45425  0.45425  0.00000  0.09150
      17     H     0.45208  0.45208  0.00000  0.09584
      18     C     3.14953  3.14953  0.00000 -0.29905
      19     H     0.45364  0.45364  0.00000  0.09273
      20     H     0.45279  0.45279  0.00000  0.09442
      21     H     0.45502  0.45502  0.00000  0.08996
      22     H     0.44754  0.44754  0.00000  0.10491
      23     H     0.45429  0.45429  0.00000  0.09142

   Total alpha = 36.00000, Total beta = 36.00000, Total charge = -0.00000

*** Psi4 exiting successfully. Buy a developer a beer!
