  ==> Input File <==

--------------------------------------------------------------------------
set {
	reference rhf
	basis cc-pvtz
}

set_num_threads( 4 )
memory 2 gb

molecule MOL {
0 1

H	 2.106690	 0.138578	 -1.017333
O	 2.063695	 -0.083403	 -0.105237
C	 0.742924	 0.005675	 0.350750
H	 0.731380	 0.039219	 1.440080
C	 -0.064076	 -1.193495	 -0.124425
C	 -0.047832	 1.190568	 -0.194462
H	 0.194729	 -1.376165	 -1.161308
H	 0.163013	 -2.094508	 0.429933
C	 -1.533112	 -0.752002	 0.006102
H	 0.148003	 1.266545	 -1.259275
H	 0.226235	 2.136493	 0.259722
C	 -1.506634	 0.799189	 0.067162
H	 -2.124360	 -1.110499	 -0.826089
H	 -1.983103	 -1.158030	 0.903403
H	 -2.183808	 1.252169	 -0.644677
H	 -1.813926	 1.138698	 1.049457

	symmetry c1
}
set optking {
	frozen_dihedral = ("
		1 2 3 6
	")
}

ee = optimize('scf')
oeprop('DIPOLE', 'QUADRUPOLE', 'MULLIKEN_CHARGES')
f=open( 'psi4out.xyz', 'w' )
f.write( "16  " )
f.write( str(ee) + "\n" )
f.write( MOL.save_string_xyz() )
f.close()
--------------------------------------------------------------------------

    Molecular point group: c1
  Charge       = 0
  Multiplicity = 1
  Basis Set: CC-PVTZ
  Basis Set:
  @DF-RHF Final Energy:  -270.11443956846421
    Total Energy =                       -270.1144395684647179
    Molecular point group: c1
  Basis Set: CC-PVTZ
  Basis Set:
  Basis Set: CC-PVTZ
  Basis Set:
  @DF-RHF Final Energy:  -270.11586437084884
    Total Energy =                       -270.1158643708489535
  Basis Set: CC-PVTZ
  Basis Set:
  Basis Set: CC-PVTZ
  Basis Set:
  @DF-RHF Final Energy:  -270.11609242453841
    Total Energy =                       -270.1160924245381807
  Basis Set: CC-PVTZ
  Basis Set:
  Basis Set: CC-PVTZ
  Basis Set:
  @DF-RHF Final Energy:  -270.11609885802818
    Total Energy =                       -270.1160988580281810
  Basis Set: CC-PVTZ
  Basis Set:
  @DF-RHF Final Energy:  -270.11610192625824
    Total Energy =                       -270.1161019262581249
  Basis Set: CC-PVTZ
  Basis Set:
  @DF-RHF Final Energy:  -270.11611169087541
    Total Energy =                       -270.1161116908754138
  Basis Set: CC-PVTZ
  Basis Set:
  Basis Set: CC-PVTZ
  Basis Set:
  @DF-RHF Final Energy:  -270.11612147985988
    Total Energy =                       -270.1161214798601691
  Basis Set: CC-PVTZ
  Basis Set:
  Basis Set: CC-PVTZ
  Basis Set:
  @DF-RHF Final Energy:  -270.11612713050908
    Total Energy =                       -270.1161271305093123
  Basis Set: CC-PVTZ
  Basis Set:
  Charge       = 0
  Multiplicity = 1
  Basis Set: CC-PVTZ
  Basis Set:

    Orbital Energies (a.u.)
    -----------------------

    Doubly Occupied:

       1A    -20.544991     2A    -11.267687     3A    -11.217690
       4A    -11.215869     5A    -11.215443     6A    -11.209493
       7A     -1.365786     8A     -1.116676     9A     -0.969637
      10A     -0.949809    11A     -0.805451    12A     -0.783248
      13A     -0.683498    14A     -0.664082    15A     -0.609963
      16A     -0.589960    17A     -0.578872    18A     -0.547655
      19A     -0.506464    20A     -0.484610    21A     -0.473634
      22A     -0.459452    23A     -0.455433    24A     -0.415167

  @DF-RHF Final Energy:  -270.11612792343624

   => Energetics <=

    Nuclear Repulsion Energy =            255.4919759018115144
    One-Electron Energy =                -872.9550686063628291
    Two-Electron Energy =                 347.3469647811149343
    DFT Exchange-Correlation Energy =       0.0000000000000000
    Empirical Dispersion Energy =           0.0000000000000000
    PCM Polarization Energy =               0.0000000000000000
    EFP Energy =                            0.0000000000000000
    Total Energy =                       -270.1161279234363519
    Molecular point group: c1
  Basis Set: CC-PVTZ
  Basis Set:

  -Total Gradient:
     Atom            X                  Y                   Z
    ------   -----------------  -----------------  -----------------
       1        0.000153317466     0.001321080543     0.000439197186
       2       -0.000320333224    -0.001842556526    -0.000866434013
       3        0.000401882690     0.000979870250     0.001179890503
       4       -0.000001437043     0.000001444195    -0.000002615877
       5       -0.000006286926    -0.000006054700    -0.000027881858
       6       -0.000253603181    -0.000450465170    -0.000725782927
       7        0.000010992156    -0.000011114737    -0.000001243517
       8       -0.000000098396     0.000003416523     0.000004134492
       9        0.000004400369    -0.000010581814     0.000035809863
      10       -0.000003293290    -0.000014350241     0.000002456710
      11        0.000009240282     0.000011114049    -0.000011572735
      12        0.000009103908     0.000013413002    -0.000029923424
      13        0.000020295159     0.000010082223    -0.000008322828
      14       -0.000025106868    -0.000010253304    -0.000003301999
      15       -0.000017751204     0.000014866749     0.000012046808
      16        0.000018678104    -0.000009911041     0.000003543618

  **** Optimization is complete! (in 9 steps) ****
    Final optimized geometry and variables:
    Molecular point group: c1

    Geometry (in Angstrom), charge = 0, multiplicity = 1:

    H            2.189068305733     0.230594587774    -0.927765174520
    O            2.094453583714    -0.051049996286    -0.035734533889
    C            0.747051435634    -0.013117350031     0.337661694016
    H            0.746194692163    -0.004549674521     1.422307589624
    C           -0.083730234683    -1.194499719786    -0.156369892578
    C           -0.036198369197     1.189845433670    -0.178942631609
    H            0.117076763297    -1.337653468790    -1.214887891131
    H            0.163691577620    -2.120138140410     0.346619500233
    C           -1.536248157019    -0.748666240152     0.063378282256
    H            0.166947260254     1.304708914205    -1.242023786776
    H            0.243550518974     2.116562028026     0.305321092491
    C           -1.506188005274     0.805094555255     0.042364523153
    H           -2.199532051517    -1.153021420059    -0.689618912316
    H           -1.900503846561    -1.102147258570     1.020198383507
    H           -2.147508596324     1.215339025919    -0.726329139058
    H           -1.860760860508     1.200227439743     0.986278691430

  Mulliken Charges: (a.u.)
   Center  Symbol    Alpha    Beta     Spin     Total
       1     H     0.39426  0.39426  0.00000  0.21147
       2     O     4.20748  4.20748  0.00000 -0.41497
       3     C     2.93237  2.93237  0.00000  0.13525
       4     H     0.44536  0.44536  0.00000  0.10929
       5     C     3.09758  3.09758  0.00000 -0.19515
       6     C     3.10765  3.10765  0.00000 -0.21530
       7     H     0.46053  0.46053  0.00000  0.07895
       8     H     0.44358  0.44358  0.00000  0.11285
       9     C     3.11363  3.11363  0.00000 -0.22725
      10     H     0.46150  0.46150  0.00000  0.07699
      11     H     0.44169  0.44169  0.00000  0.11661
      12     C     3.11074  3.11074  0.00000 -0.22148
      13     H     0.44426  0.44426  0.00000  0.11149
      14     H     0.44796  0.44796  0.00000  0.10409
      15     H     0.44420  0.44420  0.00000  0.11161
      16     H     0.44722  0.44722  0.00000  0.10556

   Total alpha = 24.00000, Total beta = 24.00000, Total charge = -0.00000
