  ==> Input File <==

--------------------------------------------------------------------------
set {
	reference rhf
	basis 6-31G*
}

set_num_threads( 4 )
memory 2 gb

molecule MOL {
0 1

O	 0.391030	 1.298905	 0.000133
C	 0.503002	 0.111612	 0.000005
C	 -0.702327	 -0.811998	 -0.000075
C	 1.863306	 -0.554493	 0.000030
C	 -0.604899	 -1.943077	 1.016448
H	 -1.587919	 -0.205279	 0.179901
H	 -0.820686	 -1.206445	 -1.007630
H	 -0.512012	 -1.553457	 2.022822
H	 -1.490352	 -2.568559	 0.971705
H	 0.262021	 -2.563500	 0.824762
H	 1.974395	 -1.189404	 -0.874166
H	 2.638695	 0.198920	 -0.000196
H	 1.974487	 -1.188655	 0.874727

	symmetry c1
}
set optking {
	frozen_dihedral = ("
		6 3 2 1
	")
}

ee = optimize('scf')
oeprop('DIPOLE', 'QUADRUPOLE', 'MULLIKEN_CHARGES')
f=open( 'psi4out.xyz', 'w' )
f.write( "13  " )
f.write( str(ee) + "\n" )
f.write( MOL.save_string_xyz() )
f.close()
--------------------------------------------------------------------------

    Molecular point group: c1
  Charge       = 0
  Multiplicity = 1
  Basis Set: 6-31G*
  Basis Set:
  @DF-RHF Final Energy:  -230.99364208967145
    Total Energy =                       -230.9936420896714822
    Molecular point group: c1
  Basis Set: 6-31G*
  Basis Set:
  Basis Set: 6-31G*
  Basis Set:
  @DF-RHF Final Energy:  -230.99340915227737
    Total Energy =                       -230.9934091522772803
  Basis Set: 6-31G*
  Basis Set:
  Basis Set: 6-31G*
  Basis Set:
  @DF-RHF Final Energy:  -230.99364304683209
    Total Energy =                       -230.9936430468321760
  Basis Set: 6-31G*
  Basis Set:
  Basis Set: 6-31G*
  Basis Set:
  @DF-RHF Final Energy:  -230.99478939334739
    Total Energy =                       -230.9947893933473324
  Basis Set: 6-31G*
  Basis Set:
  Basis Set: 6-31G*
  Basis Set:
  @DF-RHF Final Energy:  -230.99491023236288
    Total Energy =                       -230.9949102323629972
  Basis Set: 6-31G*
  Basis Set:
  Basis Set: 6-31G*
  Basis Set:
  @DF-RHF Final Energy:  -230.99492587411055
    Total Energy =                       -230.9949258741105211
  Basis Set: 6-31G*
  Basis Set:
  Basis Set: 6-31G*
  Basis Set:
  @DF-RHF Final Energy:  -230.99493182330858
    Total Energy =                       -230.9949318233085194
  Basis Set: 6-31G*
  Basis Set:
  Charge       = 0
  Multiplicity = 1
  Basis Set: 6-31G*
  Basis Set:

    Orbital Energies (a.u.)
    -----------------------

    Doubly Occupied:

       1A    -20.548970     2A    -11.325804     3A    -11.233866
       4A    -11.230245     5A    -11.228587     6A     -1.394478
       7A     -1.068206     8A     -0.993788     9A     -0.889464
      10A     -0.732858    11A     -0.652944    12A     -0.647009
      13A     -0.617440    14A     -0.590006    15A     -0.559452
      16A     -0.543298    17A     -0.528873    18A     -0.506349
      19A     -0.481352    20A     -0.400031

  @DF-RHF Final Energy:  -230.99493195383278

   => Energetics <=

    Nuclear Repulsion Energy =            176.8384200017814862
    One-Electron Energy =                -663.3206641272101933
    Two-Electron Energy =                 255.4873121715959883
    DFT Exchange-Correlation Energy =       0.0000000000000000
    Empirical Dispersion Energy =           0.0000000000000000
    PCM Polarization Energy =               0.0000000000000000
    EFP Energy =                            0.0000000000000000
    Total Energy =                       -230.9949319538326904
    Molecular point group: c1
  Basis Set: 6-31G*
  Basis Set:

  -Total Gradient:
     Atom            X                  Y                   Z
    ------   -----------------  -----------------  -----------------
       1        0.000024196690    -0.000005382033    -0.000717565568
       2        0.000005079068    -0.000020774749     0.001153363672
       3       -0.000077648964     0.000148208400    -0.001165799136
       4       -0.000008029229     0.000011926606     0.000006412298
       5       -0.000006190674    -0.000013715488     0.000017627945
       6        0.000071184871    -0.000125451563     0.000708366867
       7       -0.000003197604    -0.000005980192     0.000006619083
       8       -0.000000588237     0.000002506644    -0.000001773424
       9       -0.000004033156    -0.000003002502    -0.000000210436
      10       -0.000001446251     0.000007895863    -0.000004127125
      11       -0.000007403713     0.000002720383    -0.000000716300
      12        0.000008554469     0.000000265104    -0.000000557502
      13       -0.000000477268     0.000000783525    -0.000001640375

  **** Optimization is complete! (in 8 steps) ****
    Final optimized geometry and variables:
    Molecular point group: c1

    Geometry (in Angstrom), charge = 0, multiplicity = 1:

    O            0.090644105559     1.684162673692    -0.164218415312
    C            0.217629961849     0.498110880475    -0.191997645770
    C           -0.994072004890    -0.417656467852    -0.220791985964
    C            1.591700046132    -0.138897529021    -0.230826515801
    C           -0.939503085295    -1.585680258474     0.769486160676
    H           -1.861954019747     0.201112981671    -0.030906064150
    H           -1.084034344564    -0.805761391701    -1.234018632638
    H           -0.821295224154    -1.232170503728     1.789118251692
    H           -1.861182092642    -2.154869348410     0.723943188069
    H           -0.123542408573    -2.266414561325     0.552670792174
    H            1.640932781924    -0.925577103138    -0.977308614326
    H            2.330817636198     0.619962375565    -0.446599106115
    H            1.821034846139    -0.588870887687     0.730652923768

  Mulliken Charges: (a.u.)
   Center  Symbol    Alpha    Beta     Spin     Total
       1     O     4.26088  4.26088  0.00000 -0.52177
       2     C     2.73295  2.73295  0.00000  0.53409
       3     C     3.20493  3.20493  0.00000 -0.40986
       4     C     3.29171  3.29171  0.00000 -0.58342
       5     C     3.25114  3.25114  0.00000 -0.50227
       6     H     0.39797  0.39797  0.00000  0.20406
       7     H     0.40869  0.40869  0.00000  0.18262
       8     H     0.41332  0.41332  0.00000  0.17336
       9     H     0.41039  0.41039  0.00000  0.17923
      10     H     0.41660  0.41660  0.00000  0.16679
      11     H     0.41130  0.41130  0.00000  0.17739
      12     H     0.39566  0.39566  0.00000  0.20868
      13     H     0.40445  0.40445  0.00000  0.19110

   Total alpha = 20.00000, Total beta = 20.00000, Total charge = -0.00000
