  ==> Input File <==

--------------------------------------------------------------------------
set {
	reference rhf
	basis 6-31G*
}

set_num_threads( 4 )
memory 2 gb

molecule MOL {
0 1

H	 -2.174497	 -0.824614	 -1.532540
C	 -2.725370	 0.124002	 -1.549527
C	 -2.660244	 0.921717	 -0.272021
O	 -3.315435	 0.454549	 -2.526416
C	 -1.220012	 1.144545	 0.209990
H	 -3.178027	 1.860945	 -0.428421
H	 -3.208030	 0.360304	 0.483890
C	 -0.252658	 0.041456	 -0.226725
H	 -0.873521	 2.100229	 -0.171974
H	 -1.211708	 1.231594	 1.295398
C	 1.180775	 0.282413	 0.250794
H	 -0.266029	 -0.034465	 -1.312038
H	 -0.597733	 -0.921000	 0.146291
C	 2.148627	 -0.814315	 -0.201312
H	 1.516199	 1.249228	 -0.115937
H	 1.192670	 0.346017	 1.338083
C	 3.580890	 -0.659131	 0.322722
H	 2.166869	 -0.852443	 -1.289387
H	 1.762857	 -1.776509	 0.128956
C	 4.324889	 0.564933	 -0.213704
H	 4.142010	 -1.551473	 0.056605
H	 3.564836	 -0.624694	 1.410140
H	 4.342616	 0.565491	 -1.300421
H	 3.866655	 1.493402	 0.110242
H	 5.353900	 0.572371	 0.132816

	symmetry c1
}
set optking {
	frozen_dihedral = ("
		6 3 5 8
	")
}

ee = optimize('scf')
oeprop('DIPOLE', 'QUADRUPOLE', 'MULLIKEN_CHARGES')
f=open( 'psi4out.xyz', 'w' )
f.write( "25  " )
f.write( str(ee) + "\n" )
f.write( MOL.save_string_xyz() )
f.close()
--------------------------------------------------------------------------

    Molecular point group: c1
  Charge       = 0
  Multiplicity = 1
  Basis Set: 6-31G*
  Basis Set:
  @DF-RHF Final Energy:  -387.11343102019788
    Total Energy =                       -387.1134310201980497
    Molecular point group: c1
  Basis Set: 6-31G*
  Basis Set:
  Basis Set: 6-31G*
  Basis Set:
  @DF-RHF Final Energy:  -387.11345761723089
    Total Energy =                       -387.1134576172306652
  Basis Set: 6-31G*
  Basis Set:
  Basis Set: 6-31G*
  Basis Set:
  @DF-RHF Final Energy:  -387.11579574801578
    Total Energy =                       -387.1157957480154437
  Basis Set: 6-31G*
  Basis Set:
  Basis Set: 6-31G*
  Basis Set:
  @DF-RHF Final Energy:  -387.11405718064395
    Total Energy =                       -387.1140571806441812
  Basis Set: 6-31G*
  Basis Set:
  @DF-RHF Final Energy:  -387.11647967736798
    Total Energy =                       -387.1164796773679200
  @DF-RHF Final Energy:  -387.11664628998903
    Total Energy =                       -387.1166462899888074
  @DF-RHF Final Energy:  -387.11670900485268
    Total Energy =                       -387.1167090048527371
  @DF-RHF Final Energy:  -387.11678976228819
    Total Energy =                       -387.1167897622879082
  @DF-RHF Final Energy:  -387.11680779827782
    Total Energy =                       -387.1168077982774776
  @DF-RHF Final Energy:  -387.11681750419189
    Total Energy =                       -387.1168175041923405
  Basis Set: 6-31G*
  Basis Set:
  @DF-RHF Final Energy:  -387.11682179593942
    Total Energy =                       -387.1168217959396998
  Basis Set: 6-31G*
  Basis Set:
  Basis Set: 6-31G*
  Basis Set:
  @DF-RHF Final Energy:  -387.11681252804266
    Total Energy =                       -387.1168125280418053
  Basis Set: 6-31G*
  Basis Set:
  Basis Set: 6-31G*
  Basis Set:
  @DF-RHF Final Energy:  -387.11682252257185
    Total Energy =                       -387.1168225225718516
  Basis Set: 6-31G*
  Basis Set:
  Charge       = 0
  Multiplicity = 1
  Basis Set: 6-31G*
  Basis Set:

    Orbital Energies (a.u.)
    -----------------------

    Doubly Occupied:

       1A    -20.560816     2A    -11.324614     3A    -11.235184
       4A    -11.233897     5A    -11.227514     6A    -11.221332
       7A    -11.219154     8A    -11.218502     9A    -11.210982
      10A     -1.400588    11A     -1.103503    12A     -1.068070
      13A     -1.012819    14A     -0.942829    15A     -0.877474
      16A     -0.831413    17A     -0.783290    18A     -0.770851
      19A     -0.681405    20A     -0.653462    21A     -0.630242
      22A     -0.618591    23A     -0.612518    24A     -0.584661
      25A     -0.573448    26A     -0.561300    27A     -0.533211
      28A     -0.523121    29A     -0.511975    30A     -0.497373
      31A     -0.490467    32A     -0.475260    33A     -0.466080
      34A     -0.460301    35A     -0.443006    36A     -0.406844

  @DF-RHF Final Energy:  -387.11682248849462

   => Energetics <=

    Nuclear Repulsion Energy =            440.5341846378980222
    One-Electron Energy =               -1397.3698177353244319
    Two-Electron Energy =                 569.7188106089320172
    DFT Exchange-Correlation Energy =       0.0000000000000000
    Empirical Dispersion Energy =           0.0000000000000000
    PCM Polarization Energy =               0.0000000000000000
    EFP Energy =                            0.0000000000000000
    Total Energy =                       -387.1168224884943356
    Molecular point group: c1
  Basis Set: 6-31G*
  Basis Set:

  -Total Gradient:
     Atom            X                  Y                   Z
    ------   -----------------  -----------------  -----------------
       1        0.000002808740    -0.000001440031     0.000001745726
       2       -0.000001541041     0.000004992839    -0.000000089040
       3       -0.001335431784     0.000897901461     0.004490384682
       4        0.000000893672     0.000000543215     0.000001969650
       5       -0.000536698515    -0.002478511947     0.003375198361
       6        0.001286958580    -0.000128276145    -0.004729077451
       7       -0.000000072937    -0.000002811553    -0.000000852346
       8        0.000585038829     0.001703114270    -0.003133441845
       9       -0.000004778376    -0.000000984500     0.000000682068
      10       -0.000000435026     0.000000132728     0.000001672943
      11        0.000008092718     0.000008958682    -0.000013207193
      12       -0.000003856449     0.000004322583     0.000000527413
      13        0.000004505487    -0.000005399124    -0.000002956113
      14       -0.000006749930    -0.000006552114     0.000014830770
      15        0.000008413442     0.000006491207    -0.000003631933
      16        0.000000500031     0.000001210717    -0.000007015042
      17        0.000004138933    -0.000009105702    -0.000002549461
      18        0.000001657616    -0.000000729172     0.000003530412
      19       -0.000007626145     0.000000361270     0.000000987575
      20       -0.000006558787     0.000004105393     0.000003050382
      21        0.000001260776     0.000002443428    -0.000004177164
      22        0.000004690033    -0.000006092948     0.000000128401
      23        0.000002578172    -0.000002572127     0.000002351331
      24       -0.000006319645     0.000005367697    -0.000003216018
      25       -0.000001468384     0.000002529871     0.000003153888

  **** Optimization is complete! (in 14 steps) ****
    Final optimized geometry and variables:
    Molecular point group: c1

    Geometry (in Angstrom), charge = 0, multiplicity = 1:

    H           -2.829511170339    -1.193285535407    -0.994791764286
    C           -2.998233793660    -0.113072727097    -1.044795047349
    C           -2.824233073142     0.649549094050     0.248254539523
    O           -3.303717955173     0.392675032677    -2.076849314544
    C           -1.342758469229     0.863951555722     0.644699993420
    H           -3.304862358449     1.607307437466     0.091474698559
    H           -3.348257865593     0.107248582917     1.030909831430
    C           -0.369691442434    -0.243438798489     0.224819393656
    H           -1.005870464606     1.793467025950     0.195377117224
    H           -1.291327938394     1.008095010784     1.719416711089
    C            1.055619654535     0.018761932415     0.716250623303
    H           -0.358980475198    -0.330052405178    -0.859275365377
    H           -0.707777009703    -1.205025432185     0.608686072467
    C            2.043026777488    -1.066900980224     0.279983552304
    H            1.381309197464     0.988361234121     0.348789082488
    H            1.053577479980     0.086843087663     1.802985906762
    C            3.464842443500    -0.894631939616     0.826650431535
    H            2.079648390627    -1.104179383496    -0.807532173196
    H            1.663652223470    -2.033905220106     0.604091749012
    C            4.200249012134     0.341868919673     0.306589208526
    H            4.041866725442    -1.778474550644     0.566415891132
    H            3.430772711999    -0.864636341948     1.913862555067
    H            4.238893381406     0.344858557901    -0.779400207306
    H            3.722198933470     1.262901177219     0.623267718150
    H            5.222049838608     0.364034398618     0.672601008691

  Mulliken Charges: (a.u.)
   Center  Symbol    Alpha    Beta     Spin     Total
       1     H     0.42913  0.42913  0.00000  0.14173
       2     C     2.83823  2.83823  0.00000  0.32353
       3     C     3.20630  3.20630  0.00000 -0.41259
       4     O     4.23763  4.23763  0.00000 -0.47525
       5     C     3.15718  3.15718  0.00000 -0.31435
       6     H     0.39826  0.39826  0.00000  0.20349
       7     H     0.41271  0.41271  0.00000  0.17457
       8     C     3.16473  3.16473  0.00000 -0.32947
       9     H     0.41156  0.41156  0.00000  0.17689
      10     H     0.41465  0.41465  0.00000  0.17070
      11     C     3.15374  3.15374  0.00000 -0.30747
      12     H     0.41594  0.41594  0.00000  0.16813
      13     H     0.42258  0.42258  0.00000  0.15483
      14     C     3.15322  3.15322  0.00000 -0.30645
      15     H     0.41890  0.41890  0.00000  0.16220
      16     H     0.42300  0.42300  0.00000  0.15400
      17     C     3.15275  3.15275  0.00000 -0.30551
      18     H     0.42233  0.42233  0.00000  0.15534
      19     H     0.42228  0.42228  0.00000  0.15544
      20     C     3.24158  3.24158  0.00000 -0.48316
      21     H     0.42004  0.42004  0.00000  0.15992
      22     H     0.42325  0.42325  0.00000  0.15350
      23     H     0.42133  0.42133  0.00000  0.15734
      24     H     0.42017  0.42017  0.00000  0.15967
      25     H     0.41852  0.41852  0.00000  0.16296

   Total alpha = 36.00000, Total beta = 36.00000, Total charge = -0.00000
