  ==> Input File <==

--------------------------------------------------------------------------
set {
	reference rhf
	basis 6-31G*
}

set_num_threads( 4 )
memory 2 gb

molecule MOL {
0 1

H	 3.729471	 -0.928294	 -0.070608
O	 2.826016	 -1.159218	 0.122261
C	 2.077727	 -0.067559	 -0.035091
C	 0.624473	 -0.343591	 0.253101
O	 2.542965	 0.974826	 -0.363729
C	 -0.265902	 0.883932	 0.072916
H	 0.324016	 -1.163849	 -0.390541
H	 0.565024	 -0.726111	 1.268924
C	 -1.728698	 0.646073	 0.462102
H	 -0.209144	 1.219470	 -0.958188
H	 0.135059	 1.692851	 0.673903
C	 -2.482460	 -0.343073	 -0.431425
H	 -2.245265	 1.602650	 0.432430
H	 -1.779332	 0.308348	 1.496285
C	 -3.929623	 0.079156	 -0.684248
H	 -1.961874	 -0.434926	 -1.382528
H	 -2.477831	 -1.333120	 0.017092
H	 -4.443228	 -0.637251	 -1.317717
H	 -3.975408	 1.047374	 -1.174438
H	 -4.484177	 0.154435	 0.246902

	symmetry c1
}
set optking {
	frozen_dihedral = ("
		16 12 9 6
	")
}

ee = optimize('scf')
oeprop('DIPOLE', 'QUADRUPOLE', 'MULLIKEN_CHARGES')
f=open( 'psi4out.xyz', 'w' )
f.write( "20  " )
f.write( str(ee) + "\n" )
f.write( MOL.save_string_xyz() )
f.close()
--------------------------------------------------------------------------

    Molecular point group: c1
  Charge       = 0
  Multiplicity = 1
  Basis Set: 6-31G*
  Basis Set:
  @DF-RHF Final Energy:  -383.94533028119298
    Total Energy =                       -383.9453302811930939
    Molecular point group: c1
  Basis Set: 6-31G*
  Basis Set:
  Basis Set: 6-31G*
  Basis Set:
  @DF-RHF Final Energy:  -383.94557794738381
    Total Energy =                       -383.9455779473838675
  Basis Set: 6-31G*
  Basis Set:
  Basis Set: 6-31G*
  Basis Set:
  @DF-RHF Final Energy:  -383.94567695790278
    Total Energy =                       -383.9456769579026059
  Basis Set: 6-31G*
  Basis Set:
  Basis Set: 6-31G*
  Basis Set:
  @DF-RHF Final Energy:  -383.94567626019369
    Total Energy =                       -383.9456762601935793
  Basis Set: 6-31G*
  Basis Set:
  Basis Set: 6-31G*
  Basis Set:
  @DF-RHF Final Energy:  -383.94568791991117
    Total Energy =                       -383.9456879199112223
  Basis Set: 6-31G*
  Basis Set:
  Basis Set: 6-31G*
  Basis Set:
  @DF-RHF Final Energy:  -383.94568805594241
    Total Energy =                       -383.9456880559423553
  Basis Set: 6-31G*
  Basis Set:
  Basis Set: 6-31G*
  Basis Set:
  @DF-RHF Final Energy:  -383.94568925974141
    Total Energy =                       -383.9456892597414708
  Basis Set: 6-31G*
  Basis Set:
  Charge       = 0
  Multiplicity = 1
  Basis Set: 6-31G*
  Basis Set:

    Orbital Energies (a.u.)
    -----------------------

    Doubly Occupied:

       1A    -20.612446     2A    -20.551512     3A    -11.381028
       4A    -11.240013     5A    -11.223080     6A    -11.220628
       7A    -11.219900     8A    -11.212710     9A     -1.474480
      10A     -1.365531    11A     -1.095625    12A     -1.039689
      13A     -0.961210    14A     -0.868970    15A     -0.817279
      16A     -0.776019    17A     -0.699448    18A     -0.689137
      19A     -0.665564    20A     -0.632993    21A     -0.599014
      22A     -0.596891    23A     -0.573438    24A     -0.563326
      25A     -0.532967    26A     -0.514137    27A     -0.498354
      28A     -0.478984    29A     -0.470323    30A     -0.463955
      31A     -0.457165    32A     -0.443215

  @DF-RHF Final Energy:  -383.94568944408138

   => Energetics <=

    Nuclear Repulsion Energy =            376.1617039396621749
    One-Electron Energy =               -1268.3367283807924650
    Two-Electron Energy =                 508.2293349970490794
    DFT Exchange-Correlation Energy =       0.0000000000000000
    Empirical Dispersion Energy =           0.0000000000000000
    PCM Polarization Energy =               0.0000000000000000
    EFP Energy =                            0.0000000000000000
    Total Energy =                       -383.9456894440812107
    Molecular point group: c1
  Basis Set: 6-31G*
  Basis Set:

  -Total Gradient:
     Atom            X                  Y                   Z
    ------   -----------------  -----------------  -----------------
       1        0.000002196730    -0.000001808347     0.000002100724
       2        0.000005941366     0.000000196252    -0.000003139740
       3        0.000004730877    -0.000011786465    -0.000004506033
       4        0.000010020193    -0.000001393377     0.000009184411
       5       -0.000000162976     0.000001543632     0.000013056486
       6       -0.000830628077     0.002274032624    -0.001786243564
       7        0.000009738378     0.000026434552     0.000016682741
       8        0.000014603440    -0.000011495833     0.000011428043
       9        0.001677279984    -0.003962485155     0.002944196666
      10       -0.000002287682     0.000013740729    -0.000038426725
      11       -0.000002826703    -0.000022345097    -0.000024617094
      12       -0.003077520296     0.004781383752    -0.002705053716
      13       -0.000008092601    -0.000032732845     0.000018565891
      14        0.000024103369     0.000003573882     0.000024317584
      15       -0.000017428114     0.000005035872    -0.000009016930
      16        0.002210346030    -0.003091091967     0.001530711422
      17       -0.000000945142     0.000029918444     0.000008928763
      18       -0.000002847337    -0.000005732640     0.000008004394
      19       -0.000010119716    -0.000004048947    -0.000017284571
      20       -0.000006101717     0.000009060935     0.000001111246

  **** Optimization is complete! (in 8 steps) ****
    Final optimized geometry and variables:
    Molecular point group: c1

    Geometry (in Angstrom), charge = 0, multiplicity = 1:

    H            3.698533911799    -1.039693326134    -0.031702433984
    O            2.797062039807    -1.251649540502     0.190061411740
    C            2.062747881142    -0.150617829942     0.032664808150
    C            0.613523323637    -0.395214213692     0.364863131961
    O            2.535710917600     0.877758096428    -0.327740671341
    C           -0.261002621020     0.845506551499     0.198533310369
    H            0.275550407524    -1.215102980290    -0.261674070511
    H            0.574819926673    -0.767514715157     1.385367078065
    C           -1.728280514515     0.601329250338     0.563437388488
    H           -0.194996364547     1.197867685433    -0.825958756739
    H            0.139007768902     1.640212094125     0.819136240885
    C           -2.462652681391    -0.389757328564    -0.360687336647
    H           -2.235046403403     1.562458290542     0.520824633269
    H           -1.804915194122     0.271351562392     1.597033131971
    C           -3.922042835464    -0.015488719287    -0.611151278748
    H           -1.931584046963    -0.477374105437    -1.305972182063
    H           -2.426292353869    -1.386067531432     0.074238158688
    H           -4.418632965784    -0.756905630122    -1.229274390239
    H           -3.998601407756     0.943758822182    -1.114800232628
    H           -4.471193541959     0.058036251894     0.323416833050

  Mulliken Charges: (a.u.)
   Center  Symbol    Alpha    Beta     Spin     Total
       1     H     0.26788  0.26788  0.00000  0.46423
       2     O     4.35152  4.35152  0.00000 -0.70304
       3     C     2.62253  2.62253  0.00000  0.75494
       4     C     3.21234  3.21234  0.00000 -0.42468
       5     O     4.27937  4.27937  0.00000 -0.55874
       6     C     3.15532  3.15532  0.00000 -0.31064
       7     H     0.39649  0.39649  0.00000  0.20703
       8     H     0.39909  0.39909  0.00000  0.20183
       9     C     3.15834  3.15834  0.00000 -0.31667
      10     H     0.41120  0.41120  0.00000  0.17760
      11     H     0.40956  0.40956  0.00000  0.18088
      12     C     3.15676  3.15676  0.00000 -0.31352
      13     H     0.41664  0.41664  0.00000  0.16671
      14     H     0.42095  0.42095  0.00000  0.15809
      15     C     3.23949  3.23949  0.00000 -0.47897
      16     H     0.42117  0.42117  0.00000  0.15765
      17     H     0.42132  0.42132  0.00000  0.15735
      18     H     0.41912  0.41912  0.00000  0.16176
      19     H     0.42027  0.42027  0.00000  0.15946
      20     H     0.42064  0.42064  0.00000  0.15871

   Total alpha = 32.00000, Total beta = 32.00000, Total charge = -0.00000
