  ==> Input File <==

--------------------------------------------------------------------------
set {
	reference rhf
	basis 6-31G*
}

set_num_threads( 4 )
memory 2 gb

molecule MOL {
0 1

H	 0.392775	 1.239255	 2.250317
C	 1.147434	 0.811186	 1.579461
C	 0.692068	 0.589600	 0.160137
O	 2.233797	 0.556702	 1.988340
C	 -0.558097	 -0.297372	 0.091132
H	 1.514835	 0.157176	 -0.397129
H	 0.467294	 1.563895	 -0.272362
C	 -1.850991	 0.512573	 -0.019058
H	 -0.476753	 -0.965681	 -0.762987
H	 -0.604799	 -0.930658	 0.975228
C	 -3.096943	 -0.368295	 -0.099594
H	 -1.800724	 1.150330	 -0.898172
H	 -1.931651	 1.177355	 0.838044
H	 -3.060452	 -1.020287	 -0.967456
H	 -3.996858	 0.233488	 -0.175704
H	 -3.191959	 -0.995686	 0.782074

	symmetry c1
}
set optking {
	frozen_dihedral = ("
		6 3 5 9
	")
}

ee = optimize('scf')
oeprop('DIPOLE', 'QUADRUPOLE', 'MULLIKEN_CHARGES')
f=open( 'psi4out.xyz', 'w' )
f.write( "16  " )
f.write( str(ee) + "\n" )
f.write( MOL.save_string_xyz() )
f.close()
--------------------------------------------------------------------------

    Molecular point group: c1
  Charge       = 0
  Multiplicity = 1
  Basis Set: 6-31G*
  Basis Set:
  @DF-RHF Final Energy:  -270.01587761332513
    Total Energy =                       -270.0158776133250740
    Molecular point group: c1
  Basis Set: 6-31G*
  Basis Set:
  Basis Set: 6-31G*
  Basis Set:
  @DF-RHF Final Energy:  -270.01544093479697
    Total Energy =                       -270.0154409347969136
  Basis Set: 6-31G*
  Basis Set:
  Basis Set: 6-31G*
  Basis Set:
  @DF-RHF Final Energy:  -270.01437016686998
    Total Energy =                       -270.0143701668699805
  Basis Set: 6-31G*
  Basis Set:
  Basis Set: 6-31G*
  Basis Set:
  @DF-RHF Final Energy:  -270.01626005666066
    Total Energy =                       -270.0162600566605420
  Basis Set: 6-31G*
  Basis Set:
  @DF-RHF Final Energy:  -270.01626960319385
    Total Energy =                       -270.0162696031937912
  @DF-RHF Final Energy:  -270.01634810628502
    Total Energy =                       -270.0163481062851929
  Basis Set: 6-31G*
  Basis Set:
  @DF-RHF Final Energy:  -270.01638134956886
    Total Energy =                       -270.0163813495689737
  Basis Set: 6-31G*
  Basis Set:
  Basis Set: 6-31G*
  Basis Set:
  @DF-RHF Final Energy:  -270.01639383677366
    Total Energy =                       -270.0163938367736591
  Basis Set: 6-31G*
  Basis Set:
  Basis Set: 6-31G*
  Basis Set:
  @DF-RHF Final Energy:  -270.01639599586599
    Total Energy =                       -270.0163959958661621
  Basis Set: 6-31G*
  Basis Set:
  Charge       = 0
  Multiplicity = 1
  Basis Set: 6-31G*
  Basis Set:

    Orbital Energies (a.u.)
    -----------------------

    Doubly Occupied:

       1A    -20.561817     2A    -11.327065     3A    -11.236153
       4A    -11.235186     5A    -11.231408     6A    -11.219757
       7A     -1.402174     8A     -1.096328     9A     -1.018144
      10A     -0.905914    11A     -0.821498    12A     -0.791427
      13A     -0.668028    14A     -0.656521    15A     -0.614754
      16A     -0.610732    17A     -0.582440    18A     -0.556678
      19A     -0.536203    20A     -0.507128    21A     -0.485190
      22A     -0.482679    23A     -0.474534    24A     -0.409767

  @DF-RHF Final Energy:  -270.01639603917283

   => Energetics <=

    Nuclear Repulsion Energy =            230.2094682898614337
    One-Electron Energy =                -821.5886768559164466
    Two-Electron Energy =                 321.3628125268819531
    DFT Exchange-Correlation Energy =       0.0000000000000000
    Empirical Dispersion Energy =           0.0000000000000000
    PCM Polarization Energy =               0.0000000000000000
    EFP Energy =                            0.0000000000000000
    Total Energy =                       -270.0163960391730598
    Molecular point group: c1
  Basis Set: 6-31G*
  Basis Set:

  -Total Gradient:
     Atom            X                  Y                   Z
    ------   -----------------  -----------------  -----------------
       1       -0.000003117943     0.000000865375    -0.000002127162
       2        0.000012068168    -0.000003664780    -0.000000231958
       3        0.001138084919    -0.002069357576     0.003076622089
       4       -0.000006827363     0.000001758317    -0.000000745431
       5       -0.001511231803     0.002537502637    -0.002416569789
       6       -0.000709967567     0.001308344086    -0.002157686894
       7        0.000000036364     0.000002422492     0.000001167976
       8       -0.000000128652     0.000001765019     0.000020841553
       9        0.001083801054    -0.001789333920     0.001478821327
      10       -0.000001819161     0.000011421134     0.000001504268
      11        0.000000039764     0.000000292911    -0.000010793346
      12       -0.000002401699    -0.000004458349     0.000003243439
      13        0.000000245553     0.000001116819     0.000004090682
      14        0.000002351378    -0.000004691051     0.000003469100
      15        0.000001127083    -0.000000273589    -0.000004906007
      16       -0.000002260097     0.000006290476     0.000003300151

  **** Optimization is complete! (in 10 steps) ****
    Final optimized geometry and variables:
    Molecular point group: c1

    Geometry (in Angstrom), charge = 0, multiplicity = 1:

    H            0.573771595680     0.697886263986     1.677929413505
    C            1.382617744777     0.476067679549     0.971373222063
    C            0.950508354236     0.226682098972    -0.450989884502
    O            2.509924871854     0.449874185267     1.345733486151
    C           -0.326122110594    -0.631400210836    -0.553171955693
    H            1.781833869226    -0.210938184881    -0.989971963886
    H            0.771625775366     1.201093569682    -0.905129793544
    C           -1.616804142750     0.184124843613    -0.650165886332
    H           -0.240513655524    -1.292743840660    -1.409799395472
    H           -0.387325904410    -1.293820645023     0.309413441419
    C           -2.868337361159    -0.689848798048    -0.706256289768
    H           -1.573011501943     0.813835808934    -1.535893802549
    H           -1.686992014287     0.860285673211     0.199831010123
    H           -2.841154339963    -1.357041202080    -1.562943788665
    H           -3.765444536273    -0.084514476744    -0.786434751366
    H           -2.960359560201    -1.301851344631     0.186327562940

  Mulliken Charges: (a.u.)
   Center  Symbol    Alpha    Beta     Spin     Total
       1     H     0.43145  0.43145  0.00000  0.13710
       2     C     2.83002  2.83002  0.00000  0.33997
       3     C     3.21170  3.21170  0.00000 -0.42341
       4     O     4.23927  4.23927  0.00000 -0.47855
       5     C     3.16747  3.16747  0.00000 -0.33494
       6     H     0.39603  0.39603  0.00000  0.20794
       7     H     0.40472  0.40472  0.00000  0.19056
       8     C     3.15448  3.15448  0.00000 -0.30897
       9     H     0.41080  0.41080  0.00000  0.17841
      10     H     0.41686  0.41686  0.00000  0.16627
      11     C     3.24065  3.24065  0.00000 -0.48130
      12     H     0.41916  0.41916  0.00000  0.16168
      13     H     0.42212  0.42212  0.00000  0.15576
      14     H     0.41939  0.41939  0.00000  0.16122
      15     H     0.41626  0.41626  0.00000  0.16747
      16     H     0.41961  0.41961  0.00000  0.16077

   Total alpha = 24.00000, Total beta = 24.00000, Total charge =  0.00000
