                              Psi4 1.0.54 Driver

  ==> Input File <==

--------------------------------------------------------------------------
set {
	reference rhf
	basis cc-pvtz
}

set_num_threads( 4 )
memory 2 gb

molecule MOL {
0 1

H	 1.881196	 -1.257102	 -0.027908
C	 1.948180	 -0.217873	 0.320185
C	 0.692262	 0.592428	 0.156232
O	 2.959107	 0.187838	 0.779596
C	 -0.554654	 -0.292621	 0.086567
H	 0.791858	 1.203694	 -0.731051
H	 0.617379	 1.254358	 1.016534
C	 -1.846385	 0.513195	 -0.016346
H	 -0.473986	 -0.956115	 -0.769708
H	 -0.597929	 -0.929215	 0.966651
C	 -3.089953	 -0.365049	 -0.098564
H	 -1.798267	 1.154820	 -0.891143
H	 -1.925398	 1.173265	 0.842889
H	 -3.055079	 -1.012299	 -0.968245
H	 -3.988403	 0.236438	 -0.170014
H	 -3.183055	 -0.995885	 0.779079

	symmetry c1
}
set optking {
	frozen_dihedral = ("
		4 2 3 6
	")
}

ee,wfn = optimize('scf', return_wfn=True)
oeprop( wfn, 'DIPOLE', 'QUADRUPOLE', 'MULLIKEN_CHARGES')
f=open( 'psi4out.xyz', 'w' )
f.write( "16  " )
f.write( str(ee) + "\n" )
f.write( MOL.save_string_xyz() )
f.close()
--------------------------------------------------------------------------

    Molecular point group: c1
  Charge       = 0
  Multiplicity = 1
  Basis Set: CC-PVTZ
  Basis Set:
  @DF-RHF Final Energy:  -270.11777888599454
    Total Energy =                       -270.1177788859946531
    Molecular point group: c1
  Basis Set: CC-PVTZ
  Basis Set:
  Basis Set: CC-PVTZ
  Basis Set:
  @DF-RHF Final Energy:  -270.11814664764910
    Total Energy =                       -270.1181466476491551
  Basis Set: CC-PVTZ
  Basis Set:
  Basis Set: CC-PVTZ
  Basis Set:
  @DF-RHF Final Energy:  -270.11718939493437
    Total Energy =                       -270.1171893949342575
  Basis Set: CC-PVTZ
  Basis Set:
  Basis Set: CC-PVTZ
  Basis Set:
  @DF-RHF Final Energy:  -270.11827488883057
    Total Energy =                       -270.1182748888305127
  Basis Set: CC-PVTZ
  Basis Set:
  Basis Set: CC-PVTZ
  Basis Set:
  @DF-RHF Final Energy:  -270.11828920913251
    Total Energy =                       -270.1182892091325130
  Basis Set: CC-PVTZ
  Basis Set:
  Basis Set: CC-PVTZ
  Basis Set:
  @DF-RHF Final Energy:  -270.11829149345061
    Total Energy =                       -270.1182914934506698
  Basis Set: CC-PVTZ
  Basis Set:
  Basis Set: CC-PVTZ
  Basis Set:
  @DF-RHF Final Energy:  -270.11829374124636
    Total Energy =                       -270.1182937412461911
  Basis Set: CC-PVTZ
  Basis Set:
  Charge       = 0
  Multiplicity = 1
  Basis Set: CC-PVTZ
  Basis Set:

    Orbital Energies (a.u.)
    -----------------------

    Doubly Occupied:

       1A    -20.551435     2A    -11.322281     3A    -11.234388
       4A    -11.232762     5A    -11.227487     6A    -11.216917
       7A     -1.407042     8A     -1.098030     9A     -1.019810
      10A     -0.905957    11A     -0.812582    12A     -0.797053
      13A     -0.671587    14A     -0.656408    15A     -0.634826
      16A     -0.603697    17A     -0.589840    18A     -0.546191
      19A     -0.536556    20A     -0.500498    21A     -0.490575
      22A     -0.486237    23A     -0.478819    24A     -0.411850

  @DF-RHF Final Energy:  -270.11829377578727

   => Energetics <=

    Nuclear Repulsion Energy =            228.6107612540294269
    One-Electron Energy =                -818.5924545138318535
    Two-Electron Energy =                 319.8633994840151331
    DFT Exchange-Correlation Energy =       0.0000000000000000
    Empirical Dispersion Energy =           0.0000000000000000
    PCM Polarization Energy =               0.0000000000000000
    EFP Energy =                            0.0000000000000000
    Total Energy =                       -270.1182937757873219
    Molecular point group: c1
  Basis Set: CC-PVTZ
  Basis Set:

  -Total Gradient:
     Atom            X                  Y                   Z
    ------   -----------------  -----------------  -----------------
       1       -0.000000721994    -0.000009130213    -0.000004323054
       2       -0.000293365158    -0.000345158615     0.001571641299
       3       -0.000381389035    -0.000747243665    -0.001135463751
       4        0.000266287672     0.000347776497    -0.001008316397
       5       -0.000000644623     0.000002336041     0.000002213633
       6        0.000410025088     0.000753253337     0.000574371086
       7       -0.000001019547    -0.000001258535    -0.000003078876
       8       -0.000000759125    -0.000001804929     0.000007139456
       9       -0.000001100232     0.000000362925     0.000001940225
      10        0.000001635108     0.000001074787    -0.000000281787
      11        0.000000141602     0.000000124860    -0.000007244055
      12       -0.000001050002    -0.000000124403     0.000002172678
      13        0.000000481799    -0.000000818826     0.000000695805
      14       -0.000001162769    -0.000001899011     0.000000970555
      15        0.000001378067    -0.000000819682    -0.000001673050
      16        0.000001263156     0.000003329432    -0.000000763766

  **** Optimization is complete! (in 8 steps) ****
    Final optimized geometry and variables:
    Molecular point group: c1

    Geometry (in Angstrom), charge = 0, multiplicity = 1:

    H            1.932028726398    -1.279956795295    -0.322004655341
    C            1.955559130697    -0.256094668784     0.073383711797
    C            0.659920368857     0.512428150834    -0.011881348150
    O            2.962347744877     0.187288497250     0.505463205263
    C           -0.577002346009    -0.375874934609    -0.093198548715
    H            0.733297415770     1.144042715497    -0.894438663448
    H            0.616553347735     1.181768823276     0.838944945217
    C           -1.874731446004     0.418749103000    -0.202795815079
    H           -0.489896292648    -1.040053800446    -0.949413353850
    H           -0.620929462340    -1.015172667840     0.785132561488
    C           -3.112184698353    -0.468344804575    -0.281638013143
    H           -1.830060004651     1.056336407850    -1.081312233839
    H           -1.960387893394     1.083520925485     0.651828382051
    H           -3.071436511141    -1.121745633744    -1.146661566124
    H           -4.014707984127     0.126233464604    -0.358928872445
    H           -3.202511827673    -1.093490684339     0.600257229920

  Mulliken Charges: (a.u.)
   Center  Symbol    Alpha    Beta     Spin     Total
       1     H     0.46360  0.46360  0.00000  0.07279
       2     C     2.91290  2.91290  0.00000  0.17419
       3     C     3.08047  3.08047  0.00000 -0.16095
       4     O     4.16429  4.16429  0.00000 -0.32857
       5     C     3.10247  3.10247  0.00000 -0.20494
       6     H     0.44328  0.44328  0.00000  0.11343
       7     H     0.43933  0.43933  0.00000  0.12134
       8     C     3.08463  3.08463  0.00000 -0.16926
       9     H     0.45228  0.45228  0.00000  0.09543
      10     H     0.44900  0.44900  0.00000  0.10199
      11     C     3.14903  3.14903  0.00000 -0.29807
      12     H     0.45269  0.45269  0.00000  0.09462
      13     H     0.45124  0.45124  0.00000  0.09752
      14     H     0.45443  0.45443  0.00000  0.09113
      15     H     0.44646  0.44646  0.00000  0.10707
      16     H     0.45387  0.45387  0.00000  0.09226

   Total alpha = 24.00000, Total beta = 24.00000, Total charge =  0.00000

*** Psi4 exiting successfully. Buy a developer a beer!
