  ==> Input File <==

--------------------------------------------------------------------------
set {
	reference rhf
	basis 6-31G*
}

set_num_threads( 4 )
memory 2 gb

molecule MOL {
0 1

H	 -3.607082	 0.395493	 -1.041352
C	 -2.881770	 0.909898	 -1.683950
C	 -1.933000	 1.832757	 -0.962302
O	 -2.884014	 0.721325	 -2.857060
C	 -1.220012	 1.144545	 0.209990
H	 -1.225821	 2.227690	 -1.682465
H	 -2.523617	 2.665774	 -0.582947
C	 -0.252658	 0.041456	 -0.226725
H	 -0.677324	 1.898283	 0.772709
H	 -1.961894	 0.733141	 0.892716
C	 1.180775	 0.282413	 0.250794
H	 -0.266029	 -0.034465	 -1.312038
H	 -0.597733	 -0.921000	 0.146291
C	 2.148627	 -0.814315	 -0.201312
H	 1.516199	 1.249228	 -0.115937
H	 1.192670	 0.346017	 1.338083
C	 3.580890	 -0.659131	 0.322722
H	 2.166869	 -0.852443	 -1.289387
H	 1.762857	 -1.776509	 0.128956
C	 4.324889	 0.564933	 -0.213704
H	 4.142010	 -1.551473	 0.056605
H	 3.564836	 -0.624694	 1.410140
H	 4.342616	 0.565491	 -1.300421
H	 3.866655	 1.493402	 0.110242
H	 5.353900	 0.572371	 0.132816

	symmetry c1
}
set optking {
	frozen_dihedral = ("
		3 5 8 12
	")
}

ee = optimize('scf')
oeprop('DIPOLE', 'QUADRUPOLE', 'MULLIKEN_CHARGES')
f=open( 'psi4out.xyz', 'w' )
f.write( "25  " )
f.write( str(ee) + "\n" )
f.write( MOL.save_string_xyz() )
f.close()
--------------------------------------------------------------------------

    Molecular point group: c1
  Charge       = 0
  Multiplicity = 1
  Basis Set: 6-31G*
  Basis Set:
  @DF-RHF Final Energy:  -387.11659678059812
    Total Energy =                       -387.1165967805980017
    Molecular point group: c1
  Basis Set: 6-31G*
  Basis Set:
  Basis Set: 6-31G*
  Basis Set:
  @DF-RHF Final Energy:  -387.11673506266072
    Total Energy =                       -387.1167350626602683
  Basis Set: 6-31G*
  Basis Set:
  Basis Set: 6-31G*
  Basis Set:
  @DF-RHF Final Energy:  -387.11672857666139
    Total Energy =                       -387.1167285766612167
  Basis Set: 6-31G*
  Basis Set:
  Basis Set: 6-31G*
  Basis Set:
  @DF-RHF Final Energy:  -387.11691324290678
    Total Energy =                       -387.1169132429065485
  Basis Set: 6-31G*
  Basis Set:
  @DF-RHF Final Energy:  -387.11690955487137
    Total Energy =                       -387.1169095548707446
  @DF-RHF Final Energy:  -387.11692660641950
    Total Energy =                       -387.1169266064194971
  Basis Set: 6-31G*
  Basis Set:
  @DF-RHF Final Energy:  -387.11692927759509
    Total Energy =                       -387.1169292775950908
  Basis Set: 6-31G*
  Basis Set:
  Basis Set: 6-31G*
  Basis Set:
  @DF-RHF Final Energy:  -387.11693833995548
    Total Energy =                       -387.1169383399550270
  Basis Set: 6-31G*
  Basis Set:
  Basis Set: 6-31G*
  Basis Set:
  @DF-RHF Final Energy:  -387.11694041214673
    Total Energy =                       -387.1169404121467323
  Basis Set: 6-31G*
  Basis Set:
  Charge       = 0
  Multiplicity = 1
  Basis Set: 6-31G*
  Basis Set:

    Orbital Energies (a.u.)
    -----------------------

    Doubly Occupied:

       1A    -20.562673     2A    -11.326136     3A    -11.235275
       4A    -11.234695     5A    -11.222054     6A    -11.219114
       7A    -11.217144     8A    -11.215689     9A    -11.209606
      10A     -1.402237    11A     -1.101333    12A     -1.068352
      13A     -1.012060    14A     -0.940853    15A     -0.875297
      16A     -0.821321    17A     -0.785768    18A     -0.781263
      19A     -0.666351    20A     -0.654561    21A     -0.638722
      22A     -0.620352    23A     -0.605015    24A     -0.589107
      25A     -0.576936    26A     -0.546068    27A     -0.537041
      28A     -0.522687    29A     -0.510294    30A     -0.498056
      31A     -0.487480    32A     -0.474605    33A     -0.462396
      34A     -0.457524    35A     -0.440377    36A     -0.409565

  @DF-RHF Final Energy:  -387.11694055928683

   => Energetics <=

    Nuclear Repulsion Energy =            441.3191326020643146
    One-Electron Energy =               -1399.0161334264280413
    Two-Electron Energy =                 570.5800602650767814
    DFT Exchange-Correlation Energy =       0.0000000000000000
    Empirical Dispersion Energy =           0.0000000000000000
    PCM Polarization Energy =               0.0000000000000000
    EFP Energy =                            0.0000000000000000
    Total Energy =                       -387.1169405592869452
    Molecular point group: c1
  Basis Set: 6-31G*
  Basis Set:

  -Total Gradient:
     Atom            X                  Y                   Z
    ------   -----------------  -----------------  -----------------
       1        0.000004627313    -0.000006094311     0.000003418657
       2       -0.000012115450     0.000011930531    -0.000002682458
       3        0.000374568593     0.000334915833    -0.000030371603
       4        0.000000786861    -0.000000100282    -0.000005104082
       5       -0.000662488346    -0.000588396616     0.000059994043
       6        0.000003652189     0.000003087851    -0.000007328764
       7        0.000000012142    -0.000006265034    -0.000003332688
       8        0.000788179845     0.000698082598    -0.000062582127
       9        0.000009389440    -0.000006408238     0.000004698502
      10        0.000012646410     0.000001462413    -0.000001958315
      11        0.000005839868     0.000016668377    -0.000000968640
      12       -0.000514472455    -0.000467658123     0.000040975844
      13       -0.000011201502     0.000007411633    -0.000001025906
      14       -0.000007345410     0.000009190876    -0.000019400269
      15       -0.000007010710    -0.000007609951     0.000006715875
      16        0.000000585333    -0.000000139875     0.000005394632
      17       -0.000008539763     0.000016491314     0.000020716913
      18       -0.000003300359    -0.000008471173    -0.000003600616
      19       -0.000000339474     0.000001834041     0.000005176249
      20        0.000010092611     0.000000759716    -0.000001051102
      21       -0.000002429352     0.000006349590    -0.000007712732
      22        0.000005920425    -0.000007289580     0.000003732850
      23        0.000002935786     0.000000258260    -0.000001632070
      24        0.000011271578    -0.000011641841    -0.000001590199
      25       -0.000001265564     0.000001631989    -0.000000481993

  **** Optimization is complete! (in 10 steps) ****
    Final optimized geometry and variables:
    Molecular point group: c1

    Geometry (in Angstrom), charge = 0, multiplicity = 1:

    H           -3.917968388954     0.018152150928    -0.452539161506
    C           -3.130705193003     0.465708490247    -1.071593585400
    C           -2.203153170653     1.404162204682    -0.343805435875
    O           -3.051925406513     0.193857210971    -2.225986209987
    C           -1.478263100784     0.709293225383     0.819995889027
    H           -1.497253933026     1.811209151000    -1.058550200917
    H           -2.804329749491     2.224422689614     0.045379346677
    C           -0.492423005017    -0.394049801512     0.370731667193
    H           -0.946645645415     1.471386767287     1.380968496198
    H           -2.216132784537     0.300419573643     1.505578730863
    C            0.942111575669    -0.155439779931     0.849093136720
    H           -0.496430913596    -0.474181439857    -0.713206115501
    H           -0.830748191950    -1.359838086930     0.736842393797
    C            1.907727731977    -1.254612167619     0.400445675361
    H            1.278070707858     0.810874074919     0.480960189922
    H            0.951273202794    -0.089373548402     1.936216343361
    C            3.339079626795    -1.104084574061     0.928551557237
    H            1.928947678650    -1.292776574502    -0.687441283486
    H            1.517922088554    -2.215746663875     0.729505128692
    C            4.088225990017     0.118704864071     0.395744103379
    H            3.898384373458    -1.997792457328     0.663345338711
    H            3.319631607490    -1.070820635426     2.016067800906
    H            4.112532132654     0.118461671671    -0.690668235585
    H            3.629724964318     1.048347671462     0.716253556465
    H            5.115049417489     0.124815941916     0.748222700231

  Mulliken Charges: (a.u.)
   Center  Symbol    Alpha    Beta     Spin     Total
       1     H     0.43203  0.43203  0.00000  0.13594
       2     C     2.83039  2.83039  0.00000  0.33922
       3     C     3.20824  3.20824  0.00000 -0.41649
       4     O     4.23794  4.23794  0.00000 -0.47589
       5     C     3.16921  3.16921  0.00000 -0.33843
       6     H     0.40025  0.40025  0.00000  0.19950
       7     H     0.40923  0.40923  0.00000  0.18154
       8     C     3.16127  3.16127  0.00000 -0.32253
       9     H     0.41017  0.41017  0.00000  0.17967
      10     H     0.41674  0.41674  0.00000  0.16652
      11     C     3.15558  3.15558  0.00000 -0.31115
      12     H     0.41051  0.41051  0.00000  0.17898
      13     H     0.41823  0.41823  0.00000  0.16353
      14     C     3.15388  3.15388  0.00000 -0.30777
      15     H     0.42075  0.42075  0.00000  0.15850
      16     H     0.42343  0.42343  0.00000  0.15313
      17     C     3.15262  3.15262  0.00000 -0.30525
      18     H     0.42169  0.42169  0.00000  0.15661
      19     H     0.42173  0.42173  0.00000  0.15653
      20     C     3.24132  3.24132  0.00000 -0.48264
      21     H     0.42017  0.42017  0.00000  0.15966
      22     H     0.42358  0.42358  0.00000  0.15283
      23     H     0.42132  0.42132  0.00000  0.15736
      24     H     0.42080  0.42080  0.00000  0.15841
      25     H     0.41889  0.41889  0.00000  0.16222

   Total alpha = 36.00000, Total beta = 36.00000, Total charge = -0.00000
