                              Psi4 1.0.54 Driver

  ==> Input File <==

--------------------------------------------------------------------------
set {
	reference rhf
	basis cc-pvtz
}

set_num_threads( 4 )
memory 2 gb

molecule MOL {
0 1

O	 0.977740	 4.311720	 0.812090
C	 -0.058449	 4.703317	 1.239964
C	 -1.315007	 3.856837	 1.220869
C	 -0.192197	 6.085773	 1.837584
C	 -1.135113	 2.474778	 0.609002
H	 -1.674388	 3.781301	 2.244689
H	 -2.079522	 4.417722	 0.688018
C	 -2.425351	 1.659676	 0.611410
H	 -0.362437	 1.943189	 1.152600
H	 -0.767789	 2.580215	 -0.405440
C	 -2.258482	 0.271340	 0.000669
H	 -2.789190	 1.560086	 1.631693
H	 -3.196249	 2.199806	 0.066215
C	 -3.544441	 -0.550271	 -0.000253
H	 -1.488262	 -0.269436	 0.545129
H	 -1.895567	 0.369860	 -1.019485
C	 -4.804551	 0.308747	 0.000556
H	 -3.553737	 -1.201524	 -0.870151
H	 -3.553831	 -1.203282	 0.868313
H	 -4.842050	 0.949078	 -0.874436
H	 -5.698404	 -0.304480	 -0.000254
H	 -4.842277	 0.947103	 0.876982
H	 -0.529258	 6.017705	 2.866080
H	 0.758616	 6.594605	 1.799695
H	 -0.934625	 6.658365	 1.292625

	symmetry c1
}
set optking {
	frozen_dihedral = ("
		15 11 14 18
	")
}

ee,wfn = optimize('scf', return_wfn=True)
oeprop( wfn, 'DIPOLE', 'QUADRUPOLE', 'MULLIKEN_CHARGES')
f=open( 'psi4out.xyz', 'w' )
f.write( "25  " )
f.write( str(ee) + "\n" )
f.write( MOL.save_string_xyz() )
f.close()
--------------------------------------------------------------------------

    Molecular point group: c1
  Charge       = 0
  Multiplicity = 1
  Basis Set: CC-PVTZ
  Basis Set:
  @DF-RHF Final Energy:  -387.26503436645589
    Total Energy =                       -387.2650343664558932
    Molecular point group: c1
  Basis Set: CC-PVTZ
  Basis Set:
  Basis Set: CC-PVTZ
  Basis Set:
  @DF-RHF Final Energy:  -387.21451341394618
    Total Energy =                       -387.2145134139459515
  Basis Set: CC-PVTZ
  Basis Set:
  Basis Set: CC-PVTZ
  Basis Set:
  @DF-RHF Final Energy:  -387.26453249757361
    Total Energy =                       -387.2645324975737822
  Basis Set: CC-PVTZ
  Basis Set:
  Basis Set: CC-PVTZ
  Basis Set:
  @DF-RHF Final Energy:  -387.26773036870486
    Total Energy =                       -387.2677303687048607
  Basis Set: CC-PVTZ
  Basis Set:
  Basis Set: CC-PVTZ
  Basis Set:
  @DF-RHF Final Energy:  -387.26781714164918
    Total Energy =                       -387.2678171416488340
  Basis Set: CC-PVTZ
  Basis Set:
  Basis Set: CC-PVTZ
  Basis Set:
  @DF-RHF Final Energy:  -387.26782356656463
    Total Energy =                       -387.2678235665648572
  Basis Set: CC-PVTZ
  Basis Set:
  Basis Set: CC-PVTZ
  Basis Set:
  @DF-RHF Final Energy:  -387.26793172294236
    Total Energy =                       -387.2679317229420803
  Basis Set: CC-PVTZ
  Basis Set:
  Charge       = 0
  Multiplicity = 1
  Basis Set: CC-PVTZ
  Basis Set:

    Orbital Energies (a.u.)
    -----------------------

    Doubly Occupied:

       1A    -20.538751     2A    -11.320373     3A    -11.229962
       4A    -11.226501     5A    -11.214676     6A    -11.214379
       7A    -11.213945     8A    -11.212189     9A    -11.206924
      10A     -1.398772    11A     -1.094275    12A     -1.055403
      13A     -1.014096    14A     -0.967496    15A     -0.897586
      16A     -0.826900    17A     -0.773282    18A     -0.730171
      19A     -0.662027    20A     -0.653974    21A     -0.631223
      22A     -0.626419    23A     -0.602172    24A     -0.593765
      25A     -0.562579    26A     -0.557326    27A     -0.547236
      28A     -0.522724    29A     -0.511871    30A     -0.494309
      31A     -0.494086    32A     -0.478638    33A     -0.457319
      34A     -0.454698    35A     -0.451656    36A     -0.401274

  @DF-RHF Final Energy:  -387.26793220388481

   => Energetics <=

    Nuclear Repulsion Energy =            444.2642239612578123
    One-Electron Energy =               -1405.3863593724781822
    Two-Electron Energy =                 573.8542032073357859
    DFT Exchange-Correlation Energy =       0.0000000000000000
    Empirical Dispersion Energy =           0.0000000000000000
    PCM Polarization Energy =               0.0000000000000000
    EFP Energy =                            0.0000000000000000
    Total Energy =                       -387.2679322038845839
    Molecular point group: c1
  Basis Set: CC-PVTZ
  Basis Set:

  -Total Gradient:
     Atom            X                  Y                   Z
    ------   -----------------  -----------------  -----------------
       1        0.000037466831     0.000015881506    -0.000135822928
       2       -0.000091599603    -0.000137245683     0.000285875540
       3        0.000064354100     0.000093002339    -0.000100049337
       4        0.000019433180    -0.000005417982    -0.000044149410
       5       -0.000086814138     0.000013570137     0.000016103882
       6        0.000037446779    -0.000010801981    -0.000041435920
       7       -0.000045392291     0.000053443431    -0.000013931653
       8        0.000194658653    -0.000018323366     0.000180806924
       9        0.000007573475    -0.000046939674     0.000006970373
      10       -0.000024314813    -0.000010179292     0.000025603520
      11        0.003648162690    -0.001218484369    -0.006865587955
      12        0.000098720622     0.000063669276     0.000022435542
      13       -0.000035154461     0.000015474765     0.000006185750
      14        0.002633925826    -0.004879242891     0.005553651230
      15       -0.003567021315     0.001837451384     0.004929998297
      16        0.000069812899     0.000004374181     0.000019064784
      17       -0.000095775016    -0.000088288223    -0.000084189219
      18       -0.002912862535     0.004384195353    -0.003629094271
      19        0.000016231570    -0.000070548221     0.000032513449
      20       -0.000063326019    -0.000019381110    -0.000037870483
      21        0.000058431475     0.000102368376     0.000043684917
      22        0.000078622348    -0.000085677008    -0.000117460821
      23        0.000003641871     0.000007152226    -0.000012130469
      24       -0.000012525375    -0.000025691450    -0.000014777874
      25       -0.000033696753     0.000025638277    -0.000026393865

  **** Optimization is complete! (in 8 steps) ****
    Final optimized geometry and variables:
    Molecular point group: c1

    Geometry (in Angstrom), charge = 0, multiplicity = 1:

    O            2.268114929544     1.978388251609     0.981894497964
    C            1.119219437386     2.204195034594     1.179718054146
    C            0.020034911011     1.258081312798     0.741269092386
    C            0.674085537450     3.464859259237     1.886025965020
    C            0.512951568703     0.001538712180     0.037734887173
    H           -0.563138915148     1.002410222024     1.623015210098
    H           -0.657194945655     1.818656239898     0.100709781293
    C           -0.628304447572    -0.920037943847    -0.384634628303
    H            1.193896677529    -0.529123439628     0.693411268617
    H            1.096441342669     0.286443528225    -0.830437298696
    C           -0.124148483147    -2.174065656174    -1.102437842020
    H           -1.199375176116    -1.209922601766     0.494722565379
    H           -1.311472553342    -0.369963402502    -1.024040792514
    C           -1.200351362392    -3.208505905322    -1.490059501359
    H            0.573604434301    -2.651625510847    -0.421550291900
    H            0.433767828004    -1.872921042272    -1.982856625462
    C           -2.578469345674    -2.641661328027    -1.836879691666
    H           -0.858720274523    -3.733916657241    -2.375609817468
    H           -1.310372937106    -3.940752514974    -0.697848040239
    H           -2.518877201402    -1.920290100865    -2.645321996287
    H           -3.237775336468    -3.438978521755    -2.160222047852
    H           -3.047690321768    -2.153736210033    -0.991806615026
    H            0.115798224940     3.214750276866     2.781432877058
    H            1.534514830998     4.060631276175     2.148916587869
    H            0.014309579052     4.039243618998     1.244963413179

  Mulliken Charges: (a.u.)
   Center  Symbol    Alpha    Beta     Spin     Total
       1     O     4.17100  4.17100  0.00000 -0.34199
       2     C     2.86225  2.86225  0.00000  0.27550
       3     C     3.11298  3.11298  0.00000 -0.22596
       4     C     3.15124  3.15124  0.00000 -0.30249
       5     C     3.08392  3.08392  0.00000 -0.16783
       6     H     0.44575  0.44575  0.00000  0.10849
       7     H     0.44576  0.44576  0.00000  0.10847
       8     C     3.09349  3.09349  0.00000 -0.18699
       9     H     0.44558  0.44558  0.00000  0.10885
      10     H     0.44624  0.44624  0.00000  0.10752
      11     C     3.09667  3.09667  0.00000 -0.19334
      12     H     0.45506  0.45506  0.00000  0.08987
      13     H     0.45262  0.45262  0.00000  0.09475
      14     C     3.08841  3.08841  0.00000 -0.17682
      15     H     0.45082  0.45082  0.00000  0.09836
      16     H     0.45032  0.45032  0.00000  0.09936
      17     C     3.15801  3.15801  0.00000 -0.31603
      18     H     0.45052  0.45052  0.00000  0.09897
      19     H     0.45146  0.45146  0.00000  0.09707
      20     H     0.45392  0.45392  0.00000  0.09215
      21     H     0.44472  0.44472  0.00000  0.11056
      22     H     0.45307  0.45307  0.00000  0.09387
      23     H     0.45039  0.45039  0.00000  0.09922
      24     H     0.43537  0.43537  0.00000  0.12926
      25     H     0.45042  0.45042  0.00000  0.09917

   Total alpha = 36.00000, Total beta = 36.00000, Total charge = -0.00000

*** Psi4 exiting successfully. Buy a developer a beer!
