                              Psi4 1.0.54 Driver

  ==> Input File <==

--------------------------------------------------------------------------
set {
	reference rhf
	basis cc-pvtz
}

set_num_threads( 4 )
memory 2 gb

molecule MOL {
0 1

H	 -3.162190	 0.493205	 -0.000107
C	 -2.363908	 -0.234727	 0.000005
O	 -1.158738	 0.454634	 -0.000087
H	 -2.464314	 -0.863616	 -0.882153
H	 -2.464327	 -0.863359	 0.882345
C	 -0.866701	 1.105649	 1.196245
C	 0.465905	 1.815292	 1.066004
H	 -0.830744	 0.385969	 2.014417
H	 -1.652816	 1.822979	 1.433107
C	 0.858544	 2.555232	 2.339847
H	 1.223771	 1.082895	 0.810742
H	 0.408211	 2.508509	 0.234095
H	 0.945753	 1.875547	 3.180983
H	 1.813178	 3.052346	 2.219133
H	 0.124908	 3.310879	 2.600315

	symmetry c1
}
set optking {
	frozen_dihedral = ("
		6 3 2 4
	")
}

ee,wfn = optimize('scf', return_wfn=True)
oeprop( wfn, 'DIPOLE', 'QUADRUPOLE', 'MULLIKEN_CHARGES')
f=open( 'psi4out.xyz', 'w' )
f.write( "15  " )
f.write( str(ee) + "\n" )
f.write( MOL.save_string_xyz() )
f.close()
--------------------------------------------------------------------------

    Molecular point group: c1
  Charge       = 0
  Multiplicity = 1
  Basis Set: CC-PVTZ
  Basis Set:
  @DF-RHF Final Energy:  -232.22694090475858
    Total Energy =                       -232.2269409047586350
    Molecular point group: c1
  Basis Set: CC-PVTZ
  Basis Set:
  Basis Set: CC-PVTZ
  Basis Set:
  @DF-RHF Final Energy:  -232.22777379448789
    Total Energy =                       -232.2277737944879732
  Basis Set: CC-PVTZ
  Basis Set:
  Basis Set: CC-PVTZ
  Basis Set:
  @DF-RHF Final Energy:  -232.22798778665393
    Total Energy =                       -232.2279877866538413
  Basis Set: CC-PVTZ
  Basis Set:
  Charge       = 0
  Multiplicity = 1
  Basis Set: CC-PVTZ
  Basis Set:

    Orbital Energies (a.u.)
    -----------------------

    Doubly Occupied:

       1A    -20.547368     2A    -11.264449     3A    -11.261743
       4A    -11.212748     5A    -11.210719     6A     -1.381653
       7A     -1.058468     8A     -0.956162     9A     -0.877353
      10A     -0.809561    11A     -0.677047    12A     -0.655840
      13A     -0.632228    14A     -0.608623    15A     -0.565079
      16A     -0.541315    17A     -0.503698    18A     -0.490170
      19A     -0.478450    20A     -0.462895    21A     -0.416540

  @DF-RHF Final Energy:  -232.22798853061249

   => Energetics <=

    Nuclear Repulsion Energy =            189.9960518104265930
    One-Electron Energy =                -691.2238607090266669
    Two-Electron Energy =                 268.9998203679875246
    DFT Exchange-Correlation Energy =       0.0000000000000000
    Empirical Dispersion Energy =           0.0000000000000000
    PCM Polarization Energy =               0.0000000000000000
    EFP Energy =                            0.0000000000000000
    Total Energy =                       -232.2279885306125493
    Molecular point group: c1
  Basis Set: CC-PVTZ
  Basis Set:

  -Total Gradient:
     Atom            X                  Y                   Z
    ------   -----------------  -----------------  -----------------
       1        0.000021800572     0.000012561726    -0.000002190980
       2       -0.000534320720     0.000926660030    -0.000594522828
       3       -0.000600112214     0.001065653619    -0.000379003930
       4        0.000650483736    -0.001002351122     0.000645120571
       5        0.000025058618     0.000015853763     0.000003598672
       6        0.000489548722    -0.000960944459     0.000474815265
       7        0.000002647886    -0.000022280626    -0.000084175116
       8       -0.000005455171    -0.000007423046     0.000013576110
       9       -0.000003783668    -0.000007982775    -0.000042672895
      10       -0.000060784708    -0.000020021062    -0.000001846095
      11        0.000006877288    -0.000003127869    -0.000004876074
      12        0.000019971276     0.000018321974    -0.000007666072
      13        0.000001269270    -0.000003916953    -0.000001163420
      14       -0.000011721344    -0.000016100077    -0.000026235406
      15       -0.000001479544     0.000005096878     0.000007242195

  **** Optimization is complete! (in 4 steps) ****
    Final optimized geometry and variables:
    Molecular point group: c1

    Geometry (in Angstrom), charge = 0, multiplicity = 1:

    H           -2.568209474924    -0.705746367182    -0.893913764753
    C           -1.707841218357    -1.370720422756    -0.922811961335
    O           -0.513854222665    -0.661931191588    -0.919466545866
    H           -1.743812230982    -1.957831190218    -1.829196690751
    H           -1.770470716353    -2.049040675878    -0.074362543283
    C           -0.220794939686    -0.026734245901     0.285009134539
    C            1.092696139673     0.716834454589     0.149790192730
    H           -0.156481494868    -0.761471371655     1.087671283779
    H           -1.019477599869     0.667749591322     0.547612741190
    C            1.488407919111     1.437096948484     1.433943569499
    H            1.863058726715     0.008097847732    -0.133676996496
    H            1.006042906795     1.427021172637    -0.665183613824
    H            1.605227862704     0.740856446382     2.257829892017
    H            2.429062244646     1.959474390715     1.309645360465
    H            0.741475668913     2.168979638391     1.723138060174

  Mulliken Charges: (a.u.)
   Center  Symbol    Alpha    Beta     Spin     Total
       1     H     0.46974  0.46974  0.00000  0.06052
       2     C     3.03318  3.03318  0.00000 -0.06635
       3     O     4.17179  4.17179  0.00000 -0.34358
       4     H     0.44736  0.44736  0.00000  0.10528
       5     H     0.47399  0.47399  0.00000  0.05201
       6     C     2.95610  2.95610  0.00000  0.08780
       7     C     3.08029  3.08029  0.00000 -0.16058
       8     H     0.47488  0.47488  0.00000  0.05025
       9     H     0.47669  0.47669  0.00000  0.04662
      10     C     3.15582  3.15582  0.00000 -0.31164
      11     H     0.45116  0.45116  0.00000  0.09769
      12     H     0.45104  0.45104  0.00000  0.09793
      13     H     0.45587  0.45587  0.00000  0.08826
      14     H     0.44627  0.44627  0.00000  0.10746
      15     H     0.45583  0.45583  0.00000  0.08835

   Total alpha = 21.00000, Total beta = 21.00000, Total charge =  0.00000

*** Psi4 exiting successfully. Buy a developer a beer!
