                              Psi4 1.0.54 Driver

  ==> Input File <==

--------------------------------------------------------------------------
set {
	reference rhf
	basis cc-pvtz
}

set_num_threads( 4 )
memory 2 gb

molecule MOL {
0 1

H	 3.302522	 1.330564	 -0.054671
O	 2.385650	 1.213544	 0.143691
C	 2.076458	 -0.067370	 -0.038225
C	 0.626018	 -0.337582	 0.258241
O	 2.876914	 -0.862714	 -0.391128
C	 -0.267326	 0.883135	 0.076490
H	 0.325620	 -1.161483	 -0.378003
H	 0.574537	 -0.713685	 1.275261
C	 -1.726822	 0.642622	 0.463839
H	 -0.210803	 1.217591	 -0.953497
H	 0.129920	 1.693110	 0.675679
C	 -2.480891	 -0.340606	 -0.429852
H	 -2.243098	 1.597649	 0.438609
H	 -1.776542	 0.301208	 1.495542
C	 -3.955933	 -0.460128	 -0.060472
H	 -2.393755	 -0.020485	 -1.464726
H	 -2.024244	 -1.323637	 -0.374360
H	 -4.467673	 -1.160944	 -0.709827
H	 -4.458917	 0.497287	 -0.144505
H	 -4.076458	 -0.806900	 0.960497

	symmetry c1
}
set optking {
	frozen_dihedral = ("
		5 3 4 7
	")
}

ee,wfn = optimize('scf', return_wfn=True)
oeprop( wfn, 'DIPOLE', 'QUADRUPOLE', 'MULLIKEN_CHARGES')
f=open( 'psi4out.xyz', 'w' )
f.write( "20  " )
f.write( str(ee) + "\n" )
f.write( MOL.save_string_xyz() )
f.close()
--------------------------------------------------------------------------

    Molecular point group: c1
  Charge       = 0
  Multiplicity = 1
  Basis Set: CC-PVTZ
  Basis Set:
  @DF-RHF Final Energy:  -384.09151990223893
    Total Energy =                       -384.0915199022387014
    Molecular point group: c1
  Basis Set: CC-PVTZ
  Basis Set:
  Basis Set: CC-PVTZ
  Basis Set:
  @DF-RHF Final Energy:  -384.09124824759402
    Total Energy =                       -384.0912482475932848
  Basis Set: CC-PVTZ
  Basis Set:
  Basis Set: CC-PVTZ
  Basis Set:
  @DF-RHF Final Energy:  -384.09151193839023
    Total Energy =                       -384.0915119383903971
  Basis Set: CC-PVTZ
  Basis Set:
  Basis Set: CC-PVTZ
  Basis Set:
  @DF-RHF Final Energy:  -384.09258629789929
    Total Energy =                       -384.0925862978999135
  Basis Set: CC-PVTZ
  Basis Set:
  Basis Set: CC-PVTZ
  Basis Set:
  @DF-RHF Final Energy:  -384.09260979040755
    Total Energy =                       -384.0926097904073231
  Basis Set: CC-PVTZ
  Basis Set:
  Basis Set: CC-PVTZ
  Basis Set:
  @DF-RHF Final Energy:  -384.09262424918518
    Total Energy =                       -384.0926242491849507
  Basis Set: CC-PVTZ
  Basis Set:
  Basis Set: CC-PVTZ
  Basis Set:
  @DF-RHF Final Energy:  -384.09263333013132
    Total Energy =                       -384.0926333301314912
  Basis Set: CC-PVTZ
  Basis Set:
  Charge       = 0
  Multiplicity = 1
  Basis Set: CC-PVTZ
  Basis Set:

    Orbital Energies (a.u.)
    -----------------------

    Doubly Occupied:

       1A    -20.606013     2A    -20.537020     3A    -11.373490
       4A    -11.238520     5A    -11.226126     6A    -11.221087
       7A    -11.219443     8A    -11.211386     9A     -1.478376
      10A     -1.367549    11A     -1.099590    12A     -1.042737
      13A     -0.960900    14A     -0.863410    15A     -0.828810
      16A     -0.792184    17A     -0.703835    18A     -0.686157
      19A     -0.658665    20A     -0.637501    21A     -0.609195
      22A     -0.593301    23A     -0.579776    24A     -0.552979
      25A     -0.544164    26A     -0.520915    27A     -0.503637
      28A     -0.484115    29A     -0.477997    30A     -0.469094
      31A     -0.459576    32A     -0.436556

  @DF-RHF Final Energy:  -384.09263363205747

   => Energetics <=

    Nuclear Repulsion Energy =            376.9880252850480815
    One-Electron Energy =               -1270.1931098985887729
    Two-Electron Energy =                 509.1124509814835619
    DFT Exchange-Correlation Energy =       0.0000000000000000
    Empirical Dispersion Energy =           0.0000000000000000
    PCM Polarization Energy =               0.0000000000000000
    EFP Energy =                            0.0000000000000000
    Total Energy =                       -384.0926336320571863
    Molecular point group: c1
  Basis Set: CC-PVTZ
  Basis Set:

  -Total Gradient:
     Atom            X                  Y                   Z
    ------   -----------------  -----------------  -----------------
       1       -0.000056907138    -0.000052652795     0.000007896139
       2       -0.000002092668     0.000095952652     0.000014138428
       3       -0.000290935072     0.000310275670    -0.001641693965
       4        0.000381662844    -0.000785542122     0.001335354188
       5        0.000190724960    -0.000185616506     0.001019535121
       6       -0.000020610550     0.000039627456     0.000024370580
       7       -0.000210191527     0.000625490111    -0.000735946724
       8        0.000002688120    -0.000007907442    -0.000005676357
       9        0.000013018303    -0.000022541676     0.000018538746
      10        0.000003312456    -0.000004335682    -0.000000758306
      11       -0.000024204037    -0.000019074917    -0.000012985124
      12       -0.000010528202     0.000017005977    -0.000018067190
      13        0.000024594577    -0.000020152674    -0.000008507836
      14       -0.000001427676     0.000010962148     0.000002062413
      15       -0.000001886453    -0.000009482671     0.000000780080
      16       -0.000000646527    -0.000003368848    -0.000004972017
      17       -0.000004483757     0.000012584252     0.000003787407
      18        0.000004000739     0.000003783159     0.000007811090
      19        0.000005414538    -0.000008259379    -0.000003842695
      20       -0.000001502931     0.000003253285    -0.000001823979

  **** Optimization is complete! (in 8 steps) ****
    Final optimized geometry and variables:
    Molecular point group: c1

    Geometry (in Angstrom), charge = 0, multiplicity = 1:

    H            3.471337305537     0.988525926336    -0.095243090494
    O            2.545827951026     0.994414942187     0.098084967237
    C            2.087179719821    -0.244375594118    -0.039640177940
    C            0.622973458521    -0.396239700766     0.288615245389
    O            2.792372706988    -1.140627660238    -0.355259229537
    C           -0.241457394067     0.847214730196     0.085599798411
    H            0.273725552458    -1.228810497418    -0.303416334041
    H            0.584246872621    -0.711261552515     1.327965379556
    C           -1.709680219270     0.637546066419     0.460060523863
    H           -0.175255392418     1.168129700778    -0.949840515763
    H            0.160125290923     1.656541671940     0.680915279476
    C           -2.480102078435    -0.325629100165    -0.441608528983
    H           -2.204025674637     1.604125855170     0.433884214210
    H           -1.773136657996     0.295158865971     1.490595408212
    C           -3.957939028345    -0.418440794315    -0.075485205238
    H           -2.384817806769    -0.000540500333    -1.474256616001
    H           -2.042943013943    -1.317306869030    -0.392023911064
    H           -4.480979305702    -1.107355343718    -0.728401714613
    H           -4.443044659328     0.548403794032    -0.157168697817
    H           -4.087166573961    -0.766692222743     0.943891823156

  Mulliken Charges: (a.u.)
   Center  Symbol    Alpha    Beta     Spin     Total
       1     H     0.38226  0.38226  0.00000  0.23549
       2     O     4.15501  4.15501  0.00000 -0.31002
       3     C     2.81134  2.81134  0.00000  0.37731
       4     C     3.09783  3.09783  0.00000 -0.19566
       5     O     4.19541  4.19541  0.00000 -0.39082
       6     C     3.10238  3.10238  0.00000 -0.20477
       7     H     0.43408  0.43408  0.00000  0.13184
       8     H     0.44088  0.44088  0.00000  0.11824
       9     C     3.09958  3.09958  0.00000 -0.19917
      10     H     0.44788  0.44788  0.00000  0.10424
      11     H     0.43684  0.43684  0.00000  0.12632
      12     C     3.08676  3.08676  0.00000 -0.17352
      13     H     0.44578  0.44578  0.00000  0.10844
      14     H     0.45337  0.45337  0.00000  0.09327
      15     C     3.14970  3.14970  0.00000 -0.29941
      16     H     0.45295  0.45295  0.00000  0.09411
      17     H     0.45217  0.45217  0.00000  0.09566
      18     H     0.44719  0.44719  0.00000  0.10562
      19     H     0.45402  0.45402  0.00000  0.09196
      20     H     0.45457  0.45457  0.00000  0.09086

   Total alpha = 32.00000, Total beta = 32.00000, Total charge =  0.00000

*** Psi4 exiting successfully. Buy a developer a beer!
