                              Psi4 1.0.54 Driver

  ==> Input File <==

--------------------------------------------------------------------------
set {
	reference rhf
	basis cc-pvtz
}

set_num_threads( 4 )
memory 2 gb

molecule MOL {
0 1

O	 1.847685	 1.294399	 -0.000190
C	 1.704209	 0.119472	 -0.000093
C	 0.380337	 -0.600947	 -0.000234
O	 2.715427	 -0.733672	 0.000025
C	 -0.824290	 0.329213	 -0.000115
H	 0.371455	 -1.255476	 -0.865660
H	 0.371410	 -1.255787	 0.864952
C	 -2.110049	 -0.386018	 -0.404203
H	 -0.636255	 1.157441	 -0.673876
H	 -0.939425	 0.764571	 0.986038
C	 -3.329748	 0.530920	 -0.409438
H	 -1.987040	 -0.822459	 -1.392959
H	 -2.291090	 -1.217393	 0.273497
C	 -4.614733	 -0.183742	 -0.813768
H	 -3.150411	 1.361147	 -1.086726
H	 -3.454531	 0.966128	 0.578076
H	 -4.533519	 -0.600818	 -1.812109
H	 -5.459802	 0.494897	 -0.807326
H	 -4.840263	 -0.998712	 -0.133918
C	 4.020999	 -0.192556	 0.000019
H	 4.182809	 0.412891	 -0.879449
H	 4.692590	 -1.035653	 0.000152
H	 4.182726	 0.413087	 0.879368

	symmetry c1
}
set optking {
	frozen_dihedral = ("
		9 5 3 6
	")
}

ee,wfn = optimize('scf', return_wfn=True)
oeprop( wfn, 'DIPOLE', 'QUADRUPOLE', 'MULLIKEN_CHARGES')
f=open( 'psi4out.xyz', 'w' )
f.write( "23  " )
f.write( str(ee) + "\n" )
f.write( MOL.save_string_xyz() )
f.close()
--------------------------------------------------------------------------

    Molecular point group: c1
  Charge       = 0
  Multiplicity = 1
  Basis Set: CC-PVTZ
  Basis Set:
  @DF-RHF Final Energy:  -423.13020226910157
    Total Energy =                       -423.1302022691010052
    Molecular point group: c1
  Basis Set: CC-PVTZ
  Basis Set:
  Basis Set: CC-PVTZ
  Basis Set:
  @DF-RHF Final Energy:  -423.13029955463202
    Total Energy =                       -423.1302995546318471
  Basis Set: CC-PVTZ
  Basis Set:
  Basis Set: CC-PVTZ
  Basis Set:
  @DF-RHF Final Energy:  -423.13029913078680
    Total Energy =                       -423.1302991307870798
  Basis Set: CC-PVTZ
  Basis Set:
  Basis Set: CC-PVTZ
  Basis Set:
  @DF-RHF Final Energy:  -423.13029960865487
    Total Energy =                       -423.1302996086551502
  Basis Set: CC-PVTZ
  Basis Set:
  Basis Set: CC-PVTZ
  Basis Set:
  @DF-RHF Final Energy:  -423.13032841169621
    Total Energy =                       -423.1303284116966097
  Basis Set: CC-PVTZ
  Basis Set:
  Charge       = 0
  Multiplicity = 1
  Basis Set: CC-PVTZ
  Basis Set:

    Orbital Energies (a.u.)
    -----------------------

    Doubly Occupied:

       1A    -20.596405     2A    -20.534355     3A    -11.364935
       4A    -11.278554     5A    -11.233648     6A    -11.216879
       7A    -11.215952     8A    -11.214516     9A    -11.207772
      10A     -1.472389    11A     -1.365967    12A     -1.094192
      13A     -1.044717    14A     -0.988107    15A     -0.932787
      16A     -0.844324    17A     -0.795861    18A     -0.769470
      19A     -0.700387    20A     -0.686245    21A     -0.675620
      22A     -0.651649    23A     -0.609405    24A     -0.601400
      25A     -0.573686    26A     -0.559568    27A     -0.557886
      28A     -0.525623    29A     -0.522737    30A     -0.507624
      31A     -0.483766    32A     -0.470383    33A     -0.466630
      34A     -0.463209    35A     -0.459152    36A     -0.439190

  @DF-RHF Final Energy:  -423.13032853197012

   => Energetics <=

    Nuclear Repulsion Energy =            452.8576874293967194
    One-Electron Energy =               -1473.7260546203340255
    Two-Electron Energy =                 597.7380386589671843
    DFT Exchange-Correlation Energy =       0.0000000000000000
    Empirical Dispersion Energy =           0.0000000000000000
    PCM Polarization Energy =               0.0000000000000000
    EFP Energy =                            0.0000000000000000
    Total Energy =                       -423.1303285319701217
    Molecular point group: c1
  Basis Set: CC-PVTZ
  Basis Set:

  -Total Gradient:
     Atom            X                  Y                   Z
    ------   -----------------  -----------------  -----------------
       1        0.000011550811    -0.000021106505    -0.000023539599
       2       -0.000019915175     0.000018169143     0.000028271173
       3        0.001971073876     0.002571524732    -0.001246083305
       4        0.000026412155    -0.000000850504    -0.000000603238
       5       -0.001633350212    -0.002163944144    -0.002104099461
       6       -0.001377274926    -0.001771151569     0.001361053672
       7        0.000001017418     0.000001268342    -0.000009467435
       8       -0.000005494441     0.000007658203     0.000046625541
       9        0.001053574477     0.001391412457     0.001954667143
      10       -0.000014668221    -0.000022137315    -0.000005843961
      11       -0.000019762056    -0.000016555792     0.000009252757
      12        0.000008486218     0.000005192339     0.000007383427
      13       -0.000012450818    -0.000013196125     0.000005315816
      14       -0.000001314823     0.000015429394    -0.000018193738
      15       -0.000001117846     0.000005153833    -0.000001258048
      16        0.000001879035    -0.000005076523     0.000006688936
      17       -0.000001725139    -0.000008070667    -0.000009328854
      18       -0.000011889232     0.000004906448    -0.000007211710
      19        0.000003825745     0.000002218808     0.000008521696
      20        0.000010975009    -0.000003340115     0.000003348106
      21        0.000002918630     0.000003687683    -0.000006229293
      22        0.000005577380    -0.000000091753     0.000000121148
      23        0.000001672133    -0.000001100368     0.000000609228

  **** Optimization is complete! (in 6 steps) ****
    Final optimized geometry and variables:
    Molecular point group: c1

    Geometry (in Angstrom), charge = 0, multiplicity = 1:

    O            1.846122038767     1.276431510377     0.179935374209
    C            1.695213580627     0.102483628823     0.170006180302
    C            0.368313534239    -0.610240681462     0.138927247747
    O            2.700907425599    -0.756923610139     0.188070244975
    C           -0.839991174803     0.318127544638     0.128074069311
    H            0.366008716125    -1.273362335793    -0.719983416409
    H            0.343057894944    -1.269429159653     1.000800161744
    C           -2.132046963373    -0.404326562687    -0.238115457005
    H           -0.655266306534     1.141633469902    -0.550816625861
    H           -0.942825630595     0.772224463729     1.108528525900
    C           -3.357292944334     0.504475832916    -0.206165569895
    H           -2.033714024327    -0.837083970417    -1.231069308131
    H           -2.288221253138    -1.238874307236     0.442173573998
    C           -4.647081236494    -0.215399756690    -0.585166556472
    H           -3.199324238787     1.341111088332    -0.880843050635
    H           -3.461115122390     0.930916100973     0.787597379309
    H           -4.587432055841    -0.623725363539    -1.588627971153
    H           -5.496122719846     0.457540794767    -0.552637724793
    H           -4.850754734966    -1.037399173783     0.093171976727
    C            4.009429379510    -0.224059280111     0.220106736623
    H            4.194667991481     0.385135115744    -0.652146677360
    H            4.675647087031    -1.071367355660     0.230410682430
    H            4.155345561290     0.375702584689     1.106235647095

  Mulliken Charges: (a.u.)
   Center  Symbol    Alpha    Beta     Spin     Total
       1     O     4.19666  4.19666  0.00000 -0.39332
       2     C     2.80527  2.80527  0.00000  0.38946
       3     C     3.10256  3.10256  0.00000 -0.20512
       4     O     4.14662  4.14662  0.00000 -0.29323
       5     C     3.08577  3.08577  0.00000 -0.17154
       6     H     0.44058  0.44058  0.00000  0.11885
       7     H     0.43929  0.43929  0.00000  0.12143
       8     C     3.08918  3.08918  0.00000 -0.17837
       9     H     0.44177  0.44177  0.00000  0.11646
      10     H     0.45037  0.45037  0.00000  0.09925
      11     C     3.08422  3.08422  0.00000 -0.16845
      12     H     0.45527  0.45527  0.00000  0.08946
      13     H     0.45579  0.45579  0.00000  0.08842
      14     C     3.15025  3.15025  0.00000 -0.30050
      15     H     0.45281  0.45281  0.00000  0.09439
      16     H     0.45350  0.45350  0.00000  0.09299
      17     H     0.45521  0.45521  0.00000  0.08958
      18     H     0.44776  0.44776  0.00000  0.10449
      19     H     0.45546  0.45546  0.00000  0.08909
      20     C     3.03755  3.03755  0.00000 -0.07511
      21     H     0.45433  0.45433  0.00000  0.09133
      22     H     0.44537  0.44537  0.00000  0.10926
      23     H     0.45442  0.45442  0.00000  0.09117

   Total alpha = 36.00000, Total beta = 36.00000, Total charge =  0.00000

*** Psi4 exiting successfully. Buy a developer a beer!
