  ==> Input File <==

--------------------------------------------------------------------------
set {
	reference rhf
	basis cc-pvtz
}

set_num_threads( 4 )
memory 2 gb

molecule MOL {
0 1

H	 -3.144994	 -1.202467	 -0.018751
O	 -2.321472	 -0.864941	 -0.318626
C	 -2.021813	 0.336996	 0.342658
C	 -0.669613	 0.837286	 -0.127252
H	 -2.780861	 1.084746	 0.127159
H	 -2.006390	 0.184138	 1.420053
C	 0.490865	 -0.082543	 0.241244
H	 -0.708709	 0.967192	 -1.204587
H	 -0.507562	 1.822272	 0.303070
C	 1.839800	 0.429565	 -0.255472
H	 0.305636	 -1.070211	 -0.165276
H	 0.527397	 -0.195943	 1.322876
C	 2.126994	 0.049027	 -1.704090
H	 1.870788	 1.511097	 -0.155310
H	 2.630995	 0.042487	 0.381608
H	 1.371650	 0.451890	 -2.370479
H	 3.089783	 0.428363	 -2.027271
H	 2.136751	 -1.028556	 -1.831223

	symmetry c1
}
set optking {
	frozen_dihedral = ("
		14 10 7 11
	")
}

ee = optimize('scf')
oeprop('DIPOLE', 'QUADRUPOLE', 'MULLIKEN_CHARGES')
f=open( 'psi4out.xyz', 'w' )
f.write( "18  " )
f.write( str(ee) + "\n" )
f.write( MOL.save_string_xyz() )
f.close()
--------------------------------------------------------------------------

    Molecular point group: c1
  Charge       = 0
  Multiplicity = 1
  Basis Set: CC-PVTZ
  Basis Set:
  @DF-RHF Final Energy:  -271.28410106131821
    Total Energy =                       -271.2841010613182107
    Molecular point group: c1
  Basis Set: CC-PVTZ
  Basis Set:
  Basis Set: CC-PVTZ
  Basis Set:
  @DF-RHF Final Energy:  -271.28425954203840
    Total Energy =                       -271.2842595420382850
  Basis Set: CC-PVTZ
  Basis Set:
  Basis Set: CC-PVTZ
  Basis Set:
  @DF-RHF Final Energy:  -271.28428976732687
    Total Energy =                       -271.2842897673272091
  Basis Set: CC-PVTZ
  Basis Set:
  Charge       = 0
  Multiplicity = 1
  Basis Set: CC-PVTZ
  Basis Set:

    Orbital Energies (a.u.)
    -----------------------

    Doubly Occupied:

       1A    -20.546351     2A    -11.265887     3A    -11.210268
       4A    -11.209162     5A    -11.205066     6A    -11.201401
       7A     -1.364204     8A     -1.075795     9A     -1.007573
      10A     -0.914238    11A     -0.826090    12A     -0.777174
      13A     -0.707696    14A     -0.642098    15A     -0.616099
      16A     -0.602331    17A     -0.567869    18A     -0.558135
      19A     -0.518050    20A     -0.500883    21A     -0.498213
      22A     -0.464873    23A     -0.455366    24A     -0.449741
      25A     -0.430371

  @DF-RHF Final Energy:  -271.28429027182597

   => Energetics <=

    Nuclear Repulsion Energy =            252.0749935797728369
    One-Electron Energy =                -867.4886989214056712
    Two-Electron Energy =                 344.1294150698067824
    DFT Exchange-Correlation Energy =       0.0000000000000000
    Empirical Dispersion Energy =           0.0000000000000000
    PCM Polarization Energy =               0.0000000000000000
    EFP Energy =                            0.0000000000000000
    Total Energy =                       -271.2842902718260802
    Molecular point group: c1
  Basis Set: CC-PVTZ
  Basis Set:

  -Total Gradient:
     Atom            X                  Y                   Z
    ------   -----------------  -----------------  -----------------
       1        0.000000939961    -0.000000446105     0.000001569409
       2        0.000031825142    -0.000016629763     0.000040408019
       3       -0.000033752940     0.000021129765    -0.000088079371
       4        0.000025786219    -0.000017569751     0.000044555028
       5       -0.000005518509     0.000016200201     0.000012123119
       6        0.000007523726    -0.000017058219    -0.000010784113
       7        0.001149395411    -0.001149707898     0.001941089604
       8       -0.000011418819    -0.000000134631     0.000005247212
       9        0.000005121517     0.000016935402     0.000006135783
      10        0.000978187822    -0.000093330279     0.002344792065
      11       -0.001113757206     0.001000384308    -0.002012972515
      12        0.000008146890     0.000014650339    -0.000012584951
      13       -0.000030820951     0.000010004911     0.000025427262
      14       -0.001002137039     0.000213381186    -0.002290812330
      15       -0.000005465366    -0.000006291332    -0.000002085566
      16       -0.000005959484     0.000000541128    -0.000012054562
      17        0.000007530356     0.000008355589     0.000004256835
      18       -0.000005626733    -0.000000414850     0.000003769074

  **** Optimization is complete! (in 4 steps) ****
    Final optimized geometry and variables:
    Molecular point group: c1

    Geometry (in Angstrom), charge = 0, multiplicity = 1:

    H           -2.987712335641    -1.301522225687     0.255202519144
    O           -2.164705236130    -0.953472577821    -0.033607884575
    C           -1.876098523855     0.237809827338     0.651515113149
    C           -0.524067994048     0.754700222537     0.198963488396
    H           -2.638483898939     0.984902020686     0.445648197933
    H           -1.865872121012     0.064790867181     1.725950559268
    C            0.640714086120    -0.160511721385     0.576115105822
    H           -0.559405437158     0.896917733875    -0.876068324839
    H           -0.373487054729     1.735597971990     0.642274104744
    C            1.995308445245     0.333105742732     0.054954432646
    H            0.439523208412    -1.150114435969     0.182712354277
    H            0.676293780392    -0.247838383979     1.658232339478
    C            2.267934024424    -0.051732870140    -1.398111765607
    H            2.043091535710     1.415379762597     0.141515457990
    H            2.789790438443    -0.065749666901     0.676670105277
    H            1.506515615809     0.335901672484    -2.065389968491
    H            3.223845551468     0.337094161098    -1.730998509312
    H            2.289144661458    -1.129777902010    -1.515829934677

  Mulliken Charges: (a.u.)
   Center  Symbol    Alpha    Beta     Spin     Total
       1     H     0.39570  0.39570  0.00000  0.20859
       2     O     4.19852  4.19852  0.00000 -0.39704
       3     C     2.97364  2.97364  0.00000  0.05271
       4     C     3.09192  3.09192  0.00000 -0.18383
       5     H     0.46504  0.46504  0.00000  0.06993
       6     H     0.47315  0.47315  0.00000  0.05370
       7     C     3.09335  3.09335  0.00000 -0.18670
       8     H     0.45186  0.45186  0.00000  0.09628
       9     H     0.45406  0.45406  0.00000  0.09188
      10     C     3.08988  3.08988  0.00000 -0.17976
      11     H     0.44675  0.44675  0.00000  0.10651
      12     H     0.45321  0.45321  0.00000  0.09357
      13     C     3.14754  3.14754  0.00000 -0.29509
      14     H     0.45795  0.45795  0.00000  0.08409
      15     H     0.44877  0.44877  0.00000  0.10246
      16     H     0.45460  0.45460  0.00000  0.09080
      17     H     0.44955  0.44955  0.00000  0.10089
      18     H     0.45451  0.45451  0.00000  0.09099

   Total alpha = 25.00000, Total beta = 25.00000, Total charge = -0.00000
