                              Psi4 1.0.54 Driver

  ==> Input File <==

--------------------------------------------------------------------------
set {
	reference rhf
	basis cc-pvtz
}

set_num_threads( 4 )
memory 2 gb

molecule MOL {
0 1

H	 2.366931	 -1.864337	 -0.668574
N	 1.386548	 -1.686451	 -0.679296
C	 1.107733	 -0.390071	 -1.263680
C	 0.830879	 -1.800297	 0.654163
H	 1.515745	 -0.358513	 -2.266617
H	 1.555086	 0.426231	 -0.693465
C	 -0.393889	 -0.175750	 -1.320894
H	 1.038275	 -2.790622	 1.040939
H	 1.260740	 -1.073094	 1.345548
C	 -0.670381	 -1.584128	 0.594436
H	 -0.829712	 -0.897662	 -2.017666
H	 -0.603164	 0.816453	 -1.702806
N	 -0.976577	 -0.298712	 -0.000000
H	 -1.079577	 -1.610272	 1.597429
H	 -1.125252	 -2.403066	 0.029614
C	 -2.391156	 -0.021003	 -0.000000
H	 -2.853954	 -0.458728	 -0.875714
H	 -2.853954	 -0.458728	 0.875714
H	 -2.614037	 1.049773	 -0.000000

	symmetry c1
}
set optking {
	frozen_dihedral = ("
		7 13 16 19
	")
}

ee,wfn = optimize('scf', return_wfn=True)
oeprop( wfn, 'DIPOLE', 'QUADRUPOLE', 'MULLIKEN_CHARGES')
f=open( 'psi4out.xyz', 'w' )
f.write( "19  " )
f.write( str(ee) + "\n" )
f.write( MOL.save_string_xyz() )
f.close()
--------------------------------------------------------------------------

    Molecular point group: c1
  Charge       = 0
  Multiplicity = 1
  Basis Set: CC-PVTZ
  Basis Set:
  @DF-RHF Final Energy:  -305.30643882631728
    Total Energy =                       -305.3064388263170486
    Molecular point group: c1
  Basis Set: CC-PVTZ
  Basis Set:
  Basis Set: CC-PVTZ
  Basis Set:
  @DF-RHF Final Energy:  -305.30719705215330
    Total Energy =                       -305.3071970521531284
  Basis Set: CC-PVTZ
  Basis Set:
  Basis Set: CC-PVTZ
  Basis Set:
  @DF-RHF Final Energy:  -305.30727652581743
    Total Energy =                       -305.3072765258172581
  Basis Set: CC-PVTZ
  Basis Set:
  Charge       = 0
  Multiplicity = 1
  Basis Set: CC-PVTZ
  Basis Set:

    Orbital Energies (a.u.)
    -----------------------

    Doubly Occupied:

       1A    -15.536817     2A    -15.531031     3A    -11.237087
       4A    -11.237059     5A    -11.235824     6A    -11.235667
       7A    -11.232968     8A     -1.248690     9A     -1.187321
      10A     -1.023519    11A     -0.965540    12A     -0.861207
      13A     -0.858541    14A     -0.758109    15A     -0.692618
      16A     -0.634206    17A     -0.626059    18A     -0.610169
      19A     -0.604431    20A     -0.581285    21A     -0.542847
      22A     -0.532795    23A     -0.510943    24A     -0.489903
      25A     -0.466384    26A     -0.457778    27A     -0.365858
      28A     -0.349273

  @DF-RHF Final Energy:  -305.30727836896847

   => Energetics <=

    Nuclear Repulsion Energy =            340.2198954808856115
    One-Electron Energy =               -1087.8264857472818221
    Two-Electron Energy =                 442.2993118974271738
    DFT Exchange-Correlation Energy =       0.0000000000000000
    Empirical Dispersion Energy =           0.0000000000000000
    PCM Polarization Energy =               0.0000000000000000
    EFP Energy =                            0.0000000000000000
    Total Energy =                       -305.3072783689690368
    Molecular point group: c1
  Basis Set: CC-PVTZ
  Basis Set:

  -Total Gradient:
     Atom            X                  Y                   Z
    ------   -----------------  -----------------  -----------------
       1       -0.000018452258     0.000004806538    -0.000002654859
       2       -0.000001963552    -0.000002495334    -0.000023647291
       3        0.000055600780     0.000004680409    -0.000008140753
       4        0.000029830953    -0.000060363150    -0.000001607898
       5        0.000010711208    -0.000012743882     0.000008371840
       6        0.000005532902     0.000009943286    -0.000003115383
       7       -0.000648025512    -0.003175460933    -0.000445833442
       8        0.000029547239    -0.000008996361    -0.000004099289
       9       -0.000024019606    -0.000005004748    -0.000004185041
      10        0.000017611163     0.000135802719     0.000070290354
      11       -0.000019348515    -0.000007131574     0.000011815810
      12        0.000005754405     0.000007554157    -0.000048452653
      13        0.000741541618     0.004283133768     0.001823765769
      14       -0.000004299776    -0.000035781543     0.000009873154
      15        0.000022673129     0.000009638579    -0.000002449788
      16       -0.000160362102    -0.001106735968    -0.005783869546
      17       -0.000042746080    -0.000031865166    -0.000040339184
      18       -0.000003361403     0.000004791546    -0.000004621293
      19        0.000003775405    -0.000013772344     0.004448899494

  **** Optimization is complete! (in 4 steps) ****
    Final optimized geometry and variables:
    Molecular point group: c1

    Geometry (in Angstrom), charge = 0, multiplicity = 1:

    H            2.539292660135    -0.993431458469    -0.415968020555
    N            1.557329141035    -0.823788698979    -0.417268365982
    C            1.261802553166     0.476165779202    -0.984543525749
    C            1.012263043071    -0.958370679420     0.918384382946
    H            1.654464794361     0.520378624832    -1.993250187757
    H            1.711480925589     1.290603354546    -0.413433926676
    C           -0.242078025102     0.678160021511    -1.017319791944
    H            1.228113603647    -1.952557308393     1.290749823361
    H            1.443182212208    -0.237881255181     1.616273224820
    C           -0.491021880441    -0.749226697425     0.876557029737
    H           -0.683949272170    -0.047739211220    -1.705328341869
    H           -0.466142071334     1.668356440967    -1.398016468532
    N           -0.807947316631     0.549510004294     0.311557368485
    H           -0.886890351661    -0.797697669692     1.883574703650
    H           -0.945964986100    -1.560419434796     0.300822694811
    C           -2.227635558944     0.823639624899     0.315288453262
    H           -2.753281693198     0.371897648797    -0.527532439150
    H           -2.670785729673     0.437351742606     1.224682418640
    H           -2.405633161294     1.892836742878     0.315910220609

  Mulliken Charges: (a.u.)
   Center  Symbol    Alpha    Beta     Spin     Total
       1     H     0.44000  0.44000  0.00000  0.12000
       2     N     3.64289  3.64289  0.00000 -0.28578
       3     C     3.04073  3.04073  0.00000 -0.08147
       4     C     3.04164  3.04164  0.00000 -0.08328
       5     H     0.45250  0.45250  0.00000  0.09501
       6     H     0.46528  0.46528  0.00000  0.06943
       7     C     3.03585  3.03585  0.00000 -0.07170
       8     H     0.45252  0.45252  0.00000  0.09497
       9     H     0.46547  0.46547  0.00000  0.06906
      10     C     3.03293  3.03293  0.00000 -0.06586
      11     H     0.46725  0.46725  0.00000  0.06549
      12     H     0.45399  0.45399  0.00000  0.09201
      13     N     3.61620  3.61620  0.00000 -0.23239
      14     H     0.45397  0.45397  0.00000  0.09206
      15     H     0.46927  0.46927  0.00000  0.06146
      16     C     3.09643  3.09643  0.00000 -0.19286
      17     H     0.46772  0.46772  0.00000  0.06455
      18     H     0.45510  0.45510  0.00000  0.08980
      19     H     0.45025  0.45025  0.00000  0.09949

   Total alpha = 28.00000, Total beta = 28.00000, Total charge =  0.00000

*** Psi4 exiting successfully. Buy a developer a beer!
