  ==> Input File <==

--------------------------------------------------------------------------
set {
	reference rhf
	basis 6-31G*
}

set_num_threads( 4 )
memory 2 gb

molecule MOL {
0 1

H	 -2.176942	 -1.056314	 1.726249
C	 -1.515654	 -0.638808	 0.992905
C	 -1.957616	 0.358577	 0.061554
C	 -0.239014	 -1.036153	 0.917236
H	 -2.977529	 0.698537	 0.096900
C	 -1.112039	 0.866024	 -0.846719
H	 0.169696	 -1.777680	 1.577160
N	 0.640212	 -0.532897	 -0.000111
H	 -1.406796	 1.612437	 -1.558295
C	 0.277124	 0.433509	 -0.928821
C	 2.010177	 -1.032049	 0.000042
O	 1.068347	 0.864870	 -1.730132
H	 2.187698	 -1.635381	 -0.882279
H	 2.677579	 -0.189247	 -0.001871
H	 2.188882	 -1.632203	 0.884288

	symmetry c1
}
set optking {
	frozen_dihedral = ("
		10 8 11 13
	")
}

ee = optimize('scf')
oeprop('DIPOLE', 'QUADRUPOLE', 'MULLIKEN_CHARGES')
f=open( 'psi4out.xyz', 'w' )
f.write( "15  " )
f.write( str(ee) + "\n" )
f.write( MOL.save_string_xyz() )
f.close()
--------------------------------------------------------------------------

    Molecular point group: c1
  Charge       = 0
  Multiplicity = 1
  Basis Set: 6-31G*
  Basis Set:
  @DF-RHF Final Energy:  -360.59591976118674
    Total Energy =                       -360.5959197611867921
    Molecular point group: c1
  Basis Set: 6-31G*
  Basis Set:
  Basis Set: 6-31G*
  Basis Set:
  @DF-RHF Final Energy:  -360.59661567622169
    Total Energy =                       -360.5966156762215746
  Basis Set: 6-31G*
  Basis Set:
  Basis Set: 6-31G*
  Basis Set:
  @DF-RHF Final Energy:  -360.59670116855847
    Total Energy =                       -360.5967011685580701
  Basis Set: 6-31G*
  Basis Set:
  Basis Set: 6-31G*
  Basis Set:
  @DF-RHF Final Energy:  -360.59669491166648
    Total Energy =                       -360.5966949116663045
  Basis Set: 6-31G*
  Basis Set:
  Charge       = 0
  Multiplicity = 1
  Basis Set: 6-31G*
  Basis Set:

    Orbital Energies (a.u.)
    -----------------------

    Doubly Occupied:

       1A    -20.508869     2A    -15.622493     3A    -11.341500
       4A    -11.298135     5A    -11.266855     6A    -11.260418
       7A    -11.232756     8A    -11.228778     9A     -1.385220
      10A     -1.281090    11A     -1.114903    12A     -1.026337
      13A     -0.970331    14A     -0.872975    15A     -0.835784
      16A     -0.716082    17A     -0.697415    18A     -0.661408
      19A     -0.648788    20A     -0.622919    21A     -0.606497
      22A     -0.573278    23A     -0.548388    24A     -0.547393
      25A     -0.527999    26A     -0.477990    27A     -0.413904
      28A     -0.405895    29A     -0.304396

  @DF-RHF Final Energy:  -360.59670441221033

   => Energetics <=

    Nuclear Repulsion Energy =            358.0036467712473041
    One-Electron Energy =               -1199.2031111722740206
    Two-Electron Energy =                 480.6027599888163877
    DFT Exchange-Correlation Energy =       0.0000000000000000
    Empirical Dispersion Energy =           0.0000000000000000
    PCM Polarization Energy =               0.0000000000000000
    EFP Energy =                            0.0000000000000000
    Total Energy =                       -360.5967044122103289
    Molecular point group: c1
  Basis Set: 6-31G*
  Basis Set:

  -Total Gradient:
     Atom            X                  Y                   Z
    ------   -----------------  -----------------  -----------------
       1       -0.000034476511    -0.000000818531     0.000005039615
       2        0.000100522461    -0.000007448210    -0.000013692368
       3       -0.000023793605     0.000048109635    -0.000045241106
       4       -0.000155916770     0.000055043910     0.000025166392
       5       -0.000008948787    -0.000031751333     0.000034182609
       6       -0.000116434666     0.000027456217    -0.000009051119
       7        0.000046025325     0.000000294038    -0.000027422701
       8       -0.000114555992    -0.000459884289    -0.000545714565
       9        0.000020476715    -0.000005135280     0.000018651880
      10        0.000121401533     0.000200971449     0.000455479787
      11        0.000216572485     0.000727967232    -0.000209079759
      12        0.000052091047    -0.000011371183    -0.000000355396
      13       -0.000131573969    -0.000496470436     0.000294249110
      14       -0.000048526070    -0.000007979585     0.000003113327
      15        0.000077136798    -0.000038983636     0.000014674295

  **** Optimization is complete! (in 5 steps) ****
    Final optimized geometry and variables:
    Molecular point group: c1

    Geometry (in Angstrom), charge = 0, multiplicity = 1:

    H           -2.164512212416    -0.953012370113     1.928965405287
    C           -1.494981118195    -0.538945491968     1.201246887811
    C           -1.924728973417     0.460737719310     0.268304471104
    C           -0.218369617626    -0.943428027257     1.139353383622
    H           -2.943360260156     0.805003825493     0.298138781173
    C           -1.070968252356     0.966233404343    -0.634920601387
    H            0.178140485109    -1.685781472688     1.804364150594
    N            0.667210654296    -0.440638410885     0.230579489408
    H           -1.357034260241     1.714413358650    -1.348322374266
    C            0.312183724127     0.519357022385    -0.705232725949
    C            2.045795052482    -0.911588983083     0.191051785515
    O            1.123844844206     0.923654863089    -1.500561255169
    H            2.217060120250    -1.508930018124    -0.694591488937
    H            2.717948708358    -0.068156306212     0.171202291673
    H            2.238843663018    -1.510319958490     1.069860471114

  Mulliken Charges: (a.u.)
   Center  Symbol    Alpha    Beta     Spin     Total
       1     H     0.39309  0.39309  0.00000  0.21381
       2     C     3.16247  3.16247  0.00000 -0.32493
       3     C     3.05817  3.05817  0.00000 -0.11635
       4     C     2.92160  2.92160  0.00000  0.15680
       5     H     0.39091  0.39091  0.00000  0.21818
       6     C     3.16977  3.16977  0.00000 -0.33955
       7     H     0.38740  0.38740  0.00000  0.22519
       8     N     3.86309  3.86309  0.00000 -0.72618
       9     H     0.38648  0.38648  0.00000  0.22705
      10     C     2.59709  2.59709  0.00000  0.80583
      11     C     3.13954  3.13954  0.00000 -0.27908
      12     O     4.32159  4.32159  0.00000 -0.64317
      13     H     0.40076  0.40076  0.00000  0.19847
      14     H     0.39213  0.39213  0.00000  0.21574
      15     H     0.41591  0.41591  0.00000  0.16819

   Total alpha = 29.00000, Total beta = 29.00000, Total charge = -0.00000
