  ==> Input File <==

--------------------------------------------------------------------------
set {
	reference rhf
	basis 6-31G*
}

set_num_threads( 4 )
memory 2 gb

molecule MOL {
0 1

H	 -3.650283	 0.221984	 0.000000
C	 -2.577024	 0.154109	 0.000000
C	 -1.960329	 -1.089307	 0.000000
C	 -1.811733	 1.307557	 0.000000
H	 -2.554473	 -1.985285	 0.000000
C	 -0.581547	 -1.175855	 0.000000
H	 -2.287118	 2.271701	 0.000000
C	 -0.428719	 1.219221	 0.000000
H	 -0.090826	 -2.129898	 0.000000
C	 0.198341	 -0.021559	 0.000000
H	 0.149947	 2.124040	 0.000000
C	 1.691355	 -0.173192	 0.000000
C	 2.539865	 0.892542	 0.661652
O	 2.205719	 -1.121742	 -0.514837
H	 2.380659	 1.859486	 0.195334
H	 3.579211	 0.614312	 0.562470
H	 2.292065	 0.987175	 1.713992

	symmetry c1
}
set optking {
	frozen_dihedral = ("
		13 12 10 8
	")
}

ee = optimize('scf')
oeprop('DIPOLE', 'QUADRUPOLE', 'MULLIKEN_CHARGES')
f=open( 'psi4out.xyz', 'w' )
f.write( "17  " )
f.write( str(ee) + "\n" )
f.write( MOL.save_string_xyz() )
f.close()
--------------------------------------------------------------------------

    Molecular point group: c1
  Charge       = 0
  Multiplicity = 1
  Basis Set: 6-31G*
  Basis Set:
  @DF-RHF Final Energy:  -382.47342967281190
    Total Energy =                       -382.4734296728124718
    Molecular point group: c1
  Basis Set: 6-31G*
  Basis Set:
  Basis Set: 6-31G*
  Basis Set:
  @DF-RHF Final Energy:  -382.47189745306224
    Total Energy =                       -382.4718974530627520
  Basis Set: 6-31G*
  Basis Set:
  Basis Set: 6-31G*
  Basis Set:
  @DF-RHF Final Energy:  -382.47388136432716
    Total Energy =                       -382.4738813643275535
  Basis Set: 6-31G*
  Basis Set:
  Basis Set: 6-31G*
  Basis Set:
  @DF-RHF Final Energy:  -382.47395381562472
    Total Energy =                       -382.4739538156246681
  Basis Set: 6-31G*
  Basis Set:
  Basis Set: 6-31G*
  Basis Set:
  @DF-RHF Final Energy:  -382.47396521994108
    Total Energy =                       -382.4739652199411921
  Basis Set: 6-31G*
  Basis Set:
  Basis Set: 6-31G*
  Basis Set:
  @DF-RHF Final Energy:  -382.47397189539311
    Total Energy =                       -382.4739718953932197
  Basis Set: 6-31G*
  Basis Set:
  Charge       = 0
  Multiplicity = 1
  Basis Set: 6-31G*
  Basis Set:

    Orbital Energies (a.u.)
    -----------------------

    Doubly Occupied:

       1A    -20.551322     2A    -11.331887     3A    -11.248274
       4A    -11.244972     5A    -11.243609     6A    -11.240790
       7A    -11.240606     8A    -11.238269     9A    -11.229947
      10A     -1.397480    11A     -1.165609    12A     -1.049691
      13A     -1.026276    14A     -0.996589    15A     -0.860704
      16A     -0.835380    17A     -0.759993    18A     -0.707417
      19A     -0.656521    20A     -0.646264    21A     -0.624378
      22A     -0.611646    23A     -0.599054    24A     -0.592493
      25A     -0.555556    26A     -0.525943    27A     -0.515240
      28A     -0.500868    29A     -0.490861    30A     -0.410693
      31A     -0.344999    32A     -0.341396

  @DF-RHF Final Energy:  -382.47397213101931

   => Energetics <=

    Nuclear Repulsion Energy =            403.4104514169820277
    One-Electron Energy =               -1318.1993964690595931
    Two-Electron Energy =                 532.3149729210590522
    DFT Exchange-Correlation Energy =       0.0000000000000000
    Empirical Dispersion Energy =           0.0000000000000000
    PCM Polarization Energy =               0.0000000000000000
    EFP Energy =                            0.0000000000000000
    Total Energy =                       -382.4739721310185132
    Molecular point group: c1
  Basis Set: 6-31G*
  Basis Set:

  -Total Gradient:
     Atom            X                  Y                   Z
    ------   -----------------  -----------------  -----------------
       1       -0.000000595594    -0.000001439561    -0.000003295693
       2       -0.000000445860     0.000009563130     0.000031768527
       3        0.000009260469    -0.000010990413     0.000003632471
       4       -0.000004905339    -0.000005398868    -0.000036126835
       5       -0.000001421187    -0.000000263378    -0.000001004409
       6       -0.000016018660    -0.000003667219    -0.000031895320
       7        0.000002195915     0.000000987324     0.000004109047
       8       -0.000074196036    -0.000018820400    -0.003110689374
       9        0.000001297229    -0.000000411241     0.000014197955
      10        0.000070487888    -0.000615115216     0.005821319346
      11       -0.000003653848     0.000003123649     0.000006105603
      12        0.000102215337     0.001994381235    -0.005089159987
      13       -0.000071705707    -0.001371742558     0.002387800585
      14       -0.000012919615     0.000014670546    -0.000000460960
      15       -0.000000527432     0.000003093418     0.000000310868
      16        0.000003217379     0.000005486461     0.000005804573
      17       -0.000002284936    -0.000003456908    -0.000002416395

  **** Optimization is complete! (in 7 steps) ****
    Final optimized geometry and variables:
    Molecular point group: c1

    Geometry (in Angstrom), charge = 0, multiplicity = 1:

    H           -3.647945284374     0.226493343366    -0.029281660534
    C           -2.574733070264     0.158486679431    -0.022125203935
    C           -1.958220426580    -1.084468247829    -0.040949050573
    C           -1.808881618972     1.311667102934     0.000874185433
    H           -2.552398174730    -1.980161463172    -0.063161572262
    C           -0.578766183545    -1.171380354267    -0.041401274696
    H           -2.284056094513     2.276010814578     0.004168343052
    C           -0.426118136697     1.223144293802     0.019700037802
    H           -0.089868685630    -2.126287409655    -0.077318780842
    C            0.199041513314    -0.018004476288     0.006562329362
    H            0.155788955192     2.126379090934     0.040875259645
    C            1.692450428962    -0.162446821968    -0.032468025884
    C            2.542693545593     0.915439730819     0.607084386156
    O            2.195143165521    -1.135970039582    -0.509254778075
    H            2.488660042592     1.841411698164     0.042726685501
    H            3.569988847810     0.580508166408     0.628232413208
    H            2.200358137227     1.124297344137     1.615005581796

  Mulliken Charges: (a.u.)
   Center  Symbol    Alpha    Beta     Spin     Total
       1     H     0.39559  0.39559  0.00000  0.20882
       2     C     3.09334  3.09334  0.00000 -0.18669
       3     C     3.10350  3.10350  0.00000 -0.20700
       4     C     3.10357  3.10357  0.00000 -0.20715
       5     H     0.39530  0.39530  0.00000  0.20941
       6     C     3.09043  3.09043  0.00000 -0.18086
       7     H     0.39641  0.39641  0.00000  0.20719
       8     C     3.10311  3.10311  0.00000 -0.20621
       9     H     0.37940  0.37940  0.00000  0.24120
      10     C     3.04980  3.04980  0.00000 -0.09960
      11     H     0.39466  0.39466  0.00000  0.21068
      12     C     2.73334  2.73334  0.00000  0.53332
      13     C     3.29130  3.29130  0.00000 -0.58259
      14     O     4.26402  4.26402  0.00000 -0.52804
      15     H     0.40731  0.40731  0.00000  0.18538
      16     H     0.39433  0.39433  0.00000  0.21135
      17     H     0.40460  0.40460  0.00000  0.19081

   Total alpha = 32.00000, Total beta = 32.00000, Total charge =  0.00000
