  ==> Input File <==

--------------------------------------------------------------------------
set {
	reference rhf
	basis 6-31G*
}

set_num_threads( 4 )
memory 2 gb

molecule MOL {
0 1

H	 -3.261111	 -0.295142	 1.469456
C	 -3.306842	 -0.277400	 0.373456
C	 -2.660244	 0.921717	 -0.272021
O	 -3.838538	 -1.161155	 -0.216482
C	 -3.197054	 2.249056	 0.281389
H	 -1.586915	 0.841679	 -0.144480
H	 -2.874870	 0.865453	 -1.338523
C	 -2.828535	 2.492890	 1.747007
H	 -2.806912	 3.058680	 -0.328186
H	 -4.279405	 2.277485	 0.165349
C	 -3.360130	 3.824196	 2.281652
H	 -1.745795	 2.466073	 1.850932
H	 -3.209964	 1.681074	 2.363454
C	 -2.976105	 4.072181	 3.742808
H	 -2.984465	 4.630007	 1.656130
H	 -4.445082	 3.843178	 2.187294
C	 -3.556198	 5.355896	 4.347489
H	 -1.891020	 4.092272	 3.831584
H	 -3.313113	 3.227008	 4.339315
C	 -3.022025	 6.648275	 3.727782
H	 -3.335798	 5.363581	 5.412061
H	 -4.640808	 5.335714	 4.263028
H	 -1.937334	 6.688437	 3.783456
H	 -3.303649	 6.745605	 2.684619
H	 -3.411389	 7.516005	 4.251648

	symmetry c1
}
set optking {
	frozen_dihedral = ("
		6 3 2 4
	")
}

ee = optimize('scf')
oeprop('DIPOLE', 'QUADRUPOLE', 'MULLIKEN_CHARGES')
f=open( 'psi4out.xyz', 'w' )
f.write( "25  " )
f.write( str(ee) + "\n" )
f.write( MOL.save_string_xyz() )
f.close()
--------------------------------------------------------------------------

    Molecular point group: c1
  Charge       = 0
  Multiplicity = 1
  Basis Set: 6-31G*
  Basis Set:
  @DF-RHF Final Energy:  -387.11939711795378
    Total Energy =                       -387.1193971179537812
    Molecular point group: c1
  Basis Set: 6-31G*
  Basis Set:
  Basis Set: 6-31G*
  Basis Set:
  @DF-RHF Final Energy:  -387.11970978290447
    Total Energy =                       -387.1197097829043514
  Basis Set: 6-31G*
  Basis Set:
  Basis Set: 6-31G*
  Basis Set:
  @DF-RHF Final Energy:  -387.12014951240951
    Total Energy =                       -387.1201495124098528
  Basis Set: 6-31G*
  Basis Set:
  Basis Set: 6-31G*
  Basis Set:
  @DF-RHF Final Energy:  -387.12023032986889
    Total Energy =                       -387.1202303298688321
  Basis Set: 6-31G*
  Basis Set:
  Basis Set: 6-31G*
  Basis Set:
  @DF-RHF Final Energy:  -387.12023832346415
    Total Energy =                       -387.1202383234638091
  Basis Set: 6-31G*
  Basis Set:
  Basis Set: 6-31G*
  Basis Set:
  @DF-RHF Final Energy:  -387.12024559756298
    Total Energy =                       -387.1202455975636667
  Basis Set: 6-31G*
  Basis Set:
  Basis Set: 6-31G*
  Basis Set:
  @DF-RHF Final Energy:  -387.12024696756038
    Total Energy =                       -387.1202469675602060
  Basis Set: 6-31G*
  Basis Set:
  Charge       = 0
  Multiplicity = 1
  Basis Set: 6-31G*
  Basis Set:

    Orbital Energies (a.u.)
    -----------------------

    Doubly Occupied:

       1A    -20.561189     2A    -11.325122     3A    -11.235548
       4A    -11.234439     5A    -11.228274     6A    -11.222398
       7A    -11.220394     8A    -11.219810     9A    -11.212402
      10A     -1.400830    11A     -1.105227    12A     -1.070328
      13A     -1.014503    14A     -0.943830    15A     -0.877130
      16A     -0.826995    17A     -0.784681    18A     -0.782279
      19A     -0.674462    20A     -0.660717    21A     -0.633148
      22A     -0.619648    23A     -0.602041    24A     -0.597637
      25A     -0.567991    26A     -0.560034    27A     -0.542379
      28A     -0.519877    29A     -0.511296    30A     -0.502154
      31A     -0.487562    32A     -0.480499    33A     -0.467342
      34A     -0.461638    35A     -0.445037    36A     -0.407330

  @DF-RHF Final Energy:  -387.12024713446402

   => Energetics <=

    Nuclear Repulsion Energy =            435.7305033133694110
    One-Electron Energy =               -1387.6891579426323915
    Two-Electron Energy =                 564.8384074947990712
    DFT Exchange-Correlation Energy =       0.0000000000000000
    Empirical Dispersion Energy =           0.0000000000000000
    PCM Polarization Energy =               0.0000000000000000
    EFP Energy =                            0.0000000000000000
    Total Energy =                       -387.1202471344639662
    Molecular point group: c1
  Basis Set: 6-31G*
  Basis Set:

  -Total Gradient:
     Atom            X                  Y                   Z
    ------   -----------------  -----------------  -----------------
       1       -0.000021379113    -0.000034244841    -0.000011758276
       2       -0.000213593912     0.000073218835     0.000004627872
       3       -0.000117392578     0.000101371194     0.000082663682
       4        0.000179969210    -0.000073243134     0.000003397436
       5        0.000072196071    -0.000011648717     0.000043599739
       6        0.000004177443    -0.000053840462    -0.000157062096
       7        0.000032065790    -0.000023018386    -0.000006776006
       8        0.000007142752     0.000053029232     0.000016993354
       9        0.000015316380    -0.000002579420    -0.000016715680
      10        0.000050020853    -0.000067084550    -0.000031502220
      11       -0.000001788327    -0.000025607693     0.000027671978
      12        0.000013790476     0.000005442335     0.000004601429
      13       -0.000008490777     0.000046070317     0.000010994975
      14       -0.000011520045     0.000014894785     0.000005396968
      15        0.000003571413    -0.000022621918     0.000002925346
      16       -0.000005179325     0.000004795331    -0.000003213582
      17        0.000000997157    -0.000000872017     0.000014692469
      18       -0.000000391772    -0.000000856882    -0.000000382148
      19        0.000000553912     0.000003409929     0.000001311942
      20        0.000000580009     0.000003691110     0.000002478439
      21       -0.000003082497     0.000008905711     0.000003201103
      22        0.000001029919    -0.000002069204     0.000000821104
      23        0.000000332194     0.000001138077    -0.000000388210
      24       -0.000001117561     0.000003297177     0.000004387807
      25        0.000002192328    -0.000001576812    -0.000001967420

  **** Optimization is complete! (in 8 steps) ****
    Final optimized geometry and variables:
    Molecular point group: c1

    Geometry (in Angstrom), charge = 0, multiplicity = 1:

    H           -0.176686051401    -3.098366221772    -0.395084057407
    C           -0.134471467302    -3.004924678934    -1.484806693222
    C            0.527718938053    -1.761324701479    -2.023765372258
    O           -0.590189863357    -3.863807350179    -2.169433284758
    C           -0.027117915456    -0.454671968302    -1.431479871645
    H            1.593565150482    -1.832940163875    -1.809770585881
    H            0.408880979278    -1.777350553718    -3.100631825231
    C            0.363461789092    -0.192486282704     0.026578825270
    H            0.335990449421     0.366357635423    -2.043102034079
    H           -1.110558023785    -0.446580927045    -1.529732234891
    C           -0.165561129675     1.145618639893     0.547975647415
    H            1.448574772564    -0.208993288447     0.112879840972
    H           -0.005097931231    -0.990356924859     0.667094595770
    C            0.233215811421     1.416821039649     2.001084000536
    H            0.200254725461     1.942634376175    -0.094075422838
    H           -1.251185311746     1.159109012793     0.465316337092
    C           -0.348405040876     2.705281696337     2.594149747823
    H            1.319091076082     1.446071689451     2.077064026051
    H           -0.091089486351     0.578228767119     2.613930000473
    C            0.167678241466     3.992190271199     1.947816119418
    H           -0.114775814407     2.730464837491     3.655574137825
    H           -1.433779231834     2.675217421802     2.523721998700
    H            1.252338321053     4.043334338947     1.991997864577
    H           -0.125368640725     4.070340397826     0.906121015254
    H           -0.224202373932     4.864591800335     2.461433475370

  Mulliken Charges: (a.u.)
   Center  Symbol    Alpha    Beta     Spin     Total
       1     H     0.43009  0.43009  0.00000  0.13982
       2     C     2.83056  2.83056  0.00000  0.33888
       3     C     3.21052  3.21052  0.00000 -0.42104
       4     O     4.23869  4.23869  0.00000 -0.47737
       5     C     3.16582  3.16582  0.00000 -0.33163
       6     H     0.40855  0.40855  0.00000  0.18289
       7     H     0.39757  0.39757  0.00000  0.20487
       8     C     3.15658  3.15658  0.00000 -0.31315
       9     H     0.41252  0.41252  0.00000  0.17495
      10     H     0.41421  0.41421  0.00000  0.17158
      11     C     3.15408  3.15408  0.00000 -0.30816
      12     H     0.42112  0.42112  0.00000  0.15777
      13     H     0.42180  0.42180  0.00000  0.15641
      14     C     3.15306  3.15306  0.00000 -0.30611
      15     H     0.42000  0.42000  0.00000  0.16000
      16     H     0.42209  0.42209  0.00000  0.15582
      17     C     3.15279  3.15279  0.00000 -0.30557
      18     H     0.42364  0.42364  0.00000  0.15272
      19     H     0.42181  0.42181  0.00000  0.15639
      20     C     3.24153  3.24153  0.00000 -0.48306
      21     H     0.41998  0.41998  0.00000  0.16005
      22     H     0.42260  0.42260  0.00000  0.15480
      23     H     0.42205  0.42205  0.00000  0.15590
      24     H     0.42016  0.42016  0.00000  0.15967
      25     H     0.41821  0.41821  0.00000  0.16359

   Total alpha = 36.00000, Total beta = 36.00000, Total charge =  0.00000
