  ==> Input File <==

--------------------------------------------------------------------------
set {
	reference rhf
	basis 6-31G*
}

set_num_threads( 4 )
memory 2 gb

molecule MOL {
0 1

H	 -3.634411	 -0.880932	 0.184194
O	 -3.517110	 -0.026191	 -0.205115
C	 -2.306886	 0.532354	 0.237577
C	 -1.177863	 -0.397191	 -0.171080
H	 -2.156308	 1.517575	 -0.201710
H	 -2.315015	 0.655684	 1.319734
C	 0.198102	 0.111031	 0.262842
H	 -1.208843	 -0.518759	 -1.250427
H	 -1.368741	 -1.376554	 0.258909
C	 1.331804	 -0.827780	 -0.158768
H	 0.361943	 1.100838	 -0.156218
H	 0.217265	 0.229072	 1.345532
C	 2.723619	 -0.410569	 0.329459
H	 1.342964	 -0.912588	 -1.244120
H	 1.116806	 -1.824343	 0.220779
C	 3.243875	 0.895854	 -0.272975
H	 3.424222	 -1.207124	 0.091250
H	 2.714788	 -0.329854	 1.414619
H	 3.251977	 0.848779	 -1.358681
H	 2.637085	 1.747371	 0.016682
H	 4.259473	 1.094070	 0.055697

	symmetry c1
}
set optking {
	frozen_dihedral = ("
		1 2 3 5
	")
}

ee = optimize('scf')
oeprop('DIPOLE', 'QUADRUPOLE', 'MULLIKEN_CHARGES')
f=open( 'psi4out.xyz', 'w' )
f.write( "21  " )
f.write( str(ee) + "\n" )
f.write( MOL.save_string_xyz() )
f.close()
--------------------------------------------------------------------------

    Molecular point group: c1
  Charge       = 0
  Multiplicity = 1
  Basis Set: 6-31G*
  Basis Set:
  @DF-RHF Final Energy:  -310.21081595100975
    Total Energy =                       -310.2108159510098062
    Molecular point group: c1
  Basis Set: 6-31G*
  Basis Set:
  Basis Set: 6-31G*
  Basis Set:
  @DF-RHF Final Energy:  -310.21240133548810
    Total Energy =                       -310.2124013354880390
  Basis Set: 6-31G*
  Basis Set:
  Basis Set: 6-31G*
  Basis Set:
  @DF-RHF Final Energy:  -310.21278545241694
    Total Energy =                       -310.2127854524166537
  Basis Set: 6-31G*
  Basis Set:
  Basis Set: 6-31G*
  Basis Set:
  @DF-RHF Final Energy:  -310.21278972829737
    Total Energy =                       -310.2127897282973663
  Basis Set: 6-31G*
  Basis Set:
  Basis Set: 6-31G*
  Basis Set:
  @DF-RHF Final Energy:  -310.21278576180094
    Total Energy =                       -310.2127857618009443
  Basis Set: 6-31G*
  Basis Set:
  Basis Set: 6-31G*
  Basis Set:
  @DF-RHF Final Energy:  -310.21279084653986
    Total Energy =                       -310.2127908465398605
  Basis Set: 6-31G*
  Basis Set:
  Charge       = 0
  Multiplicity = 1
  Basis Set: 6-31G*
  Basis Set:

    Orbital Energies (a.u.)
    -----------------------

    Doubly Occupied:

       1A    -20.552085     2A    -11.266738     3A    -11.219876
       4A    -11.217934     5A    -11.217412     6A    -11.217247
       7A    -11.210082     8A     -1.359042     9A     -1.089706
      10A     -1.035324    11A     -0.955595    12A     -0.879777
      13A     -0.820041    14A     -0.781661    15A     -0.690268
      16A     -0.649361    17A     -0.621168    18A     -0.608441
      19A     -0.594781    20A     -0.576650    21A     -0.539218
      22A     -0.534817    23A     -0.505444    24A     -0.492125
      25A     -0.483759    26A     -0.465058    27A     -0.459357
      28A     -0.457332    29A     -0.422280

  @DF-RHF Final Energy:  -310.21279074616206

   => Energetics <=

    Nuclear Repulsion Energy =            312.2688904022361953
    One-Electron Energy =               -1039.1182079564841843
    Two-Electron Energy =                 416.6365268080858186
    DFT Exchange-Correlation Energy =       0.0000000000000000
    Empirical Dispersion Energy =           0.0000000000000000
    PCM Polarization Energy =               0.0000000000000000
    EFP Energy =                            0.0000000000000000
    Total Energy =                       -310.2127907461622272
    Molecular point group: c1
  Basis Set: 6-31G*
  Basis Set:

  -Total Gradient:
     Atom            X                  Y                   Z
    ------   -----------------  -----------------  -----------------
       1        0.000163169187    -0.000195135476    -0.000358059686
       2       -0.000248811986     0.000152275192     0.000357067137
       3       -0.000152054732     0.000185503222     0.000268978309
       4        0.000040980098     0.000022301723    -0.000001470153
       5        0.000191572923    -0.000151050701    -0.000284302561
       6        0.000020750450     0.000004865617    -0.000002765001
       7        0.000013617281    -0.000012506158     0.000013010701
       8       -0.000002726778    -0.000003317997     0.000002327582
       9       -0.000000937575     0.000006095933     0.000009555330
      10        0.000013381955    -0.000008424831    -0.000010726457
      11       -0.000000984392     0.000006057328     0.000004114842
      12       -0.000008459416    -0.000006912714     0.000009568578
      13       -0.000011701603     0.000011695689    -0.000006614420
      14       -0.000004600676    -0.000007519854    -0.000004440972
      15        0.000009264536    -0.000000397698     0.000007129242
      16       -0.000000699600    -0.000001809603    -0.000002025224
      17       -0.000010283744    -0.000002776962    -0.000004158316
      18       -0.000003565899    -0.000000339695     0.000001880072
      19       -0.000001529683     0.000000888546    -0.000000432370
      20       -0.000008141415     0.000000822448     0.000002329340
      21        0.000001761078    -0.000000314008    -0.000000965972

  **** Optimization is complete! (in 7 steps) ****
    Final optimized geometry and variables:
    Molecular point group: c1

    Geometry (in Angstrom), charge = 0, multiplicity = 1:

    H           -3.734097097410    -0.796182044594     0.158285017520
    O           -3.563377900288     0.061980691238    -0.204362557251
    C           -2.310977823150     0.514101014443     0.240233175174
    C           -1.172371467637    -0.410496665226    -0.173422370966
    H           -2.175953063340     1.491659614574    -0.205384071622
    H           -2.313542210491     0.647885212170     1.321271709658
    C            0.201276090049     0.102907558419     0.262569462511
    H           -1.202786491553    -0.530844889438    -1.253081984203
    H           -1.342922105723    -1.398547235063     0.254576420796
    C            1.342411866918    -0.827147306504    -0.158199196882
    H            0.356829538055     1.093881769815    -0.156169137796
    H            0.217538269976     0.221486188584     1.345139396387
    C            2.730938383040    -0.395769325586     0.327122626000
    H            1.352906430877    -0.914599458373    -1.243314422741
    H            1.137411474318    -1.824862396358     0.224459824015
    C            3.237994560831     0.913844585837    -0.279545091959
    H            3.438288485104    -1.186556587726     0.089848760047
    H            2.722770886352    -0.312443167908     1.412070826348
    H            3.244527662084     0.864183495028    -1.365106545786
    H            2.624259526603     1.760595755747     0.009287779056
    H            4.252315071401     1.121831195591     0.046777294675

  Mulliken Charges: (a.u.)
   Center  Symbol    Alpha    Beta     Spin     Total
       1     H     0.28347  0.28347  0.00000  0.43306
       2     O     4.37109  4.37109  0.00000 -0.74218
       3     C     2.98646  2.98646  0.00000  0.02707
       4     C     3.16911  3.16911  0.00000 -0.33822
       5     H     0.41689  0.41689  0.00000  0.16623
       6     H     0.43171  0.43171  0.00000  0.13657
       7     C     3.16141  3.16141  0.00000 -0.32281
       8     H     0.41375  0.41375  0.00000  0.17250
       9     H     0.42896  0.42896  0.00000  0.14209
      10     C     3.15177  3.15177  0.00000 -0.30354
      11     H     0.41911  0.41911  0.00000  0.16177
      12     H     0.42332  0.42332  0.00000  0.15336
      13     C     3.15264  3.15264  0.00000 -0.30528
      14     H     0.42258  0.42258  0.00000  0.15485
      15     H     0.42217  0.42217  0.00000  0.15566
      16     C     3.24145  3.24145  0.00000 -0.48290
      17     H     0.42035  0.42035  0.00000  0.15931
      18     H     0.42329  0.42329  0.00000  0.15342
      19     H     0.42168  0.42168  0.00000  0.15664
      20     H     0.42007  0.42007  0.00000  0.15985
      21     H     0.41872  0.41872  0.00000  0.16256

   Total alpha = 29.00000, Total beta = 29.00000, Total charge = -0.00000
