                              Psi4 1.0.54 Driver

  ==> Input File <==

--------------------------------------------------------------------------
set {
	reference rhf
	basis cc-pvtz
}

set_num_threads( 4 )
memory 2 gb

molecule MOL {
0 1

H	 1.536365	 1.097940	 1.152004
O	 0.741288	 0.589391	 1.203942
C	 0.489979	 0.078084	 0.002623
C	 -0.763662	 -0.754014	 0.000816
O	 1.196207	 0.271332	 -0.925713
C	 -2.038001	 0.074705	 -0.000833
H	 -0.712945	 -1.405886	 -0.864342
H	 -0.715137	 -1.405770	 0.866182
H	 -2.087267	 0.710831	 -0.874232
H	 -2.903419	 -0.576199	 -0.001922
H	 -2.089467	 0.710909	 0.872389

	symmetry c1
}
set optking {
	frozen_dihedral = ("
		2 3 4 7
	")
}

ee,wfn = optimize('scf', return_wfn=True)
oeprop( wfn, 'DIPOLE', 'QUADRUPOLE', 'MULLIKEN_CHARGES')
f=open( 'psi4out.xyz', 'w' )
f.write( "11  " )
f.write( str(ee) + "\n" )
f.write( MOL.save_string_xyz() )
f.close()
--------------------------------------------------------------------------

    Molecular point group: c1
  Charge       = 0
  Multiplicity = 1
  Basis Set: CC-PVTZ
  Basis Set:
  @DF-RHF Final Energy:  -266.95115049170016
    Total Energy =                       -266.9511504917002185
    Molecular point group: c1
  Basis Set: CC-PVTZ
  Basis Set:
  Basis Set: CC-PVTZ
  Basis Set:
  @DF-RHF Final Energy:  -266.95151567295011
    Total Energy =                       -266.9515156729499950
  Basis Set: CC-PVTZ
  Basis Set:
  Basis Set: CC-PVTZ
  Basis Set:
  @DF-RHF Final Energy:  -266.95148206977228
    Total Energy =                       -266.9514820697722826
  Basis Set: CC-PVTZ
  Basis Set:
  Basis Set: CC-PVTZ
  Basis Set:
  @DF-RHF Final Energy:  -266.95165654949477
    Total Energy =                       -266.9516565494949987
  Basis Set: CC-PVTZ
  Basis Set:
  Basis Set: CC-PVTZ
  Basis Set:
  @DF-RHF Final Energy:  -266.95165860942740
    Total Energy =                       -266.9516586094275681
  Basis Set: CC-PVTZ
  Basis Set:
  Charge       = 0
  Multiplicity = 1
  Basis Set: CC-PVTZ
  Basis Set:

    Orbital Energies (a.u.)
    -----------------------

    Doubly Occupied:

       1A    -20.605833     2A    -20.539989     3A    -11.373418
       4A    -11.241484     5A    -11.229352     6A     -1.478224
       7A     -1.369091     8A     -1.069096     9A     -0.914131
      10A     -0.818767    11A     -0.706426    12A     -0.688379
      13A     -0.643835    14A     -0.619274    15A     -0.594826
      16A     -0.545814    17A     -0.528112    18A     -0.513692
      19A     -0.481220    20A     -0.443943

  @DF-RHF Final Energy:  -266.95165882473293

   => Energetics <=

    Nuclear Repulsion Energy =            180.3868544601825761
    One-Electron Energy =                -721.8672124469435403
    Two-Electron Energy =                 274.5286991620279764
    DFT Exchange-Correlation Energy =       0.0000000000000000
    Empirical Dispersion Energy =           0.0000000000000000
    PCM Polarization Energy =               0.0000000000000000
    EFP Energy =                            0.0000000000000000
    Total Energy =                       -266.9516588247329878
    Molecular point group: c1
  Basis Set: CC-PVTZ
  Basis Set:

  -Total Gradient:
     Atom            X                  Y                   Z
    ------   -----------------  -----------------  -----------------
       1        0.000003827241     0.000003896054    -0.000003014982
       2        0.000113495833    -0.000217882913     0.000036915693
       3       -0.000157494369     0.000227858638     0.000037416278
       4       -0.000126830305     0.000206548841    -0.000184917678
       5        0.000013827176    -0.000003197318    -0.000052369261
       6        0.000002082039    -0.000007409415     0.000008142112
       7        0.000151737446    -0.000213115078     0.000150208992
       8       -0.000004294337    -0.000000113333    -0.000000571417
       9        0.000005345155    -0.000004528005     0.000003907059
      10        0.000003834748    -0.000000359309     0.000000115655
      11       -0.000005530626     0.000008301838     0.000004167549

  **** Optimization is complete! (in 6 steps) ****
    Final optimized geometry and variables:
    Molecular point group: c1

    Geometry (in Angstrom), charge = 0, multiplicity = 1:

    H            1.580486448143     1.040308802408     1.064891261779
    O            0.814478940848     0.490568735512     1.135581075511
    C            0.537837808024    -0.002995791725    -0.067888627024
    C           -0.698945638282    -0.859295006402    -0.067796783765
    O            1.200544339401     0.241480246616    -1.016511100129
    C           -1.968299472473    -0.002821987220    -0.080033365350
    H           -0.655474255913    -1.487220874760    -0.945171915234
    H           -0.686086953668    -1.488010193034     0.813135745043
    H           -1.998140116233     0.630099680149    -0.958256457477
    H           -2.843361986050    -0.639431353488    -0.094350440746
    H           -2.022816908772     0.626855084703     0.798551401699

  Mulliken Charges: (a.u.)
   Center  Symbol    Alpha    Beta     Spin     Total
       1     H     0.38021  0.38021  0.00000  0.23959
       2     O     4.16450  4.16450  0.00000 -0.32900
       3     C     2.79828  2.79828  0.00000  0.40345
       4     C     3.08961  3.08961  0.00000 -0.17922
       5     O     4.19586  4.19586  0.00000 -0.39173
       6     C     3.15036  3.15036  0.00000 -0.30073
       7     H     0.43695  0.43695  0.00000  0.12609
       8     H     0.44400  0.44400  0.00000  0.11199
       9     H     0.44676  0.44676  0.00000  0.10647
      10     H     0.44661  0.44661  0.00000  0.10679
      11     H     0.44685  0.44685  0.00000  0.10629

   Total alpha = 20.00000, Total beta = 20.00000, Total charge = -0.00000

*** Psi4 exiting successfully. Buy a developer a beer!
