                              Psi4 1.0.54 Driver

  ==> Input File <==

--------------------------------------------------------------------------
set {
	reference rhf
	basis cc-pvtz
}

set_num_threads( 4 )
memory 2 gb

molecule MOL {
0 1

H	 -2.171709	 0.882708	 0.500286
C	 -2.016894	 0.001719	 -0.114152
O	 -0.775228	 0.000056	 -0.739966
H	 -2.760846	 0.003757	 -0.898169
H	 -2.174774	 -0.879864	 0.498643
C	 -0.435901	 -1.044157	 -1.630896
C	 0.972217	 -0.688334	 -2.095091
C	 -0.421635	 -2.396576	 -0.915773
C	 -1.385905	 -1.077620	 -2.829632
H	 1.643373	 -0.638664	 -1.247043
H	 0.971663	 0.279033	 -2.581202
H	 1.349307	 -1.426600	 -2.792755
H	 0.201380	 -2.347376	 -0.030843
H	 -0.022402	 -3.161013	 -1.571624
H	 -1.414303	 -2.710684	 -0.618270
H	 -1.442042	 -0.099667	 -3.292392
H	 -1.028578	 -1.784466	 -3.568931
H	 -2.386591	 -1.380879	 -2.548157

	symmetry c1
}
set optking {
	frozen_dihedral = ("
		6 3 2 5
	")
}

ee,wfn = optimize('scf', return_wfn=True)
oeprop( wfn, 'DIPOLE', 'QUADRUPOLE', 'MULLIKEN_CHARGES')
f=open( 'psi4out.xyz', 'w' )
f.write( "18  " )
f.write( str(ee) + "\n" )
f.write( MOL.save_string_xyz() )
f.close()
--------------------------------------------------------------------------

    Molecular point group: c1
  Charge       = 0
  Multiplicity = 1
  Basis Set: CC-PVTZ
  Basis Set:
  @DF-RHF Final Energy:  -271.27421221334146
    Total Energy =                       -271.2742122133415705
    Molecular point group: c1
  Basis Set: CC-PVTZ
  Basis Set:
  Basis Set: CC-PVTZ
  Basis Set:
  @DF-RHF Final Energy:  -271.27616487056309
    Total Energy =                       -271.2761648705631501
  Basis Set: CC-PVTZ
  Basis Set:
  Basis Set: CC-PVTZ
  Basis Set:
  @DF-RHF Final Energy:  -271.27673747868425
    Total Energy =                       -271.2767374786841970
  Basis Set: CC-PVTZ
  Basis Set:
  Basis Set: CC-PVTZ
  Basis Set:
  @DF-RHF Final Energy:  -271.27672740851375
    Total Energy =                       -271.2767274085138638
  Basis Set: CC-PVTZ
  Basis Set:
  Basis Set: CC-PVTZ
  Basis Set:
  @DF-RHF Final Energy:  -271.27675284835220
    Total Energy =                       -271.2767528483520323
  Basis Set: CC-PVTZ
  Basis Set:
  Basis Set: CC-PVTZ
  Basis Set:
  @DF-RHF Final Energy:  -271.27675535165650
    Total Energy =                       -271.2767553516566750
  Basis Set: CC-PVTZ
  Basis Set:
  Charge       = 0
  Multiplicity = 1
  Basis Set: CC-PVTZ
  Basis Set:

    Orbital Energies (a.u.)
    -----------------------

    Doubly Occupied:

       1A    -20.540646     2A    -11.280115     3A    -11.258029
       4A    -11.207190     5A    -11.206928     6A    -11.201815
       7A     -1.373685     8A     -1.074664     9A     -0.946737
      10A     -0.940846    11A     -0.913193    12A     -0.753512
      13A     -0.656664    14A     -0.646658    15A     -0.639420
      16A     -0.593875    17A     -0.575980    18A     -0.553306
      19A     -0.534342    20A     -0.524871    21A     -0.515074
      22A     -0.488242    23A     -0.487997    24A     -0.440792
      25A     -0.407713

  @DF-RHF Final Energy:  -271.27675554515042

   => Energetics <=

    Nuclear Repulsion Energy =            272.6742788882210107
    One-Electron Energy =                -908.3774765415262209
    Two-Electron Energy =                 364.4264421081550154
    DFT Exchange-Correlation Energy =       0.0000000000000000
    Empirical Dispersion Energy =           0.0000000000000000
    PCM Polarization Energy =               0.0000000000000000
    EFP Energy =                            0.0000000000000000
    Total Energy =                       -271.2767555451501948
    Molecular point group: c1
  Basis Set: CC-PVTZ
  Basis Set:

  -Total Gradient:
     Atom            X                  Y                   Z
    ------   -----------------  -----------------  -----------------
       1        0.000010180447    -0.000009787377    -0.000013592730
       2        0.000057449277    -0.000028738591     0.000053750123
       3       -0.000077427734     0.000027570860    -0.000052950177
       4        0.000011857785    -0.000003413772     0.000018015589
       5       -0.000045374864    -0.000014165199    -0.000044959487
       6        0.000052433786     0.000003207745     0.000014019639
       7        0.000033703902    -0.000025336412    -0.000013389753
       8       -0.000018707944     0.000037490531     0.000003375117
       9       -0.000028924752     0.000003817826     0.000016629335
      10        0.000011634479     0.000012975691    -0.000003566376
      11       -0.000018991129    -0.000013289990     0.000001420961
      12        0.000023293102    -0.000012269350    -0.000001955973
      13       -0.000010648914     0.000002191849     0.000003251907
      14        0.000006821021     0.000005436382    -0.000005930333
      15       -0.000008192089     0.000001425020    -0.000003659925
      16       -0.000004302173    -0.000020838404     0.000007423348
      17       -0.000008721786     0.000025088458     0.000032077515
      18        0.000013917587     0.000008634735    -0.000009958781

  **** Optimization is complete! (in 7 steps) ****
    Final optimized geometry and variables:
    Molecular point group: c1

    Geometry (in Angstrom), charge = 0, multiplicity = 1:

    H           -1.283548904072     1.748201292669     1.929698126954
    C           -1.282580532468     0.876127046746     1.291291257441
    O           -0.059848328505     0.865449789818     0.629320094730
    H           -2.122923257918     0.955950231631     0.609315576813
    H           -1.426013035668     0.000389537301     1.915813479378
    C            0.249710930282    -0.187063599004    -0.262686672642
    C            1.633495465488     0.173815267443    -0.791767705060
    C            0.306618131772    -1.529467567077     0.469028360491
    C           -0.750888326133    -0.244604194959    -1.418459285836
    H            2.339304051313     0.243309649358     0.026220068051
    H            1.603079238170     1.133107590148    -1.292687651939
    H            1.988035152526    -0.572290220772    -1.492928660177
    H            0.966637393582    -1.462704194464     1.325473139380
    H            0.683983767462    -2.299614692384    -0.193091563091
    H           -0.669395658689    -1.847805451454     0.813338004443
    H           -0.836542689264     0.726518122081    -1.890960642045
    H           -0.419048531840    -0.957783383841    -2.163419188615
    H           -1.735431285172    -0.553175179496    -1.089802056818

  Mulliken Charges: (a.u.)
   Center  Symbol    Alpha    Beta     Spin     Total
       1     H     0.44023  0.44023  0.00000  0.11954
       2     C     3.04427  3.04427  0.00000 -0.08854
       3     O     4.18981  4.18981  0.00000 -0.37962
       4     H     0.46956  0.46956  0.00000  0.06089
       5     H     0.47001  0.47001  0.00000  0.05998
       6     C     2.87279  2.87279  0.00000  0.25441
       7     C     3.14153  3.14153  0.00000 -0.28306
       8     C     3.16391  3.16391  0.00000 -0.32781
       9     C     3.16507  3.16507  0.00000 -0.33015
      10     H     0.44870  0.44870  0.00000  0.10260
      11     H     0.44892  0.44892  0.00000  0.10215
      12     H     0.45937  0.45937  0.00000  0.08125
      13     H     0.44518  0.44518  0.00000  0.10964
      14     H     0.44860  0.44860  0.00000  0.10280
      15     H     0.44944  0.44944  0.00000  0.10111
      16     H     0.44503  0.44503  0.00000  0.10994
      17     H     0.44816  0.44816  0.00000  0.10367
      18     H     0.44940  0.44940  0.00000  0.10121

   Total alpha = 25.00000, Total beta = 25.00000, Total charge =  0.00000

*** Psi4 exiting successfully. Buy a developer a beer!
