                              Psi4 1.0.54 Driver

  ==> Input File <==

--------------------------------------------------------------------------
set {
	reference rhf
	basis cc-pvtz
}

set_num_threads( 4 )
memory 2 gb

molecule MOL {
0 1

O	 1.896385	 1.204822	 0.431326
C	 1.704209	 0.119472	 -0.000093
C	 0.380337	 -0.600947	 -0.000234
O	 2.653087	 -0.619005	 -0.552087
C	 -0.824290	 0.329213	 -0.000115
H	 0.371455	 -1.255476	 -0.865660
H	 0.371410	 -1.255787	 0.864952
C	 -2.146151	 -0.432825	 -0.000068
H	 -0.773936	 0.979158	 -0.866319
H	 -0.773838	 0.979034	 0.866186
C	 -3.366283	 0.483552	 0.000557
H	 -2.189286	 -1.084450	 -0.869996
H	 -2.188867	 -1.085083	 0.869399
C	 -4.687436	 -0.278003	 0.000108
H	 -3.325150	 1.134819	 -0.867957
H	 -3.325087	 1.133730	 0.869885
H	 -4.773783	 -0.912098	 -0.876078
H	 -5.531922	 0.401392	 0.000363
H	 -4.773901	 -0.912898	 0.875703
C	 3.951105	 -0.063996	 -0.618699
H	 3.947613	 0.845160	 -1.201482
H	 4.569024	 -0.808368	 -1.094023
H	 4.324080	 0.153429	 0.371165

	symmetry c1
}
set optking {
	frozen_dihedral = ("
		1 2 3 6
	")
}

ee,wfn = optimize('scf', return_wfn=True)
oeprop( wfn, 'DIPOLE', 'QUADRUPOLE', 'MULLIKEN_CHARGES')
f=open( 'psi4out.xyz', 'w' )
f.write( "23  " )
f.write( str(ee) + "\n" )
f.write( MOL.save_string_xyz() )
f.close()
--------------------------------------------------------------------------

    Molecular point group: c1
  Charge       = 0
  Multiplicity = 1
  Basis Set: CC-PVTZ
  Basis Set:
  @DF-RHF Final Energy:  -423.13038947852789
    Total Energy =                       -423.1303894785280590
    Molecular point group: c1
  Basis Set: CC-PVTZ
  Basis Set:
  Basis Set: CC-PVTZ
  Basis Set:
  @DF-RHF Final Energy:  -423.12686457027496
    Total Energy =                       -423.1268645702751883
  Basis Set: CC-PVTZ
  Basis Set:
  Basis Set: CC-PVTZ
  Basis Set:
  @DF-RHF Final Energy:  -423.13029858175702
    Total Energy =                       -423.1302985817571880
  Basis Set: CC-PVTZ
  Basis Set:
  Basis Set: CC-PVTZ
  Basis Set:
  @DF-RHF Final Energy:  -423.13049823181314
    Total Energy =                       -423.1304982318131351
  Basis Set: CC-PVTZ
  Basis Set:
  Basis Set: CC-PVTZ
  Basis Set:
  @DF-RHF Final Energy:  -423.13062349191773
    Total Energy =                       -423.1306234919179587
  Basis Set: CC-PVTZ
  Basis Set:
  Basis Set: CC-PVTZ
  Basis Set:
  @DF-RHF Final Energy:  -423.13064653831805
    Total Energy =                       -423.1306465383181603
  Basis Set: CC-PVTZ
  Basis Set:
  Charge       = 0
  Multiplicity = 1
  Basis Set: CC-PVTZ
  Basis Set:

    Orbital Energies (a.u.)
    -----------------------

    Doubly Occupied:

       1A    -20.597232     2A    -20.533076     3A    -11.364529
       4A    -11.278483     5A    -11.233457     6A    -11.218408
       7A    -11.216229     8A    -11.214855     9A    -11.207985
      10A     -1.472391    11A     -1.365396    12A     -1.094781
      13A     -1.044758    14A     -0.988054    15A     -0.933155
      16A     -0.844455    17A     -0.795891    18A     -0.770327
      19A     -0.698715    20A     -0.686164    21A     -0.675254
      22A     -0.653307    23A     -0.609434    24A     -0.600571
      25A     -0.574064    26A     -0.564980    27A     -0.553150
      28A     -0.526070    29A     -0.523538    30A     -0.507772
      31A     -0.484600    32A     -0.471196    33A     -0.467029
      34A     -0.463462    35A     -0.459874    36A     -0.437062

  @DF-RHF Final Energy:  -423.13064681121284

   => Energetics <=

    Nuclear Repulsion Energy =            452.8977001760873691
    One-Electron Energy =               -1473.7972902283863732
    Two-Electron Energy =                 597.7689432410861627
    DFT Exchange-Correlation Energy =       0.0000000000000000
    Empirical Dispersion Energy =           0.0000000000000000
    PCM Polarization Energy =               0.0000000000000000
    EFP Energy =                            0.0000000000000000
    Total Energy =                       -423.1306468112128414
    Molecular point group: c1
  Basis Set: CC-PVTZ
  Basis Set:

  -Total Gradient:
     Atom            X                  Y                   Z
    ------   -----------------  -----------------  -----------------
       1        0.000154825178    -0.000617541504     0.000786748460
       2       -0.000228023531     0.000749187973    -0.001011897661
       3       -0.000323356450     0.000691197033    -0.000171500033
       4        0.000087951595    -0.000109686749    -0.000013252910
       5        0.000015505579    -0.000005605607     0.000004246236
       6        0.000333562719    -0.000765895806     0.000424986701
       7        0.000005571126     0.000013632487    -0.000004129448
       8       -0.000002547277     0.000001966293    -0.000001663663
       9        0.000002579450    -0.000006001167     0.000002129792
      10       -0.000007007553     0.000003948234    -0.000000555852
      11       -0.000001532188    -0.000001973523     0.000003988984
      12        0.000003081621     0.000006626399     0.000004680558
      13       -0.000002088141     0.000006106263    -0.000005692192
      14       -0.000006017511    -0.000002357189     0.000003872954
      15        0.000002935701    -0.000008625295     0.000003186457
      16       -0.000002612975    -0.000002290727    -0.000004622825
      17        0.000003220905     0.000004796533     0.000005672470
      18       -0.000003377732    -0.000001518692     0.000000215952
      19        0.000000144478     0.000003505924    -0.000004000805
      20       -0.000015521397     0.000074157463    -0.000034548437
      21        0.000028485501    -0.000017058851     0.000013816510
      22       -0.000025417124    -0.000004339084     0.000014981742
      23       -0.000020361975    -0.000012230408    -0.000016662991

  **** Optimization is complete! (in 7 steps) ****
    Final optimized geometry and variables:
    Molecular point group: c1

    Geometry (in Angstrom), charge = 0, multiplicity = 1:

    O            1.916441182672     1.038510177848     0.665285424746
    C            1.710311577831     0.032270785923     0.076394095527
    C            0.363320820132    -0.630293974196    -0.063339297881
    O            2.664555630034    -0.670753627883    -0.510405089847
    C           -0.807563193851     0.333453396051     0.080933579884
    H            0.335987617118    -1.162031220702    -1.005687997481
    H            0.323614459116    -1.391546299577     0.711777454191
    C           -2.156713688330    -0.373232143038    -0.008410185005
    H           -0.742210139224     1.093356390306    -0.691624851879
    H           -0.723567766587     0.854679373343     1.026354708748
    C           -3.341831218988     0.578138409990     0.128668886489
    H           -2.229431859533    -0.900510610987    -0.956929068800
    H           -2.217458066034    -1.133702426881     0.766915162608
    C           -4.690274652375    -0.128852264752     0.043409487316
    H           -3.283264485725     1.337109891063    -0.646469270908
    H           -3.269905672320     1.105009273756     1.075890435168
    H           -4.806443332953    -0.637498072095    -0.907913296470
    H           -5.508954889892     0.574278195448     0.143952229969
    H           -4.793732608279    -0.870826814095     0.828226694563
    C            3.987944484902    -0.187207133066    -0.398001632024
    H            4.073770031545     0.794705612655    -0.838900831589
    H            4.607561737534    -0.890182824326    -0.930657502195
    H            4.288179299585    -0.135735312450     0.638067479145

  Mulliken Charges: (a.u.)
   Center  Symbol    Alpha    Beta     Spin     Total
       1     O     4.19895  4.19895  0.00000 -0.39790
       2     C     2.81210  2.81210  0.00000  0.37580
       3     C     3.09394  3.09394  0.00000 -0.18789
       4     O     4.14510  4.14510  0.00000 -0.29021
       5     C     3.08691  3.08691  0.00000 -0.17382
       6     H     0.43796  0.43796  0.00000  0.12409
       7     H     0.44395  0.44395  0.00000  0.11210
       8     C     3.08957  3.08957  0.00000 -0.17914
       9     H     0.45056  0.45056  0.00000  0.09887
      10     H     0.44089  0.44089  0.00000  0.11821
      11     C     3.08400  3.08400  0.00000 -0.16800
      12     H     0.45566  0.45566  0.00000  0.08868
      13     H     0.45515  0.45515  0.00000  0.08970
      14     C     3.15039  3.15039  0.00000 -0.30078
      15     H     0.45371  0.45371  0.00000  0.09258
      16     H     0.45281  0.45281  0.00000  0.09438
      17     H     0.45539  0.45539  0.00000  0.08923
      18     H     0.44771  0.44771  0.00000  0.10457
      19     H     0.45514  0.45514  0.00000  0.08973
      20     C     3.03631  3.03631  0.00000 -0.07263
      21     H     0.45429  0.45429  0.00000  0.09142
      22     H     0.44512  0.44512  0.00000  0.10976
      23     H     0.45438  0.45438  0.00000  0.09124

   Total alpha = 36.00000, Total beta = 36.00000, Total charge = -0.00000

*** Psi4 exiting successfully. Buy a developer a beer!
