  ==> Input File <==

--------------------------------------------------------------------------
set {
	reference rhf
	basis 6-31G*
}

set_num_threads( 1 )
memory 2 gb

molecule MOL {
0 1

H	 -0.751228	 -1.299806	 -0.756605
N	 -0.626943	 -0.667432	 -0.000092
C	 -1.625401	 -0.646719	 1.044595
C	 0.469286	 0.129090	 0.000148
H	 -2.599482	 -0.383834	 0.645769
H	 -1.334826	 0.091931	 1.773765
H	 -1.698246	 -1.613165	 1.532148
C	 1.788933	 -0.616240	 -0.000037
O	 0.411098	 1.327768	 -0.000049
H	 1.872803	 -1.245775	 -0.880381
H	 2.595421	 0.101576	 0.003713
H	 1.870096	 -1.252171	 0.875943

	symmetry c1
}
set optking {
	frozen_dihedral = ("
		4 2 3 5
	")
}

ee = energy('scf')
oeprop('DIPOLE', 'QUADRUPOLE', 'MULLIKEN_CHARGES')
f=open( 'psi4out.xyz', 'w' )
f.write( "12  " )
f.write( str(ee) + "\n" )
f.write( MOL.save_string_xyz() )
f.close()
--------------------------------------------------------------------------

    Molecular point group: c1

    Geometry (in Angstrom), charge = 0, multiplicity = 1:

       Center              X                  Y                   Z               Mass
    ------------   -----------------  -----------------  -----------------  -----------------
           H         -0.824385347666    -1.199056002043    -0.972253895993     1.007825032070
           N         -0.700100347666    -0.566682002043    -0.215740895993    14.003074004780
           C         -1.698558347666    -0.545969002043     0.828946104007    12.000000000000
           C          0.396128652334     0.229839997957    -0.215500895993    12.000000000000
           H         -2.672639347666    -0.283084002043     0.430120104007     1.007825032070
           H         -1.407983347666     0.192680997957     1.558116104007     1.007825032070
           H         -1.771403347666    -1.512415002043     1.316499104007     1.007825032070
           C          1.715775652334    -0.515490002043    -0.215685895993    12.000000000000
           O          0.337940652334     1.428517997957    -0.215697895993    15.994914619560
           H          1.799645652334    -1.145025002043    -1.096029895993     1.007825032070
           H          2.522263652334     0.202325997957    -0.211935895993     1.007825032070
           H          1.796938652334    -1.151421002043     0.660294104007     1.007825032070

  Charge       = 0
  Multiplicity = 1
  Basis Set: 6-31G*
  Basis Set:

    Orbital Energies (a.u.)
    -----------------------

    Doubly Occupied:

       1A    -20.537668     2A    -15.555606     3A    -11.346282
       4A    -11.259060     5A    -11.225487     6A     -1.393308
       7A     -1.221740     8A     -1.008914     9A     -0.934151
      10A     -0.783148    11A     -0.685432    12A     -0.646675
      13A     -0.639484    14A     -0.586852    15A     -0.582178
      16A     -0.561437    17A     -0.548772    18A     -0.491508
      19A     -0.421974    20A     -0.372708

  @DF-RHF Final Energy:  -246.97476964632565

   => Energetics <=

    Nuclear Repulsion Energy =            180.9123762464233494
    One-Electron Energy =                -694.1694894525036261
    Two-Electron Energy =                 266.2823435597551907
    DFT Exchange-Correlation Energy =       0.0000000000000000
    Empirical Dispersion Energy =           0.0000000000000000
    PCM Polarization Energy =               0.0000000000000000
    EFP Energy =                            0.0000000000000000
    Total Energy =                       -246.9747696463250577

  Mulliken Charges: (a.u.)
   Center  Symbol    Alpha    Beta     Spin     Total
       1     H     0.31097  0.31097  0.00000  0.37806
       2     N     3.89926  3.89926  0.00000 -0.79852
       3     C     3.13276  3.13276  0.00000 -0.26552
       4     C     2.65469  2.65469  0.00000  0.69061
       5     H     0.41450  0.41450  0.00000  0.17101
       6     H     0.40356  0.40356  0.00000  0.19288
       7     H     0.41908  0.41908  0.00000  0.16183
       8     C     3.28035  3.28035  0.00000 -0.56070
       9     O     4.26535  4.26535  0.00000 -0.53070
      10     H     0.41288  0.41288  0.00000  0.17423
      11     H     0.39987  0.39987  0.00000  0.20027
      12     H     0.40672  0.40672  0.00000  0.18656

   Total alpha = 20.00000, Total beta = 20.00000, Total charge = -0.00000
