  ==> Input File <==

--------------------------------------------------------------------------
set {
	reference rhf
	basis cc-pvtz
}

set_num_threads( 4 )
memory 2 gb

molecule MOL {
0 1

H	 -0.753245	 1.747628	 0.004221
O	 0.057669	 1.301365	 -0.158528
C	 0.004145	 -0.005141	 0.363049
C	 1.199168	 -0.827145	 -0.096690
C	 -1.316386	 -0.602081	 -0.083515
H	 0.012026	 0.043363	 1.450619
H	 1.216685	 -0.896776	 -1.178167
H	 2.129940	 -0.372354	 0.228035
H	 1.160783	 -1.829622	 0.314294
H	 -1.357882	 -0.655920	 -1.165207
H	 -2.140147	 0.011735	 0.257253
H	 -1.440790	 -1.601175	 0.317669

	symmetry c1
}
set optking {
	frozen_dihedral = ("
		1 2 3 4
	")
}

ee = optimize('scf')
oeprop('DIPOLE', 'QUADRUPOLE', 'MULLIKEN_CHARGES')
f=open( 'psi4out.xyz', 'w' )
f.write( "12  " )
f.write( str(ee) + "\n" )
f.write( MOL.save_string_xyz() )
f.close()
--------------------------------------------------------------------------

    Molecular point group: c1
  Charge       = 0
  Multiplicity = 1
  Basis Set: CC-PVTZ
  Basis Set:
  @DF-RHF Final Energy:  -193.19392551235484
    Total Energy =                       -193.1939255123548946
    Molecular point group: c1
  Basis Set: CC-PVTZ
  Basis Set:
  Basis Set: CC-PVTZ
  Basis Set:
  @DF-RHF Final Energy:  -193.19553166179458
    Total Energy =                       -193.1955316617947460
  Basis Set: CC-PVTZ
  Basis Set:
  Basis Set: CC-PVTZ
  Basis Set:
  @DF-RHF Final Energy:  -193.19587813843600
    Total Energy =                       -193.1958781384361430
  Basis Set: CC-PVTZ
  Basis Set:
  Basis Set: CC-PVTZ
  Basis Set:
  @DF-RHF Final Energy:  -193.19588242103711
    Total Energy =                       -193.1958824210369983
  Basis Set: CC-PVTZ
  Basis Set:
  Charge       = 0
  Multiplicity = 1
  Basis Set: CC-PVTZ
  Basis Set:

    Orbital Energies (a.u.)
    -----------------------

    Doubly Occupied:

       1A    -20.544058     2A    -11.273991     3A    -11.213084
       4A    -11.205111     5A     -1.364694     6A     -1.043617
       7A     -0.941545     8A     -0.805394     9A     -0.697190
      10A     -0.633226    11A     -0.607014    12A     -0.546728
      13A     -0.533889    14A     -0.531152    15A     -0.512986
      16A     -0.469652    17A     -0.432767

  @DF-RHF Final Energy:  -193.19588289860607

   => Energetics <=

    Nuclear Repulsion Energy =            135.7921847470102819
    One-Electron Energy =                -531.2639380979669568
    Two-Electron Energy =                 202.2758704523505173
    DFT Exchange-Correlation Energy =       0.0000000000000000
    Empirical Dispersion Energy =           0.0000000000000000
    PCM Polarization Energy =               0.0000000000000000
    EFP Energy =                            0.0000000000000000
    Total Energy =                       -193.1958828986061292
    Molecular point group: c1
  Basis Set: CC-PVTZ
  Basis Set:

  -Total Gradient:
     Atom            X                  Y                   Z
    ------   -----------------  -----------------  -----------------
       1       -0.000353447680    -0.000335785948    -0.000922500599
       2        0.000342027491     0.000359315714     0.000962476617
       3        0.000327425866     0.000185386038     0.000447709833
       4       -0.000334652193    -0.000189610388    -0.000499228610
       5        0.000002209544     0.000003810780     0.000004255339
       6       -0.000003711323    -0.000020968335    -0.000017866818
       7       -0.000008695265     0.000005567823    -0.000002623711
       8       -0.000010794477     0.000007628934     0.000011884228
       9        0.000006801928    -0.000008091515    -0.000009116298
      10        0.000010284584     0.000015533924     0.000015393309
      11        0.000019632429    -0.000003916813    -0.000003313398
      12        0.000002919096    -0.000018870213     0.000012930107

  **** Optimization is complete! (in 5 steps) ****
    Final optimized geometry and variables:
    Molecular point group: c1

    Geometry (in Angstrom), charge = 0, multiplicity = 1:

    H           -0.637434660949     1.790376825448    -0.016809053310
    O            0.151509810312     1.296899721591    -0.147463278686
    C            0.000350618747    -0.005250626836     0.365536105775
    C            1.201844361423    -0.804528463847    -0.100688687494
    C           -1.314790558746    -0.623845783299    -0.084414176245
    H            0.010341978399     0.036984674196     1.453251040631
    H            1.213304475722    -0.870012265809    -1.182383360726
    H            2.118108996784    -0.325382074043     0.219673079718
    H            1.176970556923    -1.808155221156     0.307840593995
    H           -1.356291109887    -0.682081764198    -1.166092815631
    H           -2.158804464418    -0.031684825487     0.256535993927
    H           -1.430110145542    -1.622859296367     0.319946063831

  Mulliken Charges: (a.u.)
   Center  Symbol    Alpha    Beta     Spin     Total
       1     H     0.39531  0.39531  0.00000  0.20938
       2     O     4.20511  4.20511  0.00000 -0.41022
       3     C     2.92057  2.92057  0.00000  0.15886
       4     C     3.14181  3.14181  0.00000 -0.28363
       5     C     3.14815  3.14815  0.00000 -0.29629
       6     H     0.46646  0.46646  0.00000  0.06708
       7     H     0.45372  0.45372  0.00000  0.09256
       8     H     0.44609  0.44609  0.00000  0.10782
       9     H     0.45904  0.45904  0.00000  0.08191
      10     H     0.45051  0.45051  0.00000  0.09898
      11     H     0.45811  0.45811  0.00000  0.08378
      12     H     0.45512  0.45512  0.00000  0.08975

   Total alpha = 17.00000, Total beta = 17.00000, Total charge = -0.00000
