  ==> Input File <==

--------------------------------------------------------------------------
set {
	reference rhf
	basis cc-pvtz
}

set_num_threads( 4 )
memory 2 gb

molecule MOL {
0 1

H	 2.867672	 -0.456275	 0.875795
C	 2.403497	 -0.020426	 0.000000
N	 0.989899	 -0.304564	 0.000000
H	 2.867672	 -0.456275	 -0.875795
H	 2.620366	 1.051270	 0.000000
C	 0.537579	 -0.862401	 1.257693
C	 0.595946	 -1.152778	 -1.105849
H	 1.037200	 -1.811129	 1.476872
H	 0.775881	 -0.173330	 2.059642
C	 -0.961638	 -1.088188	 1.217569
H	 0.877073	 -0.676767	 -2.038109
H	 1.099956	 -2.123347	 -1.064444
C	 -0.904771	 -1.371104	 -1.085244
H	 -1.294025	 -1.588774	 2.116212
H	 -1.471957	 -0.129649	 1.147721
O	 -1.321097	 -1.899601	 0.138892
H	 -1.196052	 -2.076194	 -1.851163
H	 -1.412147	 -0.427206	 -1.274256

	symmetry c1
}
set optking {
	frozen_dihedral = ("
		6 3 2 5
	")
}

ee = optimize('scf')
oeprop('DIPOLE', 'QUADRUPOLE', 'MULLIKEN_CHARGES')
f=open( 'psi4out.xyz', 'w' )
f.write( "18  " )
f.write( str(ee) + "\n" )
f.write( MOL.save_string_xyz() )
f.close()
--------------------------------------------------------------------------

    Molecular point group: c1
  Charge       = 0
  Multiplicity = 1
  Basis Set: CC-PVTZ
  Basis Set:
  @DF-RHF Final Energy:  -325.13924854554654
    Total Energy =                       -325.1392485455465930
    Molecular point group: c1
  Basis Set: CC-PVTZ
  Basis Set:
  Basis Set: CC-PVTZ
  Basis Set:
  @DF-RHF Final Energy:  -325.13980235671892
    Total Energy =                       -325.1398023567189739
  Basis Set: CC-PVTZ
  Basis Set:
  Basis Set: CC-PVTZ
  Basis Set:
  @DF-RHF Final Energy:  -325.13991643161842
    Total Energy =                       -325.1399164316180759
  Basis Set: CC-PVTZ
  Basis Set:
  Charge       = 0
  Multiplicity = 1
  Basis Set: CC-PVTZ
  Basis Set:

    Orbital Energies (a.u.)
    -----------------------

    Doubly Occupied:

       1A    -20.546926     2A    -15.541591     3A    -11.263525
       4A    -11.263501     5A    -11.242390     6A    -11.242331
       7A    -11.238825     8A     -1.385857     9A     -1.229194
      10A     -1.038545    11A     -0.980898    12A     -0.883242
      13A     -0.870484    14A     -0.774120    15A     -0.684334
      16A     -0.645505    17A     -0.644014    18A     -0.631520
      19A     -0.628192    20A     -0.572504    21A     -0.557985
      22A     -0.547754    23A     -0.526873    24A     -0.499969
      25A     -0.483916    26A     -0.453268    27A     -0.409758
      28A     -0.350346

  @DF-RHF Final Energy:  -325.13991815703196

   => Energetics <=

    Nuclear Repulsion Energy =            341.3893636706887946
    One-Electron Energy =               -1118.7838282500090372
    Two-Electron Energy =                 452.2545464222887404
    DFT Exchange-Correlation Energy =       0.0000000000000000
    Empirical Dispersion Energy =           0.0000000000000000
    PCM Polarization Energy =               0.0000000000000000
    EFP Energy =                            0.0000000000000000
    Total Energy =                       -325.1399181570315022
    Molecular point group: c1
  Basis Set: CC-PVTZ
  Basis Set:

  -Total Gradient:
     Atom            X                  Y                   Z
    ------   -----------------  -----------------  -----------------
       1        0.000011942760    -0.000000775621     0.000002331034
       2        0.000095736391    -0.000411987418     0.002011512859
       3       -0.000220400049     0.001703796322     0.000130366419
       4        0.000004655344     0.000012881759     0.000000269727
       5        0.000041342327    -0.000017254913    -0.001699881530
       6        0.000220234936    -0.001228986910    -0.000394381060
       7       -0.000092540998    -0.000040316995    -0.000027854516
       8       -0.000000724698     0.000028843833    -0.000022734929
       9        0.000005260622     0.000001127804    -0.000019947646
      10       -0.000002014722     0.000003574312     0.000033099252
      11        0.000000038891     0.000003623503     0.000021258114
      12       -0.000013936356     0.000036906931     0.000014356152
      13        0.000011576433    -0.000046803348    -0.000062688114
      14       -0.000038813389    -0.000016872246     0.000009055643
      15        0.000005307411    -0.000014969984    -0.000005188833
      16        0.000008116482     0.000027388828     0.000005672877
      17       -0.000053400556    -0.000021797307    -0.000014268067
      18        0.000017619168    -0.000018378548     0.000019022620

  **** Optimization is complete! (in 4 steps) ****
    Final optimized geometry and variables:
    Molecular point group: c1

    Geometry (in Angstrom), charge = 0, multiplicity = 1:

    H            2.731101656689     0.556366658128     0.812871418077
    C            2.224420044286     0.960442782963    -0.058181081098
    N            0.807250607205     0.636700093322    -0.059217700115
    H            2.717093098154     0.548503629494    -0.931518846448
    H            2.381112584965     2.033417567935    -0.076171979980
    C            0.342611398077     0.087409340365     1.197547857032
    C            0.401293379974    -0.203399715771    -1.167469634352
    H            0.827242424309    -0.867767316293     1.421465169513
    H            0.585361457702     0.774147030509     2.000365158007
    C           -1.159731931407    -0.115829370843     1.154684762938
    H            0.684219660777     0.271736579218    -2.099330511584
    H            0.888803999258    -1.182509893882    -1.132670379707
    C           -1.102861748070    -0.397898610125    -1.147591816823
    H           -1.501006918191    -0.611829876157     2.052774468436
    H           -1.655050499103     0.850620208310     1.084782940650
    O           -1.529820932472    -0.920886093630     0.075072491719
    H           -1.404921727977    -1.096859047752    -1.915241170885
    H           -1.593829880166     0.554891835571    -1.335828294508

  Mulliken Charges: (a.u.)
   Center  Symbol    Alpha    Beta     Spin     Total
       1     H     0.46125  0.46125  0.00000  0.07751
       2     C     3.08978  3.08978  0.00000 -0.17955
       3     N     3.61994  3.61994  0.00000 -0.23988
       4     H     0.45918  0.45918  0.00000  0.08164
       5     H     0.44924  0.44924  0.00000  0.10152
       6     C     3.04232  3.04232  0.00000 -0.08464
       7     C     3.04165  3.04165  0.00000 -0.08330
       8     H     0.46859  0.46859  0.00000  0.06281
       9     H     0.45342  0.45342  0.00000  0.09317
      10     C     2.98453  2.98453  0.00000  0.03094
      11     H     0.45360  0.45360  0.00000  0.09281
      12     H     0.46862  0.46862  0.00000  0.06276
      13     C     2.98459  2.98459  0.00000  0.03082
      14     H     0.45013  0.45013  0.00000  0.09973
      15     H     0.46831  0.46831  0.00000  0.06338
      16     O     4.18640  4.18640  0.00000 -0.37280
      17     H     0.45008  0.45008  0.00000  0.09984
      18     H     0.46837  0.46837  0.00000  0.06327

   Total alpha = 28.00000, Total beta = 28.00000, Total charge = -0.00000
