                              Psi4 1.0.54 Driver

  ==> Input File <==

--------------------------------------------------------------------------
set {
	reference rhf
	basis cc-pvtz
}

set_num_threads( 4 )
memory 2 gb

molecule MOL {
0 1

O	 0.240334	 1.006699	 0.701753
C	 0.029490	 0.077183	 0.000078
C	 -1.232113	 -0.748027	 0.000015
O	 0.895500	 -0.367014	 -0.895437
C	 -2.501422	 0.088592	 -0.000052
H	 -1.188777	 -1.400384	 -0.865133
H	 -1.188857	 -1.400312	 0.865225
H	 -2.548170	 0.725504	 -0.873205
H	 -3.371613	 -0.556398	 -0.000040
H	 -2.548215	 0.725571	 0.873047
C	 2.127155	 0.317974	 -1.002483
H	 1.966697	 1.350324	 -1.275875
H	 2.683886	 -0.189084	 -1.773695
H	 2.666430	 0.280759	 -0.067580

	symmetry c1
}
set optking {
	frozen_dihedral = ("
		4 2 3 6
	")
}

ee,wfn = optimize('scf', return_wfn=True)
oeprop( wfn, 'DIPOLE', 'QUADRUPOLE', 'MULLIKEN_CHARGES')
f=open( 'psi4out.xyz', 'w' )
f.write( "14  " )
f.write( str(ee) + "\n" )
f.write( MOL.save_string_xyz() )
f.close()
--------------------------------------------------------------------------

    Molecular point group: c1
  Charge       = 0
  Multiplicity = 1
  Basis Set: CC-PVTZ
  Basis Set:
  @DF-RHF Final Energy:  -305.98586025511133
    Total Energy =                       -305.9858602551115041
    Molecular point group: c1
  Basis Set: CC-PVTZ
  Basis Set:
  Basis Set: CC-PVTZ
  Basis Set:
  @DF-RHF Final Energy:  -305.98619301601116
    Total Energy =                       -305.9861930160111569
  Basis Set: CC-PVTZ
  Basis Set:
  Basis Set: CC-PVTZ
  Basis Set:
  @DF-RHF Final Energy:  -305.98621680466022
    Total Energy =                       -305.9862168046599891
  Basis Set: CC-PVTZ
  Basis Set:
  Basis Set: CC-PVTZ
  Basis Set:
  @DF-RHF Final Energy:  -305.98629162151542
    Total Energy =                       -305.9862916215151358
  Basis Set: CC-PVTZ
  Basis Set:
  Basis Set: CC-PVTZ
  Basis Set:
  @DF-RHF Final Energy:  -305.98632903492910
    Total Energy =                       -305.9863290349288718
  Basis Set: CC-PVTZ
  Basis Set:
  Charge       = 0
  Multiplicity = 1
  Basis Set: CC-PVTZ
  Basis Set:

    Orbital Energies (a.u.)
    -----------------------

    Doubly Occupied:

       1A    -20.599477     2A    -20.532539     3A    -11.365150
       4A    -11.279330     5A    -11.236324     6A    -11.219242
       7A     -1.473631     8A     -1.365847     9A     -1.065324
      10A     -0.981232    11A     -0.880546    12A     -0.773621
      13A     -0.701596    14A     -0.684572    15A     -0.675682
      16A     -0.619367    17A     -0.603366    18A     -0.558153
      19A     -0.540074    20A     -0.519743    21A     -0.514213
      22A     -0.498367    23A     -0.460395    24A     -0.440478

  @DF-RHF Final Energy:  -305.98633000609834

   => Energetics <=

    Nuclear Repulsion Energy =            247.6055344264794087
    One-Electron Energy =                -908.0071917196567028
    Two-Electron Energy =                 354.4153272870789806
    DFT Exchange-Correlation Energy =       0.0000000000000000
    Empirical Dispersion Energy =           0.0000000000000000
    PCM Polarization Energy =               0.0000000000000000
    EFP Energy =                            0.0000000000000000
    Total Energy =                       -305.9863300060983420
    Molecular point group: c1
  Basis Set: CC-PVTZ
  Basis Set:

  -Total Gradient:
     Atom            X                  Y                   Z
    ------   -----------------  -----------------  -----------------
       1        0.000002442078    -0.000084144768    -0.000112555132
       2        0.000472571374    -0.000860341635     0.001036601037
       3       -0.000731868712     0.001203852388    -0.000914863247
       4       -0.000352816157     0.000672859610    -0.000632634099
       5       -0.000023353332    -0.000001173228     0.000013322370
       6        0.000565217916    -0.000756259127     0.000630031832
       7       -0.000022358632    -0.000104505786    -0.000014310714
       8        0.000010005108    -0.000001547278     0.000004439363
       9       -0.000023243506    -0.000005331395    -0.000000272662
      10       -0.000048556986     0.000047388729     0.000019095978
      11        0.000109117894    -0.000169111322     0.000047178353
      12       -0.000055606022    -0.000000579422     0.000000903126
      13        0.000083697795     0.000031130344    -0.000042222921
      14        0.000014751179     0.000027762887    -0.000034713282

  **** Optimization is complete! (in 6 steps) ****
    Final optimized geometry and variables:
    Molecular point group: c1

    Geometry (in Angstrom), charge = 0, multiplicity = 1:

    O            0.254822385694     0.962413596295     0.857079109614
    C            0.065768154057     0.002763576470     0.189162689727
    C           -1.217121468777    -0.791930540049     0.186790552244
    O            0.971288929832    -0.496109553656    -0.633304797784
    C           -2.452658576362     0.099962411692     0.119546830532
    H           -1.192495869624    -1.508038295912    -0.621703427297
    H           -1.222897503440    -1.357620454554     1.113289753572
    H           -2.482701986748     0.655683002604    -0.810318131004
    H           -3.350683035993    -0.502107446960     0.178610369888
    H           -2.457975643921     0.809222128623     0.935010645914
    C            2.227652161586     0.150952512146    -0.683006298559
    H            2.113975949409     1.177206806579    -0.998787371633
    H            2.816681624627    -0.397070927659    -1.400376847827
    H            2.704899627484     0.131016467934     0.285418801394

  Mulliken Charges: (a.u.)
   Center  Symbol    Alpha    Beta     Spin     Total
       1     O     4.20261  4.20261  0.00000 -0.40523
       2     C     2.80597  2.80597  0.00000  0.38805
       3     C     3.08715  3.08715  0.00000 -0.17429
       4     O     4.14374  4.14374  0.00000 -0.28748
       5     C     3.14366  3.14366  0.00000 -0.28732
       6     H     0.43849  0.43849  0.00000  0.12302
       7     H     0.44648  0.44648  0.00000  0.10704
       8     H     0.45339  0.45339  0.00000  0.09321
       9     H     0.44961  0.44961  0.00000  0.10078
      10     H     0.44157  0.44157  0.00000  0.11686
      11     C     3.03383  3.03383  0.00000 -0.06767
      12     H     0.45395  0.45395  0.00000  0.09210
      13     H     0.44521  0.44521  0.00000  0.10959
      14     H     0.45433  0.45433  0.00000  0.09133

   Total alpha = 24.00000, Total beta = 24.00000, Total charge = -0.00000

*** Psi4 exiting successfully. Buy a developer a beer!
