  ==> Input File <==

--------------------------------------------------------------------------
set {
	reference rhf
	basis 6-31G*
}

set_num_threads( 4 )
memory 2 gb

molecule MOL {
0 1

H	 -1.275846	 1.440320	 -0.448362
C	 -0.683696	 0.529936	 -0.552509
N	 0.538815	 0.649616	 0.000000
O	 -1.109959	 -0.442254	 -1.102376
C	 1.521968	 -0.411503	 0.000000
H	 0.770148	 1.516270	 0.428579
H	 2.150599	 -0.357004	 -0.881901
H	 0.999455	 -1.354525	 0.000000
H	 2.150599	 -0.357004	 0.881901

	symmetry c1
}
set optking {
	frozen_dihedral = ("
		6 3 5 7
	")
}

ee = optimize('scf')
oeprop('DIPOLE', 'QUADRUPOLE', 'MULLIKEN_CHARGES')
f=open( 'psi4out.xyz', 'w' )
f.write( "9  " )
f.write( str(ee) + "\n" )
f.write( MOL.save_string_xyz() )
f.close()
--------------------------------------------------------------------------

    Molecular point group: c1
  Charge       = 0
  Multiplicity = 1
  Basis Set: 6-31G*
  Basis Set:
  @DF-RHF Final Energy:  -207.96077196354531
    Total Energy =                       -207.9607719635453122
    Molecular point group: c1
  Basis Set: 6-31G*
  Basis Set:
  Basis Set: 6-31G*
  Basis Set:
  @DF-RHF Final Energy:  -207.96095099817867
    Total Energy =                       -207.9609509981786459
  Basis Set: 6-31G*
  Basis Set:
  Basis Set: 6-31G*
  Basis Set:
  @DF-RHF Final Energy:  -207.96093686017565
    Total Energy =                       -207.9609368601757069
  Basis Set: 6-31G*
  Basis Set:
  Basis Set: 6-31G*
  Basis Set:
  @DF-RHF Final Energy:  -207.96102752082061
    Total Energy =                       -207.9610275208205508
  Basis Set: 6-31G*
  Basis Set:
  Basis Set: 6-31G*
  Basis Set:
  @DF-RHF Final Energy:  -207.96106292294837
    Total Energy =                       -207.9610629229483720
  Basis Set: 6-31G*
  Basis Set:
  Charge       = 0
  Multiplicity = 1
  Basis Set: 6-31G*
  Basis Set:

    Orbital Energies (a.u.)
    -----------------------

    Doubly Occupied:

       1A    -20.526185     2A    -15.590587     3A    -11.343316
       4A    -11.260889     5A     -1.389386     6A     -1.236236
       7A     -0.967941     8A     -0.807730     9A     -0.746490
      10A     -0.641323    11A     -0.626733    12A     -0.592620
      13A     -0.556811    14A     -0.534008    15A     -0.424073
      16A     -0.391243

  @DF-RHF Final Energy:  -207.96106774114429

   => Energetics <=

    Nuclear Repulsion Energy =            122.6286771619616616
    One-Electron Energy =                -525.9083505127172202
    Two-Electron Energy =                 195.3186056096113248
    DFT Exchange-Correlation Energy =       0.0000000000000000
    Empirical Dispersion Energy =           0.0000000000000000
    PCM Polarization Energy =               0.0000000000000000
    EFP Energy =                            0.0000000000000000
    Total Energy =                       -207.9610677411442339
    Molecular point group: c1
  Basis Set: 6-31G*
  Basis Set:

  -Total Gradient:
     Atom            X                  Y                   Z
    ------   -----------------  -----------------  -----------------
       1       -0.000033650000    -0.000059074563    -0.000018400407
       2        0.000293958008     0.000137333262     0.000175016930
       3       -0.000187252545     0.000141495194    -0.000033698990
       4       -0.000161460557    -0.000177238386    -0.000153309676
       5       -0.000064470300    -0.000108140731     0.000122317537
       6        0.000098512853    -0.000056502693    -0.000024871063
       7        0.000009541649     0.000068256754    -0.000013985223
       8       -0.000012101680     0.000056420942    -0.000032978221
       9        0.000056922571    -0.000002549778    -0.000020090887

  **** Optimization is complete! (in 6 steps) ****
    Final optimized geometry and variables:
    Molecular point group: c1

    Geometry (in Angstrom), charge = 0, multiplicity = 1:

    H           -1.366624086558     1.362223023611    -0.041088454539
    C           -0.759070075936     0.462264349252    -0.147950609712
    N            0.427381690453     0.557267138105     0.481222660976
    O           -1.142165408029    -0.494453835084    -0.754081169128
    C            1.419289242679    -0.494813492648     0.418213123320
    H            0.680195465327     1.434108915505     0.874593137385
    H            1.983504257909    -0.463988194084    -0.508105465108
    H            0.927365583125    -1.453218709495     0.488402441300
    H            2.103245237106    -0.387091592087     1.249768060415

  Mulliken Charges: (a.u.)
   Center  Symbol    Alpha    Beta     Spin     Total
       1     H     0.42699  0.42699  0.00000  0.14602
       2     C     2.74683  2.74683  0.00000  0.50634
       3     N     3.87420  3.87420  0.00000 -0.74841
       4     O     4.28320  4.28320  0.00000 -0.56639
       5     C     3.13927  3.13927  0.00000 -0.27854
       6     H     0.30880  0.30880  0.00000  0.38240
       7     H     0.41134  0.41134  0.00000  0.17733
       8     H     0.39439  0.39439  0.00000  0.21122
       9     H     0.41498  0.41498  0.00000  0.17004

   Total alpha = 16.00000, Total beta = 16.00000, Total charge = -0.00000
