                              Psi4 1.0.54 Driver

  ==> Input File <==

--------------------------------------------------------------------------
set {
	reference rhf
	basis cc-pvtz
}

set_num_threads( 4 )
memory 2 gb

molecule MOL {
0 1

H	 2.596094	 2.235623	 -4.544728
C	 2.942961	 2.024375	 -3.539778
C	 1.788072	 2.036288	 -2.544080
H	 3.432339	 1.056655	 -3.555376
H	 3.690142	 2.768878	 -3.284365
C	 2.241366	 1.752762	 -1.113658
H	 1.051085	 1.299560	 -2.842446
H	 1.294896	 3.005023	 -2.578021
C	 1.107179	 1.764471	 -0.093673
H	 2.740143	 0.792253	 -1.075281
H	 2.972106	 2.500455	 -0.819113
C	 0.166485	 0.574257	 -0.177158
H	 1.516836	 1.755450	 0.913236
H	 0.527726	 2.680103	 -0.166953
C	 -1.180025	 0.697761	 0.509157
O	 0.474964	 -0.426853	 -0.739204
C	 -2.285431	 -0.137488	 -0.145671
H	 -1.447360	 1.745713	 0.496200
H	 -1.065514	 0.394096	 1.546399
C	 -3.646545	 0.082747	 0.508954
H	 -2.348635	 0.118247	 -1.199806
H	 -2.034895	 -1.192387	 -0.096473
C	 -4.757412	 -0.737227	 -0.138149
H	 -3.900211	 1.137405	 0.459735
H	 -3.580878	 -0.166775	 1.564416
H	 -4.867876	 -0.486707	 -1.187777
H	 -4.549650	 -1.800049	 -0.072540
H	 -5.709585	 -0.556397	 0.346597

	symmetry c1
}
set optking {
	frozen_dihedral = ("
		16 12 15 17
	")
}

ee,wfn = optimize('scf', return_wfn=True)
oeprop( wfn, 'DIPOLE', 'QUADRUPOLE', 'MULLIKEN_CHARGES')
f=open( 'psi4out.xyz', 'w' )
f.write( "28  " )
f.write( str(ee) + "\n" )
f.write( MOL.save_string_xyz() )
f.close()
--------------------------------------------------------------------------

    Molecular point group: c1
  Charge       = 0
  Multiplicity = 1
  Basis Set: CC-PVTZ
  Basis Set:
  @DF-RHF Final Energy:  -426.31989458569660
    Total Energy =                       -426.3198945856966020
    Molecular point group: c1
  Basis Set: CC-PVTZ
  Basis Set:
  Basis Set: CC-PVTZ
  Basis Set:
  @DF-RHF Final Energy:  -426.30827392461867
    Total Energy =                       -426.3082739246190158
  Basis Set: CC-PVTZ
  Basis Set:
  Basis Set: CC-PVTZ
  Basis Set:
  @DF-RHF Final Energy:  -426.31968619294662
    Total Energy =                       -426.3196861929463921
  Basis Set: CC-PVTZ
  Basis Set:
  Basis Set: CC-PVTZ
  Basis Set:
  @DF-RHF Final Energy:  -426.32038408960364
    Total Energy =                       -426.3203840896037491
  Basis Set: CC-PVTZ
  Basis Set:
  @DF-RHF Final Energy:  -426.32104217815026
    Total Energy =                       -426.3210421781502646
  @DF-RHF Final Energy:  -426.32117352766625
    Total Energy =                       -426.3211735276657919
  @DF-RHF Final Energy:  -426.32112513626203
    Total Energy =                       -426.3211251362620260
  Basis Set: CC-PVTZ
  Basis Set:
  @DF-RHF Final Energy:  -426.32120964801334
    Total Energy =                       -426.3212096480128821
  Basis Set: CC-PVTZ
  Basis Set:
  Basis Set: CC-PVTZ
  Basis Set:
  @DF-RHF Final Energy:  -426.32121085734627
    Total Energy =                       -426.3212108573467276
  Basis Set: CC-PVTZ
  Basis Set:
  Basis Set: CC-PVTZ
  Basis Set:
  @DF-RHF Final Energy:  -426.32121345634062
    Total Energy =                       -426.3212134563407290
  Basis Set: CC-PVTZ
  Basis Set:
  Charge       = 0
  Multiplicity = 1
  Basis Set: CC-PVTZ
  Basis Set:

    Orbital Energies (a.u.)
    -----------------------

    Doubly Occupied:

       1A    -20.537620     2A    -11.318270     3A    -11.229577
       4A    -11.228490     5A    -11.217870     6A    -11.216568
       7A    -11.214920     8A    -11.209186     9A    -11.208500
      10A    -11.203146    11A     -1.398398    12A     -1.089770
      13A     -1.078473    14A     -1.023193    15A     -0.991343
      16A     -0.911330    17A     -0.865868    18A     -0.805713
      19A     -0.793232    20A     -0.725691    21A     -0.670679
      22A     -0.654836    23A     -0.629631    24A     -0.618336
      25A     -0.609757    26A     -0.584239    27A     -0.579241
      28A     -0.574221    29A     -0.535604    30A     -0.533070
      31A     -0.518859    32A     -0.508612    33A     -0.494812
      34A     -0.482351    35A     -0.475201    36A     -0.470557
      37A     -0.468723    38A     -0.465629    39A     -0.457968
      40A     -0.395205

  @DF-RHF Final Energy:  -426.32121358931533

   => Energetics <=

    Nuclear Repulsion Energy =            530.2961816069986298
    One-Electron Energy =               -1629.2454121813757411
    Two-Electron Energy =                 672.6280169850620041
    DFT Exchange-Correlation Energy =       0.0000000000000000
    Empirical Dispersion Energy =           0.0000000000000000
    PCM Polarization Energy =               0.0000000000000000
    EFP Energy =                            0.0000000000000000
    Total Energy =                       -426.3212135893149934
    Molecular point group: c1
  Basis Set: CC-PVTZ
  Basis Set:

  -Total Gradient:
     Atom            X                  Y                   Z
    ------   -----------------  -----------------  -----------------
       1       -0.000003196590     0.000000221578     0.000003128054
       2       -0.000004324762    -0.000000363268     0.000012979158
       3       -0.000008585678     0.000003253331    -0.000003530567
       4       -0.000000361122    -0.000000500492    -0.000000746266
       5       -0.000000534069    -0.000000891158     0.000000402088
       6       -0.000006900382    -0.000013219198     0.000009416674
       7        0.000004580431     0.000000508743    -0.000003589362
       8       -0.000001487784     0.000002520926    -0.000001175353
       9        0.000006986785     0.000022629415    -0.000026189150
      10        0.000002336914    -0.000007263420     0.000001094518
      11       -0.000002647231    -0.000003397722     0.000007952950
      12       -0.000759328363     0.001155470107    -0.000976332506
      13        0.000004917150    -0.000002366666    -0.000010531231
      14        0.000001555735     0.000011416451     0.000002256818
      15        0.000453746962    -0.001234012634     0.000563971717
      16        0.000496578318    -0.000621735579     0.000641979387
      17       -0.000179062182     0.000689014206    -0.000206902695
      18        0.000001293014    -0.000000372097     0.000000520317
      19        0.000000215183     0.000002669838    -0.000004348016
      20        0.000007192486     0.000009325104    -0.000011345269
      21       -0.000002791126    -0.000004853913     0.000007863207
      22       -0.000004121816    -0.000001079171    -0.000001407949
      23       -0.000013565852    -0.000005356576     0.000004022530
      24        0.000005265414     0.000000659065     0.000002476586
      25        0.000002517600     0.000001719440    -0.000005844408
      26        0.000001878979    -0.000002489657     0.000001588468
      27       -0.000003226943    -0.000000192238    -0.000002125185
      28        0.000001068926    -0.000001314416    -0.000005584517

  **** Optimization is complete! (in 11 steps) ****
    Final optimized geometry and variables:
    Molecular point group: c1

    Geometry (in Angstrom), charge = 0, multiplicity = 1:

    H            3.420233069234     1.755985532992    -3.558276022517
    C            3.623134561463     1.319951758766    -2.586901904505
    C            2.390005910508     1.372152159826    -1.691523395325
    H            3.945433431867     0.296493309426    -2.745073005184
    H            4.452956980173     1.863905009443    -2.146991918047
    C            2.644285161280     0.780464042001    -0.306562288264
    H            1.576608395821     0.838905307556    -2.167692516318
    H            2.068902543502     2.405649731835    -1.583500178603
    C            1.430034106753     0.815731444050     0.615347286310
    H            2.983372841998    -0.243925628864    -0.407427768731
    H            3.449470718573     1.332560062646     0.169593572126
    C            0.354937306233    -0.209988273004     0.313120890641
    H            1.728855174390     0.651864408458     1.648460498206
    H            0.964305026080     1.798086306890     0.604738375416
    C           -0.840966950689    -0.218361364163     1.248997997909
    O            0.457881499939    -0.999388197134    -0.568952678510
    C           -2.125108088484    -0.731932834604     0.607257705571
    H           -0.987286138147     0.775664323678     1.658436013993
    H           -0.561786406106    -0.850989752208     2.089579327400
    C           -3.293317236068    -0.785684888434     1.587391364689
    H           -2.384562859858    -0.091879861774    -0.231170996019
    H           -1.944912301984    -1.715504475595     0.192386039179
    C           -4.581806372428    -1.290069732790     0.946460980374
    H           -3.463264428248     0.202810442410     2.006220947793
    H           -3.031717222446    -1.429166046101     2.423266880836
    H           -4.889243136028    -0.647176461138     0.128526069909
    H           -4.453772981459    -2.290755993221     0.548156312557
    H           -5.392042040761    -1.320617364868     1.665746024913

  Mulliken Charges: (a.u.)
   Center  Symbol    Alpha    Beta     Spin     Total
       1     H     0.44872  0.44872  0.00000  0.10256
       2     C     3.15173  3.15173  0.00000 -0.30346
       3     C     3.08378  3.08378  0.00000 -0.16756
       4     H     0.45219  0.45219  0.00000  0.09561
       5     H     0.45732  0.45732  0.00000  0.08536
       6     C     3.08726  3.08726  0.00000 -0.17453
       7     H     0.44351  0.44351  0.00000  0.11298
       8     H     0.45893  0.45893  0.00000  0.08214
       9     C     3.12176  3.12176  0.00000 -0.24352
      10     H     0.44661  0.44661  0.00000  0.10678
      11     H     0.44793  0.44793  0.00000  0.10414
      12     C     2.87517  2.87517  0.00000  0.24967
      13     H     0.43518  0.43518  0.00000  0.12964
      14     H     0.44328  0.44328  0.00000  0.11344
      15     C     3.09921  3.09921  0.00000 -0.19842
      16     O     4.17820  4.17820  0.00000 -0.35640
      17     C     3.08284  3.08284  0.00000 -0.16569
      18     H     0.44556  0.44556  0.00000  0.10888
      19     H     0.44483  0.44483  0.00000  0.11034
      20     C     3.08665  3.08665  0.00000 -0.17330
      21     H     0.45277  0.45277  0.00000  0.09447
      22     H     0.43988  0.43988  0.00000  0.12024
      23     C     3.14964  3.14964  0.00000 -0.29927
      24     H     0.45600  0.45600  0.00000  0.08800
      25     H     0.45461  0.45461  0.00000  0.09077
      26     H     0.45462  0.45462  0.00000  0.09076
      27     H     0.45322  0.45322  0.00000  0.09355
      28     H     0.44859  0.44859  0.00000  0.10282

   Total alpha = 40.00000, Total beta = 40.00000, Total charge = -0.00000

*** Psi4 exiting successfully. Buy a developer a beer!
