  ==> Input File <==

--------------------------------------------------------------------------
set {
	reference rhf
	basis cc-pvtz
}

set_num_threads( 4 )
memory 2 gb

molecule MOL {
0 1

H	 1.657262	 -0.487393	 1.820863
C	 1.848746	 -0.115982	 0.805461
C	 0.692262	 0.592428	 0.156232
O	 2.903978	 -0.289652	 0.301519
C	 -0.554654	 -0.292621	 0.086567
H	 0.999304	 0.919107	 -0.828574
H	 0.474980	 1.475698	 0.753309
C	 -1.846385	 0.513195	 -0.016346
H	 -0.473986	 -0.956115	 -0.769708
H	 -0.597929	 -0.929215	 0.966651
C	 -3.089953	 -0.365049	 -0.098564
H	 -1.798267	 1.154820	 -0.891143
H	 -1.925398	 1.173265	 0.842889
H	 -3.055079	 -1.012299	 -0.968245
H	 -3.988403	 0.236438	 -0.170014
H	 -3.183055	 -0.995885	 0.779079

	symmetry c1
}
set optking {
	frozen_dihedral = ("
		6 3 5 9
	")
}

ee = optimize('scf')
oeprop('DIPOLE', 'QUADRUPOLE', 'MULLIKEN_CHARGES')
f=open( 'psi4out.xyz', 'w' )
f.write( "16  " )
f.write( str(ee) + "\n" )
f.write( MOL.save_string_xyz() )
f.close()
--------------------------------------------------------------------------

    Molecular point group: c1
  Charge       = 0
  Multiplicity = 1
  Basis Set: CC-PVTZ
  Basis Set:
  @DF-RHF Final Energy:  -270.11786358842232
    Total Energy =                       -270.1178635884224377
    Molecular point group: c1
  Basis Set: CC-PVTZ
  Basis Set:
  Basis Set: CC-PVTZ
  Basis Set:
  @DF-RHF Final Energy:  -270.11797127904032
    Total Energy =                       -270.1179712790401481
  Basis Set: CC-PVTZ
  Basis Set:
  Basis Set: CC-PVTZ
  Basis Set:
  @DF-RHF Final Energy:  -270.11772935351371
    Total Energy =                       -270.1177293535138233
  Basis Set: CC-PVTZ
  Basis Set:
  Basis Set: CC-PVTZ
  Basis Set:
  @DF-RHF Final Energy:  -270.11800893797471
    Total Energy =                       -270.1180089379747074
  Basis Set: CC-PVTZ
  Basis Set:
  Basis Set: CC-PVTZ
  Basis Set:
  @DF-RHF Final Energy:  -270.11801524023588
    Total Energy =                       -270.1180152402357635
  Basis Set: CC-PVTZ
  Basis Set:
  Basis Set: CC-PVTZ
  Basis Set:
  @DF-RHF Final Energy:  -270.11801641697230
    Total Energy =                       -270.1180164169721820
  Basis Set: CC-PVTZ
  Basis Set:
  Charge       = 0
  Multiplicity = 1
  Basis Set: CC-PVTZ
  Basis Set:

    Orbital Energies (a.u.)
    -----------------------

    Doubly Occupied:

       1A    -20.552106     2A    -11.321230     3A    -11.234722
       4A    -11.234053     5A    -11.227558     6A    -11.216729
       7A     -1.407024     8A     -1.097480     9A     -1.019935
      10A     -0.906966    11A     -0.813107    12A     -0.793907
      13A     -0.679445    14A     -0.652115    15A     -0.630397
      16A     -0.605090    17A     -0.581985    18A     -0.554907
      19A     -0.531773    20A     -0.509590    21A     -0.487234
      22A     -0.482503    23A     -0.480838    24A     -0.411329

  @DF-RHF Final Energy:  -270.11801673766757

   => Energetics <=

    Nuclear Repulsion Energy =            229.3237426257995821
    One-Electron Energy =                -820.0194765621447459
    Two-Electron Energy =                 320.5777171986776466
    DFT Exchange-Correlation Energy =       0.0000000000000000
    Empirical Dispersion Energy =           0.0000000000000000
    PCM Polarization Energy =               0.0000000000000000
    EFP Energy =                            0.0000000000000000
    Total Energy =                       -270.1180167376675172
    Molecular point group: c1
  Basis Set: CC-PVTZ
  Basis Set:

  -Total Gradient:
     Atom            X                  Y                   Z
    ------   -----------------  -----------------  -----------------
       1       -0.000001576540    -0.000018554605    -0.000004283607
       2        0.000048371718     0.000011454954     0.000027667245
       3       -0.002802876728     0.003809426707    -0.000100887025
       4       -0.000003815609     0.000010825370     0.000004111411
       5        0.002341634782    -0.003357441532     0.002213042405
       6        0.001903186290    -0.002667190523    -0.000270788629
       7        0.000013379955     0.000002651986     0.000000709061
       8       -0.000015372975     0.000012423023    -0.000004314950
       9       -0.001482374042     0.002183261731    -0.001856831380
      10       -0.000000278864     0.000011624358    -0.000010583203
      11       -0.000000481384     0.000002837558     0.000002769644
      12       -0.000001014532    -0.000005573560    -0.000001038263
      13        0.000003899645     0.000006994231    -0.000001210094
      14       -0.000001386481    -0.000000066836    -0.000000946347
      15       -0.000002509627    -0.000001198905     0.000003329330
      16        0.000001214395    -0.000001473957    -0.000000745596

  **** Optimization is complete! (in 7 steps) ****
    Final optimized geometry and variables:
    Molecular point group: c1

    Geometry (in Angstrom), charge = 0, multiplicity = 1:

    H            1.714612142883    -0.472883621156     1.612838432975
    C            1.874238678341    -0.114400827965     0.587160680359
    C            0.702421017899     0.603910576470    -0.026692478720
    O            2.907572060948    -0.307870801934     0.046799020886
    C           -0.546962451519    -0.285056862973    -0.071294727693
    H            0.998567086515     0.917650435154    -1.018467932502
    H            0.509275381407     1.484850092245     0.580453543420
    C           -1.840022603263     0.517265707036    -0.203883286757
    H           -0.468593935516    -0.956295480344    -0.920238421531
    H           -0.599825257270    -0.901762121477     0.821817681886
    C           -3.078487786665    -0.364605144117    -0.315740968407
    H           -1.773285416337     1.159906587401    -1.077169216817
    H           -1.941007849725     1.176626561200     0.653507519093
    H           -3.023868643178    -1.007856687783    -1.187381565624
    H           -3.977644452781     0.233854355021    -0.402430600462
    H           -3.186904417104    -1.000045728583     0.556908372139

  Mulliken Charges: (a.u.)
   Center  Symbol    Alpha    Beta     Spin     Total
       1     H     0.46623  0.46623  0.00000  0.06753
       2     C     2.90637  2.90637  0.00000  0.18726
       3     C     3.07872  3.07872  0.00000 -0.15744
       4     O     4.16420  4.16420  0.00000 -0.32840
       5     C     3.10163  3.10163  0.00000 -0.20327
       6     H     0.44172  0.44172  0.00000  0.11655
       7     H     0.45019  0.45019  0.00000  0.09961
       8     C     3.08546  3.08546  0.00000 -0.17091
       9     H     0.44509  0.44509  0.00000  0.10982
      10     H     0.45201  0.45201  0.00000  0.09598
      11     C     3.14924  3.14924  0.00000 -0.29848
      12     H     0.45098  0.45098  0.00000  0.09805
      13     H     0.45381  0.45381  0.00000  0.09239
      14     H     0.45323  0.45323  0.00000  0.09353
      15     H     0.44670  0.44670  0.00000  0.10659
      16     H     0.45441  0.45441  0.00000  0.09118

   Total alpha = 24.00000, Total beta = 24.00000, Total charge = -0.00000
