  ==> Input File <==

--------------------------------------------------------------------------
set {
	reference rhf
	basis cc-pvtz
}

set_num_threads( 4 )
memory 2 gb

molecule MOL {
0 1

H	 1.651322	 -0.822465	 0.000000
O	 0.729993	 -1.034364	 0.000000
C	 0.037305	 0.100061	 0.000000
C	 0.150110	 0.827570	 -1.306171
O	 -0.583880	 0.462330	 0.937916
H	 1.190155	 1.049553	 -1.507417
H	 -0.424214	 1.738077	 -1.263114
H	 -0.211738	 0.193548	 -2.105265

	symmetry c1
}
set optking {
	frozen_dihedral = ("
		4 3 2 1
	")
}

ee = optimize('scf')
oeprop('DIPOLE', 'QUADRUPOLE', 'MULLIKEN_CHARGES')
f=open( 'psi4out.xyz', 'w' )
f.write( "8  " )
f.write( str(ee) + "\n" )
f.write( MOL.save_string_xyz() )
f.close()
--------------------------------------------------------------------------

    Molecular point group: c1
  Charge       = 0
  Multiplicity = 1
  Basis Set: CC-PVTZ
  Basis Set:
  @DF-RHF Final Energy:  -227.88353997154474
    Total Energy =                       -227.8835399715447352
    Molecular point group: c1
  Basis Set: CC-PVTZ
  Basis Set:
  Basis Set: CC-PVTZ
  Basis Set:
  @DF-RHF Final Energy:  -227.88403918606480
    Total Energy =                       -227.8840391860647969
  Basis Set: CC-PVTZ
  Basis Set:
  Basis Set: CC-PVTZ
  Basis Set:
  @DF-RHF Final Energy:  -227.88442905689666
    Total Energy =                       -227.8844290568967494
  Basis Set: CC-PVTZ
  Basis Set:
  Basis Set: CC-PVTZ
  Basis Set:
  @DF-RHF Final Energy:  -227.88551101814608
    Total Energy =                       -227.8855110181460475
  Basis Set: CC-PVTZ
  Basis Set:
  @DF-RHF Final Energy:  -227.88552918988660
    Total Energy =                       -227.8855291898866540
  @DF-RHF Final Energy:  -227.88553796487224
    Total Energy =                       -227.8855379648722703
  Basis Set: CC-PVTZ
  Basis Set:
  @DF-RHF Final Energy:  -227.88554074449002
    Total Energy =                       -227.8855407444900720
  Basis Set: CC-PVTZ
  Basis Set:
  Basis Set: CC-PVTZ
  Basis Set:
  @DF-RHF Final Energy:  -227.88549684474225
    Total Energy =                       -227.8854968447423914
  Basis Set: CC-PVTZ
  Basis Set:
  Basis Set: CC-PVTZ
  Basis Set:
  @DF-RHF Final Energy:  -227.88554006512877
    Total Energy =                       -227.8855400651287653
  Basis Set: CC-PVTZ
  Basis Set:
  Charge       = 0
  Multiplicity = 1
  Basis Set: CC-PVTZ
  Basis Set:

    Orbital Energies (a.u.)
    -----------------------

    Doubly Occupied:

       1A    -20.592023     2A    -20.550213     3A    -11.378672
       4A    -11.244129     5A     -1.466615     6A     -1.374408
       7A     -1.024596     8A     -0.832737     9A     -0.714959
      10A     -0.670918    11A     -0.665363    12A     -0.596757
      13A     -0.577608    14A     -0.521728    15A     -0.500055
      16A     -0.453260

  @DF-RHF Final Energy:  -227.88554014711417

   => Energetics <=

    Nuclear Repulsion Energy =            122.1200291528541442
    One-Electron Energy =                -553.6830526039173037
    Two-Electron Energy =                 203.6774833039489181
    DFT Exchange-Correlation Energy =       0.0000000000000000
    Empirical Dispersion Energy =           0.0000000000000000
    PCM Polarization Energy =               0.0000000000000000
    EFP Energy =                            0.0000000000000000
    Total Energy =                       -227.8855401471142272
    Molecular point group: c1
  Basis Set: CC-PVTZ
  Basis Set:

  -Total Gradient:
     Atom            X                  Y                   Z
    ------   -----------------  -----------------  -----------------
       1       -0.000094931805     0.000043776870     0.004478281149
       2       -0.000778699348    -0.000797516974    -0.005930831903
       3        0.003066273736     0.002151245764     0.002084754832
       4       -0.002316601586    -0.001442108517    -0.001015578606
       5        0.000012463179     0.000042714939     0.000296321387
       6        0.000063471697     0.000004923742     0.000006927504
       7       -0.000000584796    -0.000044474227     0.000085162747
       8        0.000048608923     0.000041438401    -0.000005037112

  **** Optimization is complete! (in 10 steps) ****
    Final optimized geometry and variables:
    Molecular point group: c1

    Geometry (in Angstrom), charge = 0, multiplicity = 1:

    H            1.582471254751    -0.953609916603     0.139516881153
    O            0.652400393663    -1.106822680447     0.133599546336
    C           -0.056956696294     0.047670325631     0.094259246314
    C            0.034188970817     0.782881808692    -1.214267402636
    O           -0.746063973221     0.364687730199     0.989003046386
    H            1.067749882775     0.990185118934    -1.467299983036
    H           -0.522897577562     1.703892202580    -1.159717184110
    H           -0.369723175619     0.148510833342    -1.993272271467

  Mulliken Charges: (a.u.)
   Center  Symbol    Alpha    Beta     Spin     Total
       1     H     0.38870  0.38870  0.00000  0.22259
       2     O     4.16659  4.16659  0.00000 -0.33318
       3     C     2.80856  2.80856  0.00000  0.38288
       4     C     3.13985  3.13985  0.00000 -0.27969
       5     O     4.16138  4.16138  0.00000 -0.32275
       6     H     0.45605  0.45605  0.00000  0.08791
       7     H     0.43722  0.43722  0.00000  0.12556
       8     H     0.44166  0.44166  0.00000  0.11668

   Total alpha = 16.00000, Total beta = 16.00000, Total charge = -0.00000
