  ==> Input File <==

--------------------------------------------------------------------------
set {
	reference rhf
	basis 6-31G*
}

set_num_threads( 1 )
memory 2 gb

molecule MOL {
0 1

H	 -2.499100	 -0.730091	 -0.745082
O	 -2.347518	 -0.290803	 0.079804
C	 -1.184022	 0.487508	 -0.006784
C	 0.062599	 -0.378592	 0.031606
H	 -1.176523	 1.099369	 -0.904519
H	 -1.187323	 1.153111	 0.844927
O	 1.171513	 0.459272	 -0.058250
H	 0.050699	 -1.089204	 -0.797170
H	 0.078739	 -0.954914	 0.954740
C	 2.382027	 -0.203205	 -0.245122
H	 2.382923	 -0.777020	 -1.169982
H	 3.159848	 0.545938	 -0.296909
H	 2.596658	 -0.878692	 0.580374

	symmetry c1
}
set optking {
	frozen_dihedral = ("
		8 4 3 5,
		1 2 3 5,
		4 7 10 13
	")
}

ee = energy('scf')
oeprop('DIPOLE', 'QUADRUPOLE', 'MULLIKEN_CHARGES')
f=open( 'psi4out.xyz', 'w' )
f.write( "13  " )
f.write( str(ee) + "\n" )
f.write( MOL.save_string_xyz() )
f.close()
--------------------------------------------------------------------------

    Molecular point group: c1

    Geometry (in Angstrom), charge = 0, multiplicity = 1:

       Center              X                  Y                   Z               Mass
    ------------   -----------------  -----------------  -----------------  -----------------
           H         -2.495809123853    -0.729024758030    -0.694531777354     1.007825032070
           O         -2.344227123853    -0.289736758030     0.130354222646    15.994914619560
           C         -1.180731123853     0.488574241970     0.043766222646    12.000000000000
           C          0.065889876147    -0.377525758030     0.082156222646    12.000000000000
           H         -1.173232123853     1.100435241970    -0.853968777354     1.007825032070
           H         -1.184032123853     1.154177241970     0.895477222646     1.007825032070
           O          1.174803876147     0.460338241970    -0.007699777354    15.994914619560
           H          0.053989876147    -1.088137758030    -0.746619777354     1.007825032070
           H          0.082029876147    -0.953847758030     1.005290222646     1.007825032070
           C          2.385317876147    -0.202138758030    -0.194571777354    12.000000000000
           H          2.386213876147    -0.775953758030    -1.119431777354     1.007825032070
           H          3.163138876147     0.547004241970    -0.246358777354     1.007825032070
           H          2.599948876147    -0.877625758030     0.630924222646     1.007825032070

  Charge       = 0
  Multiplicity = 1
  Basis Set: 6-31G*
  Basis Set:

    Orbital Energies (a.u.)
    -----------------------

    Doubly Occupied:

       1A    -20.562447     2A    -20.560161     3A    -11.270883
       4A    -11.270582     5A    -11.268939     6A     -1.389028
       7A     -1.365243     8A     -1.018579     9A     -0.913605
      10A     -0.842062    11A     -0.709832    12A     -0.673157
      13A     -0.661176    14A     -0.638696    15A     -0.594464
      16A     -0.567842    17A     -0.548797    18A     -0.489805
      19A     -0.480136    20A     -0.440489    21A     -0.420900

  @DF-RHF Final Energy:  -267.95034348213915

   => Energetics <=

    Nuclear Repulsion Energy =            190.2842947885506817
    One-Electron Energy =                -743.0956590696538342
    Two-Electron Energy =                 284.8610207989640344
    DFT Exchange-Correlation Energy =       0.0000000000000000
    Empirical Dispersion Energy =           0.0000000000000000
    PCM Polarization Energy =               0.0000000000000000
    EFP Energy =                            0.0000000000000000
    Total Energy =                       -267.9503434821390897

  Mulliken Charges: (a.u.)
   Center  Symbol    Alpha    Beta     Spin     Total
       1     H     0.28135  0.28135  0.00000  0.43729
       2     O     4.37084  4.37084  0.00000 -0.74168
       3     C     3.00462  3.00462  0.00000 -0.00924
       4     C     2.99656  2.99656  0.00000  0.00689
       5     H     0.42280  0.42280  0.00000  0.15441
       6     H     0.40808  0.40808  0.00000  0.18385
       7     O     4.30733  4.30733  0.00000 -0.61466
       8     H     0.43824  0.43824  0.00000  0.12352
       9     H     0.42230  0.42230  0.00000  0.15539
      10     C     3.08011  3.08011  0.00000 -0.16021
      11     H     0.42920  0.42920  0.00000  0.14159
      12     H     0.41070  0.41070  0.00000  0.17860
      13     H     0.42787  0.42787  0.00000  0.14426

   Total alpha = 21.00000, Total beta = 21.00000, Total charge = -0.00000
