                              Psi4 1.0.54 Driver

  ==> Input File <==

--------------------------------------------------------------------------
set {
	reference rhf
	basis cc-pvtz
}

set_num_threads( 4 )
memory 2 gb

molecule MOL {
0 1

H	 3.663306	 -0.971504	 -0.387765
O	 2.762963	 -1.194447	 -0.205077
C	 2.076458	 -0.067370	 -0.038225
C	 0.626018	 -0.337582	 0.258241
O	 2.585625	 0.996403	 -0.121761
C	 -0.267326	 0.883135	 0.076490
H	 0.325620	 -1.161483	 -0.378003
H	 0.574537	 -0.713685	 1.275261
C	 -1.726822	 0.642622	 0.463839
H	 -0.210803	 1.217591	 -0.953497
H	 0.129920	 1.693110	 0.675679
C	 -2.480891	 -0.340606	 -0.429852
H	 -2.243098	 1.597649	 0.438609
H	 -1.776542	 0.301208	 1.495542
C	 -3.955933	 -0.460128	 -0.060472
H	 -2.393755	 -0.020485	 -1.464726
H	 -2.024244	 -1.323637	 -0.374360
H	 -4.467673	 -1.160944	 -0.709827
H	 -4.458917	 0.497287	 -0.144505
H	 -4.076458	 -0.806900	 0.960497

	symmetry c1
}
set optking {
	frozen_dihedral = ("
		5 3 4 7
	")
}

ee,wfn = optimize('scf', return_wfn=True)
oeprop( wfn, 'DIPOLE', 'QUADRUPOLE', 'MULLIKEN_CHARGES')
f=open( 'psi4out.xyz', 'w' )
f.write( "20  " )
f.write( str(ee) + "\n" )
f.write( MOL.save_string_xyz() )
f.close()
--------------------------------------------------------------------------

    Molecular point group: c1
  Charge       = 0
  Multiplicity = 1
  Basis Set: CC-PVTZ
  Basis Set:
  @DF-RHF Final Energy:  -384.09470146284406
    Total Energy =                       -384.0947014628441707
    Molecular point group: c1
  Basis Set: CC-PVTZ
  Basis Set:
  Basis Set: CC-PVTZ
  Basis Set:
  @DF-RHF Final Energy:  -384.09395600941599
    Total Energy =                       -384.0939560094158196
  Basis Set: CC-PVTZ
  Basis Set:
  Basis Set: CC-PVTZ
  Basis Set:
  @DF-RHF Final Energy:  -384.09476720139662
    Total Energy =                       -384.0947672013964507
  Basis Set: CC-PVTZ
  Basis Set:
  Basis Set: CC-PVTZ
  Basis Set:
  @DF-RHF Final Energy:  -384.09481668641104
    Total Energy =                       -384.0948166864107520
  Basis Set: CC-PVTZ
  Basis Set:
  Basis Set: CC-PVTZ
  Basis Set:
  @DF-RHF Final Energy:  -384.09481902203220
    Total Energy =                       -384.0948190220320839
  Basis Set: CC-PVTZ
  Basis Set:
  Charge       = 0
  Multiplicity = 1
  Basis Set: CC-PVTZ
  Basis Set:

    Orbital Energies (a.u.)
    -----------------------

    Doubly Occupied:

       1A    -20.604256     2A    -20.540117     3A    -11.373507
       4A    -11.238594     5A    -11.221428     6A    -11.218887
       7A    -11.218271     8A    -11.210610     9A     -1.477584
      10A     -1.368863    11A     -1.097609    12A     -1.042265
      13A     -0.962523    14A     -0.870399    15A     -0.817799
      16A     -0.779139    17A     -0.704249    18A     -0.692886
      19A     -0.663790    20A     -0.638697    21A     -0.605851
      22A     -0.596258    23A     -0.576899    24A     -0.556376
      25A     -0.542510    26A     -0.513595    27A     -0.496455
      28A     -0.483642    29A     -0.471915    30A     -0.468587
      31A     -0.458013    32A     -0.446302

  @DF-RHF Final Energy:  -384.09481911676511

   => Energetics <=

    Nuclear Repulsion Energy =            376.4799508872109186
    One-Electron Energy =               -1269.2337845854849547
    Two-Electron Energy =                 508.6590145815089841
    DFT Exchange-Correlation Energy =       0.0000000000000000
    Empirical Dispersion Energy =           0.0000000000000000
    PCM Polarization Energy =               0.0000000000000000
    EFP Energy =                            0.0000000000000000
    Total Energy =                       -384.0948191167651089
    Molecular point group: c1
  Basis Set: CC-PVTZ
  Basis Set:

  -Total Gradient:
     Atom            X                  Y                   Z
    ------   -----------------  -----------------  -----------------
       1        0.000106563586    -0.000049153574    -0.000025233040
       2       -0.000038324544     0.000072059033    -0.000005756129
       3       -0.000216727010    -0.000126910129    -0.000957248071
       4       -0.000152791781     0.000617819070    -0.000267935449
       5        0.000132014233    -0.000031047346     0.000753551123
       6       -0.000035569578    -0.000033634103    -0.000052950648
       7        0.000232262112    -0.000436991205     0.000520062825
       8       -0.000006341480    -0.000013183724     0.000016513994
       9        0.000011492571    -0.000024515797     0.000020650544
      10        0.000005216685    -0.000010369174    -0.000005004377
      11       -0.000005877774     0.000019315913    -0.000001395935
      12       -0.000006734562     0.000000814893     0.000006832716
      13        0.000001354298     0.000003295375     0.000013107793
      14        0.000007374622    -0.000015748205     0.000003117593
      15       -0.000003231488     0.000015612775    -0.000011848752
      16        0.000004107600    -0.000005485549    -0.000014035242
      17       -0.000031973776     0.000014947652     0.000009273301
      18       -0.000001675413     0.000002903850    -0.000002992185
      19       -0.000006103927     0.000001901481     0.000002575562
      20        0.000004965634    -0.000001631236    -0.000001285624

  **** Optimization is complete! (in 6 steps) ****
    Final optimized geometry and variables:
    Molecular point group: c1

    Geometry (in Angstrom), charge = 0, multiplicity = 1:

    H            3.690523765305    -0.957874160365    -0.301160683913
    O            2.784160983124    -1.187598296556    -0.160720086394
    C            2.080591624259    -0.066105792367    -0.034457628098
    C            0.627029648189    -0.344819821109     0.240875868104
    O            2.582170060561     1.001967551649    -0.111155094224
    C           -0.266223454723     0.878857998191     0.076325548362
    H            0.325450352207    -1.169174393340    -0.391374135297
    H            0.580078830731    -0.719901821967     1.260126624958
    C           -1.722497376914     0.639195905918     0.475903556625
    H           -0.220986072974     1.218853654440    -0.953351077526
    H            0.140176066242     1.683111153639     0.675724886598
    C           -2.489155972696    -0.334051344931    -0.418090023224
    H           -2.235918053753     1.596039059085     0.464372465823
    H           -1.762027514309     0.289297773985     1.505219097628
    C           -3.959746625405    -0.455206186395    -0.031626177496
    H           -2.414432887440    -0.003873449264    -1.450853428675
    H           -2.033132791294    -1.318081086979    -0.378165515380
    H           -4.479997662069    -1.150700694168    -0.679940841329
    H           -4.462986568495     0.503178266887    -0.102222182651
    H           -4.068161333863    -0.809612345997     0.988090991206

  Mulliken Charges: (a.u.)
   Center  Symbol    Alpha    Beta     Spin     Total
       1     H     0.38181  0.38181  0.00000  0.23637
       2     O     4.16005  4.16005  0.00000 -0.32011
       3     C     2.80467  2.80467  0.00000  0.39065
       4     C     3.10958  3.10958  0.00000 -0.21915
       5     O     4.19174  4.19174  0.00000 -0.38348
       6     C     3.09489  3.09489  0.00000 -0.18978
       7     H     0.43596  0.43596  0.00000  0.12808
       8     H     0.43975  0.43975  0.00000  0.12050
       9     C     3.09931  3.09931  0.00000 -0.19863
      10     H     0.44787  0.44787  0.00000  0.10425
      11     H     0.43609  0.43609  0.00000  0.12783
      12     C     3.08660  3.08660  0.00000 -0.17320
      13     H     0.44544  0.44544  0.00000  0.10913
      14     H     0.45368  0.45368  0.00000  0.09263
      15     C     3.14957  3.14957  0.00000 -0.29915
      16     H     0.45294  0.45294  0.00000  0.09413
      17     H     0.45390  0.45390  0.00000  0.09220
      18     H     0.44772  0.44772  0.00000  0.10457
      19     H     0.45364  0.45364  0.00000  0.09273
      20     H     0.45478  0.45478  0.00000  0.09043

   Total alpha = 32.00000, Total beta = 32.00000, Total charge =  0.00000

*** Psi4 exiting successfully. Buy a developer a beer!
