  ==> Input File <==

--------------------------------------------------------------------------
set {
	reference rhf
	basis 6-31G*
}

set_num_threads( 4 )
memory 2 gb

molecule MOL {
0 1

H	 3.463771	 0.168298	 -0.756243
C	 2.752674	 -0.045734	 0.033351
C	 1.322923	 0.120767	 -0.479465
H	 2.934561	 -1.059086	 0.377456
H	 2.958358	 0.631174	 0.856809
C	 0.306652	 -0.176050	 0.621399
H	 1.144658	 -0.551717	 -1.312180
H	 1.166477	 1.131798	 -0.836680
N	 -1.068537	 -0.011044	 0.085269
H	 0.372515	 -1.192590	 0.973735
H	 0.391664	 0.520566	 1.441230
O	 -1.787855	 -0.961439	 0.111758
O	 -1.348593	 1.057514	 -0.366148

	symmetry c1
}
set optking {
	frozen_dihedral = ("
		12 9 6 3
	")
}

ee = optimize('scf')
oeprop('DIPOLE', 'QUADRUPOLE', 'MULLIKEN_CHARGES')
f=open( 'psi4out.xyz', 'w' )
f.write( "13  " )
f.write( str(ee) + "\n" )
f.write( MOL.save_string_xyz() )
f.close()
--------------------------------------------------------------------------

    Molecular point group: c1
  Charge       = 0
  Multiplicity = 1
  Basis Set: 6-31G*
  Basis Set:
  @DF-RHF Final Energy:  -321.73531930790739
    Total Energy =                       -321.7353193079073890
    Molecular point group: c1
  Basis Set: 6-31G*
  Basis Set:
  Basis Set: 6-31G*
  Basis Set:
  @DF-RHF Final Energy:  -321.73043224762989
    Total Energy =                       -321.7304322476298353
  Basis Set: 6-31G*
  Basis Set:
  Basis Set: 6-31G*
  Basis Set:
  @DF-RHF Final Energy:  -321.73492324798383
    Total Energy =                       -321.7349232479839998
  Basis Set: 6-31G*
  Basis Set:
  Basis Set: 6-31G*
  Basis Set:
  @DF-RHF Final Energy:  -321.73551279266894
    Total Energy =                       -321.7355127926691125
  Basis Set: 6-31G*
  Basis Set:
  Basis Set: 6-31G*
  Basis Set:
  @DF-RHF Final Energy:  -321.73551612131803
    Total Energy =                       -321.7355161213179713
  Basis Set: 6-31G*
  Basis Set:
  Basis Set: 6-31G*
  Basis Set:
  @DF-RHF Final Energy:  -321.73551854255641
    Total Energy =                       -321.7355185425563491
  Basis Set: 6-31G*
  Basis Set:
  Charge       = 0
  Multiplicity = 1
  Basis Set: 6-31G*
  Basis Set:

    Orbital Energies (a.u.)
    -----------------------

    Doubly Occupied:

       1A    -20.603093     2A    -20.598995     3A    -15.847439
       4A    -11.299643     5A    -11.254935     6A    -11.239228
       7A     -1.631039     8A     -1.416414     9A     -1.134554
      10A     -1.028196    11A     -0.884330    12A     -0.831322
      13A     -0.759413    14A     -0.737369    15A     -0.723897
      16A     -0.668981    17A     -0.604955    18A     -0.586125
      19A     -0.550755    20A     -0.522388    21A     -0.512584
      22A     -0.484273    23A     -0.473444    24A     -0.448532

  @DF-RHF Final Energy:  -321.73551856529491

   => Energetics <=

    Nuclear Repulsion Energy =            247.2517852507824898
    One-Electron Energy =                -928.2907991409985016
    Two-Electron Energy =                 359.3034953249211867
    DFT Exchange-Correlation Energy =       0.0000000000000000
    Empirical Dispersion Energy =           0.0000000000000000
    PCM Polarization Energy =               0.0000000000000000
    EFP Energy =                            0.0000000000000000
    Total Energy =                       -321.7355185652947966
    Molecular point group: c1
  Basis Set: 6-31G*
  Basis Set:

  -Total Gradient:
     Atom            X                  Y                   Z
    ------   -----------------  -----------------  -----------------
       1        0.000001274789     0.000005805016     0.000003964198
       2        0.000003897870     0.000017658473     0.000000671039
       3       -0.000009761150     0.000159360475     0.000047023762
       4        0.000001697177    -0.000004094500    -0.000008630691
       5       -0.000001645010    -0.000005015298     0.000006226702
       6       -0.000032919638    -0.000221132735     0.000001396003
       7       -0.000000772251    -0.000003611587     0.000005059397
       8        0.000002713843    -0.000006767860    -0.000017373131
       9        0.000081959704     0.000014263902    -0.000236453513
      10        0.000000497751    -0.000002769774     0.000006037565
      11       -0.000009730342    -0.000001491645    -0.000001946498
      12       -0.000054033480     0.000054595304     0.000198802940
      13        0.000016820744    -0.000006799773    -0.000004777774

  **** Optimization is complete! (in 7 steps) ****
    Final optimized geometry and variables:
    Molecular point group: c1

    Geometry (in Angstrom), charge = 0, multiplicity = 1:

    H            3.479958519566     0.166990985462    -0.750771915916
    C            2.761375562325    -0.046399547575     0.032182880475
    C            1.336462768201     0.126059685123    -0.492888735772
    H            2.938591136661    -1.060448718256     0.376874386282
    H            2.962314853343     0.628838332229     0.858394233406
    C            0.313949167878    -0.169232815215     0.599701010315
    H            1.166143082214    -0.545783195403    -1.328513601968
    H            1.185792758466     1.135420510450    -0.852898193118
    N           -1.071078439156    -0.012795109675     0.081365863837
    H            0.380028283901    -1.178655929912     0.970657414701
    H            0.394813518021     0.534368699158     1.416584968632
    O           -1.786347898640    -0.965133175498     0.117140223559
    O           -1.373942442876     1.063652651598    -0.336150032708

  Mulliken Charges: (a.u.)
   Center  Symbol    Alpha    Beta     Spin     Total
       1     H     0.40740  0.40740  0.00000  0.18520
       2     C     3.24865  3.24865  0.00000 -0.49729
       3     C     3.17220  3.17220  0.00000 -0.34440
       4     H     0.41512  0.41512  0.00000  0.16975
       5     H     0.41517  0.41517  0.00000  0.16967
       6     C     3.08580  3.08580  0.00000 -0.17160
       7     H     0.40462  0.40462  0.00000  0.19076
       8     H     0.39400  0.39400  0.00000  0.21200
       9     N     3.22249  3.22249  0.00000  0.55502
      10     H     0.38628  0.38628  0.00000  0.22743
      11     H     0.38852  0.38852  0.00000  0.22296
      12     O     4.22839  4.22839  0.00000 -0.45677
      13     O     4.23137  4.23137  0.00000 -0.46274

   Total alpha = 24.00000, Total beta = 24.00000, Total charge = -0.00000
