  ==> Input File <==

--------------------------------------------------------------------------
set {
	reference rhf
	basis 6-31G*
}

set_num_threads( 4 )
memory 2 gb

molecule MOL {
0 1

H	 -2.172150	 0.880146	 0.502514
C	 -2.018062	 -0.000025	 -0.114509
O	 -0.774054	 0.001095	 -0.743181
H	 -2.760490	 0.003458	 -0.901350
H	 -2.173624	 -0.884374	 0.496163
C	 -0.675094	 -0.383629	 -2.102859
C	 0.814469	 -0.245539	 -2.409694
C	 -1.116320	 -1.837569	 -2.299241
C	 -1.483396	 0.555859	 -3.003484
H	 1.391549	 -0.889469	 -1.755657
H	 1.136286	 0.776585	 -2.245165
H	 1.028258	 -0.515145	 -3.438901
H	 -0.590009	 -2.486364	 -1.607077
H	 -0.894106	 -2.164703	 -3.309788
H	 -2.182130	 -1.966283	 -2.144201
H	 -1.214707	 1.588338	 -2.806395
H	 -1.279010	 0.343510	 -4.047835
H	 -2.552234	 0.446914	 -2.853991

	symmetry c1
}
set optking {
	frozen_dihedral = ("
		6 3 2 5
	")
}

ee = optimize('scf')
oeprop('DIPOLE', 'QUADRUPOLE', 'MULLIKEN_CHARGES')
f=open( 'psi4out.xyz', 'w' )
f.write( "18  " )
f.write( str(ee) + "\n" )
f.write( MOL.save_string_xyz() )
f.close()
--------------------------------------------------------------------------

    Molecular point group: c1
  Charge       = 0
  Multiplicity = 1
  Basis Set: 6-31G*
  Basis Set:
  @DF-RHF Final Energy:  -271.17090695435525
    Total Energy =                       -271.1709069543552459
    Molecular point group: c1
  Basis Set: 6-31G*
  Basis Set:
  Basis Set: 6-31G*
  Basis Set:
  @DF-RHF Final Energy:  -271.17290098185094
    Total Energy =                       -271.1729009818507734
  Basis Set: 6-31G*
  Basis Set:
  Basis Set: 6-31G*
  Basis Set:
  @DF-RHF Final Energy:  -271.17383496545960
    Total Energy =                       -271.1738349654596050
  Basis Set: 6-31G*
  Basis Set:
  Basis Set: 6-31G*
  Basis Set:
  @DF-RHF Final Energy:  -271.17367714285319
    Total Energy =                       -271.1736771428530801
  Basis Set: 6-31G*
  Basis Set:
  @DF-RHF Final Energy:  -271.17391421586984
    Total Energy =                       -271.1739142158698996
  Basis Set: 6-31G*
  Basis Set:
  @DF-RHF Final Energy:  -271.17394108507676
    Total Energy =                       -271.1739410850766490
  Basis Set: 6-31G*
  Basis Set:
  Basis Set: 6-31G*
  Basis Set:
  @DF-RHF Final Energy:  -271.17393813799634
    Total Energy =                       -271.1739381379964584
  Basis Set: 6-31G*
  Basis Set:
  Basis Set: 6-31G*
  Basis Set:
  @DF-RHF Final Energy:  -271.17394199172230
    Total Energy =                       -271.1739419917223586
  Basis Set: 6-31G*
  Basis Set:
  Charge       = 0
  Multiplicity = 1
  Basis Set: 6-31G*
  Basis Set:

    Orbital Energies (a.u.)
    -----------------------

    Doubly Occupied:

       1A    -20.545035     2A    -11.281748     3A    -11.260927
       4A    -11.209236     5A    -11.208102     6A    -11.203255
       7A     -1.368432     8A     -1.072605     9A     -0.945809
      10A     -0.939788    11A     -0.912769    12A     -0.752531
      13A     -0.655073    14A     -0.643681    15A     -0.638358
      16A     -0.590294    17A     -0.571544    18A     -0.552329
      19A     -0.537708    20A     -0.523891    21A     -0.514928
      22A     -0.489995    23A     -0.486761    24A     -0.438161
      25A     -0.401596

  @DF-RHF Final Energy:  -271.17394199157576

   => Energetics <=

    Nuclear Repulsion Energy =            272.2171836841004620
    One-Electron Energy =                -907.2931397824332862
    Two-Electron Energy =                 363.9020141067571217
    DFT Exchange-Correlation Energy =       0.0000000000000000
    Empirical Dispersion Energy =           0.0000000000000000
    PCM Polarization Energy =               0.0000000000000000
    EFP Energy =                            0.0000000000000000
    Total Energy =                       -271.1739419915757594
    Molecular point group: c1
  Basis Set: 6-31G*
  Basis Set:

  -Total Gradient:
     Atom            X                  Y                   Z
    ------   -----------------  -----------------  -----------------
       1        0.000006313534     0.000003215598    -0.000007802298
       2       -0.001096540030    -0.000600916545    -0.002206883032
       3        0.000759518961    -0.001974339964     0.001162998239
       4       -0.000005870421     0.000003172622    -0.000009118844
       5        0.000710145850     0.001056825892     0.001536831266
       6       -0.000369161832     0.001508715791    -0.000494952867
       7        0.000004596580     0.000001285613    -0.000012097718
       8       -0.000001052234     0.000001545255    -0.000001452410
       9        0.000001412029     0.000000802093     0.000023853554
      10       -0.000008686449    -0.000001611733    -0.000004118363
      11        0.000007667716    -0.000000404966     0.000001643887
      12        0.000002431541     0.000006078275    -0.000004761810
      13       -0.000009349062    -0.000002201142     0.000006845252
      14        0.000003285611    -0.000003989597     0.000002157337
      15        0.000000137826     0.000005231608    -0.000003070656
      16       -0.000009820551     0.000001733367     0.000003528150
      17        0.000011578051    -0.000000488986     0.000003282748
      18       -0.000006607120    -0.000004653182     0.000003117562

  **** Optimization is complete! (in 9 steps) ****
    Final optimized geometry and variables:
    Molecular point group: c1

    Geometry (in Angstrom), charge = 0, multiplicity = 1:

    H           -1.248512535522     1.133669732629     2.286823954056
    C           -1.142190720742     0.263283919348     1.650312855263
    O            0.092904653973     0.356870893013     1.004796819762
    H           -1.982408771423     0.242212865218     0.967079899766
    H           -1.181802352156    -0.620030450286     2.281382437136
    C            0.218645292744    -0.058259172516    -0.343214530425
    C            1.714175890084     0.063163741639    -0.626108592739
    C           -0.230514650952    -1.512525140897    -0.515427923444
    C           -0.563219390533     0.874988520573    -1.273210363797
    H            2.274983705809    -0.577531359519     0.044890199602
    H            2.042010570553     1.084499104054    -0.468910715911
    H            1.942312476997    -0.220489181540    -1.648547297515
    H            0.305168070597    -2.154762245685     0.175692961192
    H           -0.029619333826    -1.855742916610    -1.525134001088
    H           -1.293723423300    -1.632879049251    -0.335392698198
    H           -0.262973894332     1.903608425085    -1.105505858774
    H           -0.368359081548     0.626052418318    -2.311488663940
    H           -1.634585921429     0.805357541263    -1.119163321226

  Mulliken Charges: (a.u.)
   Center  Symbol    Alpha    Beta     Spin     Total
       1     H     0.41645  0.41645  0.00000  0.16709
       2     C     3.07752  3.07752  0.00000 -0.15504
       3     O     4.32095  4.32095  0.00000 -0.64191
       4     H     0.42992  0.42992  0.00000  0.14015
       5     H     0.42495  0.42495  0.00000  0.15010
       6     C     2.84419  2.84419  0.00000  0.31162
       7     C     3.23307  3.23307  0.00000 -0.46613
       8     C     3.24686  3.24686  0.00000 -0.49372
       9     C     3.24381  3.24381  0.00000 -0.48762
      10     H     0.41446  0.41446  0.00000  0.17108
      11     H     0.41380  0.41380  0.00000  0.17239
      12     H     0.42507  0.42507  0.00000  0.14985
      13     H     0.41366  0.41366  0.00000  0.17268
      14     H     0.41942  0.41942  0.00000  0.16116
      15     H     0.42064  0.42064  0.00000  0.15873
      16     H     0.41334  0.41334  0.00000  0.17333
      17     H     0.42088  0.42088  0.00000  0.15823
      18     H     0.42099  0.42099  0.00000  0.15802

   Total alpha = 25.00000, Total beta = 25.00000, Total charge = -0.00000
