  ==> Input File <==

--------------------------------------------------------------------------
set {
	reference rhf
	basis 6-31G*
}

set_num_threads( 4 )
memory 2 gb

molecule MOL {
0 1

O	 -2.324811	 1.361668	 -0.277141
C	 -2.105949	 0.203097	 -0.092081
C	 -0.889235	 -0.467034	 -0.705952
C	 -3.002726	 -0.644460	 0.782455
C	 0.335049	 0.460830	 -0.648166
H	 -1.124494	 -0.691654	 -1.740603
H	 -0.670819	 -1.402064	 -0.197975
C	 1.572532	 -0.171981	 -1.289103
H	 0.079517	 1.389200	 -1.146381
H	 0.556687	 0.710875	 0.388222
C	 2.841261	 0.683494	 -1.196677
H	 1.362089	 -0.390492	 -2.334423
H	 1.764671	 -1.129784	 -0.809995
C	 2.785234	 1.989271	 -1.991538
H	 3.679386	 0.091514	 -1.555562
H	 3.051236	 0.903405	 -0.151863
H	 2.566187	 1.799468	 -3.038781
H	 3.736664	 2.509670	 -1.942901
H	 2.025963	 2.664795	 -1.612110
H	 -3.496582	 -1.399307	 0.176174
H	 -3.747939	 -0.023774	 1.260148
H	 -2.421318	 -1.168775	 1.535358

	symmetry c1
}
set optking {
	frozen_dihedral = ("
		6 3 2 1
	")
}

ee = optimize('scf')
oeprop('DIPOLE', 'QUADRUPOLE', 'MULLIKEN_CHARGES')
f=open( 'psi4out.xyz', 'w' )
f.write( "22  " )
f.write( str(ee) + "\n" )
f.write( MOL.save_string_xyz() )
f.close()
--------------------------------------------------------------------------

    Molecular point group: c1
  Charge       = 0
  Multiplicity = 1
  Basis Set: 6-31G*
  Basis Set:
  @DF-RHF Final Energy:  -348.09829095301120
    Total Energy =                       -348.0982909530111442
    Molecular point group: c1
  Basis Set: 6-31G*
  Basis Set:
  Basis Set: 6-31G*
  Basis Set:
  @DF-RHF Final Energy:  -348.09734705126840
    Total Energy =                       -348.0973470512681160
  Basis Set: 6-31G*
  Basis Set:
  Basis Set: 6-31G*
  Basis Set:
  @DF-RHF Final Energy:  -348.09887760765480
    Total Energy =                       -348.0988776076549129
  Basis Set: 6-31G*
  Basis Set:
  Basis Set: 6-31G*
  Basis Set:
  @DF-RHF Final Energy:  -348.09890635188202
    Total Energy =                       -348.0989063518819648
  Basis Set: 6-31G*
  Basis Set:
  @DF-RHF Final Energy:  -348.09775364397478
    Total Energy =                       -348.0977536439742153
  @DF-RHF Final Energy:  -348.09896172040351
    Total Energy =                       -348.0989617204036790
  Basis Set: 6-31G*
  Basis Set:
  @DF-RHF Final Energy:  -348.09904905509450
    Total Energy =                       -348.0990490550947811
  Basis Set: 6-31G*
  Basis Set:
  Basis Set: 6-31G*
  Basis Set:
  @DF-RHF Final Energy:  -348.09894712288877
    Total Energy =                       -348.0989471228884327
  Basis Set: 6-31G*
  Basis Set:
  Basis Set: 6-31G*
  Basis Set:
  @DF-RHF Final Energy:  -348.09905585120555
    Total Energy =                       -348.0990558512055486
  Basis Set: 6-31G*
  Basis Set:
  Charge       = 0
  Multiplicity = 1
  Basis Set: 6-31G*
  Basis Set:

    Orbital Energies (a.u.)
    -----------------------

    Doubly Occupied:

       1A    -20.548749     2A    -11.326174     3A    -11.230968
       4A    -11.228720     5A    -11.220312     6A    -11.218502
       7A    -11.217270     8A    -11.207975     9A     -1.394719
      10A     -1.091373    11A     -1.042443    12A     -1.001008
      13A     -0.935265    14A     -0.854543    15A     -0.782458
      16A     -0.731465    17A     -0.660311    18A     -0.644687
      19A     -0.626213    20A     -0.617958    21A     -0.597563
      22A     -0.581113    23A     -0.562151    24A     -0.546055
      25A     -0.527597    26A     -0.511906    27A     -0.498481
      28A     -0.483522    29A     -0.466820    30A     -0.461166
      31A     -0.457454    32A     -0.397877

  @DF-RHF Final Energy:  -348.09905621205888

   => Energetics <=

    Nuclear Repulsion Energy =            372.4754167348726810
    One-Electron Energy =               -1209.8033089709585965
    Two-Electron Energy =                 489.2288360240270322
    DFT Exchange-Correlation Energy =       0.0000000000000000
    Empirical Dispersion Energy =           0.0000000000000000
    PCM Polarization Energy =               0.0000000000000000
    EFP Energy =                            0.0000000000000000
    Total Energy =                       -348.0990562120589402
    Molecular point group: c1
  Basis Set: 6-31G*
  Basis Set:

  -Total Gradient:
     Atom            X                  Y                   Z
    ------   -----------------  -----------------  -----------------
       1       -0.000716178379    -0.000346756188    -0.001107415630
       2        0.001098045718     0.000723781966     0.001470276751
       3       -0.000836112965    -0.001561854350    -0.000003244882
       4        0.000015675999     0.000011020914     0.000028315484
       5       -0.000010354299    -0.000008730713     0.000021492795
       6        0.000445508372     0.001190796290    -0.000383751749
       7        0.000004645078     0.000003122726     0.000001081700
       8        0.000009054953    -0.000000639638    -0.000023809563
       9       -0.000002325874    -0.000006665233     0.000000231780
      10       -0.000000492145     0.000001130443     0.000008784084
      11       -0.000004773297     0.000009714484     0.000017223670
      12       -0.000008950376    -0.000007713675     0.000000459064
      13        0.000010224551     0.000007563283    -0.000000776891
      14        0.000002821594    -0.000007847915    -0.000012695065
      15        0.000001550097     0.000006888078     0.000001446517
      16       -0.000004402900    -0.000002014662     0.000005508327
      17       -0.000008329054     0.000002612116    -0.000000055077
      18        0.000002141943    -0.000005592984    -0.000005554575
      19        0.000011704524    -0.000000830506     0.000004725621
      20       -0.000001265967    -0.000002004217    -0.000009767881
      21       -0.000004156615    -0.000002423955    -0.000003447008
      22       -0.000004030956    -0.000003556266    -0.000009027474

  **** Optimization is complete! (in 10 steps) ****
    Final optimized geometry and variables:
    Molecular point group: c1

    Geometry (in Angstrom), charge = 0, multiplicity = 1:

    O           -2.256677394279     0.925718159486     0.418809263966
    C           -2.008893002935    -0.224927908052     0.614787276554
    C           -0.773102119022    -0.880226522647     0.017506617096
    C           -2.927292526293    -1.104514356696     1.433002434804
    C            0.460050289620     0.026464649449     0.049467897776
    H           -1.020596423569    -1.113784961162    -1.017298709438
    H           -0.572446515971    -1.825987535467     0.512296217903
    C            1.669013031096    -0.613460924397    -0.636949644272
    H            0.203484354684     0.967293417204    -0.420092724481
    H            0.710648523407     0.254492659607     1.083667591099
    C            2.953669372034     0.219483295588    -0.560819024894
    H            1.429519364150    -0.807096174547    -1.681577494449
    H            1.859982184752    -1.584714166490    -0.184420627166
    C            2.895161523410     1.545344400947    -1.321505362894
    H            3.772545796638    -0.375519633737    -0.957545092288
    H            3.196031107714     0.411036841473     0.482501764038
    H            2.643155886673     1.384660676309    -2.366309793421
    H            3.855687302831     2.050173465722    -1.288243504024
    H            2.157509368584     2.221829071219    -0.903502086462
    H           -3.206382851904    -1.989888297604     0.868625290455
    H           -3.814244036935    -0.554121444232     1.714229655801
    H           -2.411695938223    -1.444282142339     2.327291529778

  Mulliken Charges: (a.u.)
   Center  Symbol    Alpha    Beta     Spin     Total
       1     O     4.26353  4.26353  0.00000 -0.52707
       2     C     2.73389  2.73389  0.00000  0.53222
       3     C     3.20769  3.20769  0.00000 -0.41537
       4     C     3.28842  3.28842  0.00000 -0.57684
       5     C     3.15657  3.15657  0.00000 -0.31314
       6     H     0.40355  0.40355  0.00000  0.19290
       7     H     0.41494  0.41494  0.00000  0.17011
       8     C     3.15372  3.15372  0.00000 -0.30745
       9     H     0.40060  0.40060  0.00000  0.19880
      10     H     0.42059  0.42059  0.00000  0.15883
      11     C     3.15258  3.15258  0.00000 -0.30517
      12     H     0.42340  0.42340  0.00000  0.15320
      13     H     0.42348  0.42348  0.00000  0.15305
      14     C     3.24219  3.24219  0.00000 -0.48438
      15     H     0.42069  0.42069  0.00000  0.15862
      16     H     0.42275  0.42275  0.00000  0.15451
      17     H     0.42194  0.42194  0.00000  0.15611
      18     H     0.41892  0.41892  0.00000  0.16215
      19     H     0.41691  0.41691  0.00000  0.16619
      20     H     0.40896  0.40896  0.00000  0.18209
      21     H     0.39714  0.39714  0.00000  0.20572
      22     H     0.40754  0.40754  0.00000  0.18491

   Total alpha = 32.00000, Total beta = 32.00000, Total charge = -0.00000
