  ==> Input File <==

--------------------------------------------------------------------------
set {
	reference rhf
	basis 6-31G*
}

set_num_threads( 1 )
memory 2 gb

molecule MOL {
0 1

O	 -0.758361	 -2.798692	 -1.073585
C	 -0.688720	 -1.709322	 -1.556140
C	 -0.889235	 -0.467034	 -0.705952
C	 -0.367682	 -1.508670	 -3.020397
C	 0.379448	 -0.143569	 0.099626
H	 -1.710035	 -0.663645	 -0.024823
H	 -1.161032	 0.381582	 -1.327243
C	 1.631333	 -0.777471	 -0.511575
H	 0.482768	 0.934507	 0.149241
H	 0.263088	 -0.495696	 1.123449
C	 2.915987	 -0.544314	 0.291766
H	 1.766672	 -0.399098	 -1.523130
H	 1.471257	 -1.849544	 -0.605828
C	 3.373361	 0.914346	 0.347591
H	 3.708709	 -1.142521	 -0.150311
H	 2.780642	 -0.921148	 1.303579
H	 3.506512	 1.320010	 -0.651625
H	 4.322697	 0.999599	 0.867103
H	 2.660624	 1.545032	 0.868198
H	 -1.227171	 -1.077569	 -3.527048
H	 -0.119124	 -2.456014	 -3.478154
H	 0.457357	 -0.812595	 -3.141207

	symmetry c1
}
set optking {
	frozen_dihedral = ("
		6 3 2 1,
		3 5 8 12,
		12 8 11 15
	")
}

ee = energy('scf')
oeprop('DIPOLE', 'QUADRUPOLE', 'MULLIKEN_CHARGES')
f=open( 'psi4out.xyz', 'w' )
f.write( "22  " )
f.write( str(ee) + "\n" )
f.write( MOL.save_string_xyz() )
f.close()
--------------------------------------------------------------------------

    Molecular point group: c1

    Geometry (in Angstrom), charge = 0, multiplicity = 1:

       Center              X                  Y                   Z               Mass
    ------------   -----------------  -----------------  -----------------  -----------------
           O         -1.472281899154    -1.919930305772    -0.302100348101    15.994914619560
           C         -1.402640899154    -0.830560305772    -0.784655348101    12.000000000000
           C         -1.603155899154     0.411727694228     0.065532651899    12.000000000000
           C         -1.081602899154    -0.629908305772    -2.248912348101    12.000000000000
           C         -0.334472899154     0.735192694228     0.871110651899    12.000000000000
           H         -2.423955899154     0.215116694228     0.746661651899     1.007825032070
           H         -1.874952899154     1.260343694228    -0.555758348101     1.007825032070
           C          0.917412100846     0.101290694228     0.259909651899    12.000000000000
           H         -0.231152899154     1.813268694228     0.920725651899     1.007825032070
           H         -0.450832899154     0.383065694228     1.894933651899     1.007825032070
           C          2.202066100846     0.334447694228     1.063250651899    12.000000000000
           H          1.052751100846     0.479663694228    -0.751645348101     1.007825032070
           H          0.757336100846    -0.970782305772     0.165656651899     1.007825032070
           C          2.659440100846     1.793107694228     1.119075651899    12.000000000000
           H          2.994788100846    -0.263759305772     0.621173651899     1.007825032070
           H          2.066721100846    -0.042386305772     2.075063651899     1.007825032070
           H          2.792591100846     2.198771694228     0.119859651899     1.007825032070
           H          3.608776100846     1.878360694228     1.638587651899     1.007825032070
           H          1.946703100846     2.423793694228     1.639682651899     1.007825032070
           H         -1.941091899154    -0.198807305772    -2.755563348101     1.007825032070
           H         -0.833044899154    -1.577252305772    -2.706669348101     1.007825032070
           H         -0.256563899154     0.066166694228    -2.369722348101     1.007825032070

  Charge       = 0
  Multiplicity = 1
  Basis Set: 6-31G*
  Basis Set:

    Orbital Energies (a.u.)
    -----------------------

    Doubly Occupied:

       1A    -20.545624     2A    -11.324643     3A    -11.228317
       4A    -11.227752     5A    -11.227101     6A    -11.219023
       7A    -11.218298     8A    -11.211799     9A     -1.393464
      10A     -1.097417    11A     -1.041960    12A     -0.998049
      13A     -0.938792    14A     -0.858146    15A     -0.793203
      16A     -0.724259    17A     -0.662127    18A     -0.636899
      19A     -0.631512    20A     -0.622335    21A     -0.599805
      22A     -0.581401    23A     -0.561649    24A     -0.549074
      25A     -0.532119    26A     -0.528408    27A     -0.494312
      28A     -0.484031    29A     -0.466070    30A     -0.461162
      31A     -0.453900    32A     -0.396349

  @DF-RHF Final Energy:  -348.08656665154854

   => Energetics <=

    Nuclear Repulsion Energy =            387.1465741359533013
    One-Electron Energy =               -1239.0482457370396787
    Two-Electron Energy =                 503.8151049495388634
    DFT Exchange-Correlation Energy =       0.0000000000000000
    Empirical Dispersion Energy =           0.0000000000000000
    PCM Polarization Energy =               0.0000000000000000
    EFP Energy =                            0.0000000000000000
    Total Energy =                       -348.0865666515475141

  Mulliken Charges: (a.u.)
   Center  Symbol    Alpha    Beta     Spin     Total
       1     O     4.26311  4.26311  0.00000 -0.52622
       2     C     2.74476  2.74476  0.00000  0.51049
       3     C     3.19990  3.19990  0.00000 -0.39980
       4     C     3.28769  3.28769  0.00000 -0.57538
       5     C     3.15286  3.15286  0.00000 -0.30572
       6     H     0.39881  0.39881  0.00000  0.20238
       7     H     0.41564  0.41564  0.00000  0.16871
       8     C     3.17925  3.17925  0.00000 -0.35850
       9     H     0.41473  0.41473  0.00000  0.17053
      10     H     0.41152  0.41152  0.00000  0.17696
      11     C     3.15061  3.15061  0.00000 -0.30121
      12     H     0.42509  0.42509  0.00000  0.14982
      13     H     0.40038  0.40038  0.00000  0.19924
      14     C     3.24172  3.24172  0.00000 -0.48343
      15     H     0.41916  0.41916  0.00000  0.16168
      16     H     0.42048  0.42048  0.00000  0.15903
      17     H     0.42301  0.42301  0.00000  0.15397
      18     H     0.41783  0.41783  0.00000  0.16435
      19     H     0.42067  0.42067  0.00000  0.15867
      20     H     0.40745  0.40745  0.00000  0.18511
      21     H     0.39770  0.39770  0.00000  0.20459
      22     H     0.40763  0.40763  0.00000  0.18474

   Total alpha = 32.00000, Total beta = 32.00000, Total charge =  0.00000
