                              Psi4 1.0.54 Driver

  ==> Input File <==

--------------------------------------------------------------------------
set {
	reference rhf
	basis cc-pvtz
}

set_num_threads( 4 )
memory 2 gb

molecule MOL {
0 1

H	 -2.003178	 0.116911	 0.257054
N	 -1.173824	 -0.310545	 -0.096857
C	 -0.022588	 0.563366	 0.065815
H	 -1.045591	 -1.165168	 0.403932
C	 1.270420	 -0.230572	 -0.014245
H	 -0.045354	 1.293678	 -0.735129
H	 -0.043155	 1.123061	 1.001180
H	 1.336273	 -0.754933	 -0.959364
H	 2.130728	 0.422015	 0.082222
H	 1.323344	 -0.967006	 0.781773

	symmetry c1
}
set optking {
	frozen_dihedral = ("
		1 2 3 6
	")
}

ee,wfn = optimize('scf', return_wfn=True)
oeprop( wfn, 'DIPOLE', 'QUADRUPOLE', 'MULLIKEN_CHARGES')
f=open( 'psi4out.xyz', 'w' )
f.write( "10  " )
f.write( str(ee) + "\n" )
f.write( MOL.save_string_xyz() )
f.close()
--------------------------------------------------------------------------

    Molecular point group: c1
  Charge       = 0
  Multiplicity = 1
  Basis Set: CC-PVTZ
  Basis Set:
  @DF-RHF Final Energy:  -134.30365245457250
    Total Energy =                       -134.3036524545725001
    Molecular point group: c1
  Basis Set: CC-PVTZ
  Basis Set:
  Basis Set: CC-PVTZ
  Basis Set:
  @DF-RHF Final Energy:  -134.30376353644090
    Total Energy =                       -134.3037635364409539
  Basis Set: CC-PVTZ
  Basis Set:
  Basis Set: CC-PVTZ
  Basis Set:
  @DF-RHF Final Energy:  -134.30377159721007
    Total Energy =                       -134.3037715972099875
  Basis Set: CC-PVTZ
  Basis Set:
  Charge       = 0
  Multiplicity = 1
  Basis Set: CC-PVTZ
  Basis Set:

    Orbital Energies (a.u.)
    -----------------------

    Doubly Occupied:

       1A    -15.527092     2A    -11.240876     3A    -11.208331
       4A     -1.178199     5A     -0.989738     6A     -0.826707
       7A     -0.658050     8A     -0.632802     9A     -0.588240
      10A     -0.519983    11A     -0.503275    12A     -0.492366
      13A     -0.386376

  @DF-RHF Final Energy:  -134.30377206439925

   => Energetics <=

    Nuclear Repulsion Energy =             83.5293722589810130
    One-Electron Energy =                -346.1622178563587227
    Two-Electron Energy =                 128.3290735329784411
    DFT Exchange-Correlation Energy =       0.0000000000000000
    Empirical Dispersion Energy =           0.0000000000000000
    PCM Polarization Energy =               0.0000000000000000
    EFP Energy =                            0.0000000000000000
    Total Energy =                       -134.3037720643992543
    Molecular point group: c1
  Basis Set: CC-PVTZ
  Basis Set:

  -Total Gradient:
     Atom            X                  Y                   Z
    ------   -----------------  -----------------  -----------------
       1        0.000441196253    -0.001139006777     0.002548399174
       2       -0.000215879172     0.001093810357    -0.003530050175
       3       -0.001716360052     0.001618221653     0.002437720923
       4       -0.000003506582    -0.000013560714     0.000005146704
       5        0.000022550481     0.000011901585     0.000018949405
       6        0.001427236166    -0.001580037584    -0.001442079486
       7        0.000023380456     0.000014878415    -0.000013075756
       8        0.000006548580     0.000002103506    -0.000002109745
       9        0.000008345120    -0.000012014224    -0.000007036285
      10        0.000006488751     0.000003703783    -0.000015864759

  **** Optimization is complete! (in 4 steps) ****
    Final optimized geometry and variables:
    Molecular point group: c1

    Geometry (in Angstrom), charge = 0, multiplicity = 1:

    H           -2.012621891989     0.121056029045     0.233908890718
    N           -1.178020180787    -0.306444729201    -0.108749630641
    C           -0.028075077287     0.569882155450     0.072557529951
    H           -1.059070662097    -1.145343872759     0.421129785776
    C            1.266320111938    -0.222437753792    -0.015752351074
    H           -0.032917376544     1.304819866595    -0.724858911754
    H           -0.053518202031     1.111859633952     1.016518271132
    H            1.321886704270    -0.755405292849    -0.957477364734
    H            2.125613027211     0.433584823427     0.057816553779
    H            1.334881920171    -0.949681749658     0.787598701525

  Mulliken Charges: (a.u.)
   Center  Symbol    Alpha    Beta     Spin     Total
       1     H     0.43145  0.43145  0.00000  0.13710
       2     N     3.68640  3.68640  0.00000 -0.37281
       3     C     3.01472  3.01472  0.00000 -0.02944
       4     H     0.43202  0.43202  0.00000  0.13597
       5     C     3.14338  3.14338  0.00000 -0.28676
       6     H     0.46008  0.46008  0.00000  0.07985
       7     H     0.46943  0.46943  0.00000  0.06113
       8     H     0.44880  0.44880  0.00000  0.10239
       9     H     0.45291  0.45291  0.00000  0.09417
      10     H     0.46080  0.46080  0.00000  0.07839

   Total alpha = 13.00000, Total beta = 13.00000, Total charge = -0.00000

*** Psi4 exiting successfully. Buy a developer a beer!
