  ==> Input File <==

--------------------------------------------------------------------------
set {
	reference rhf
	basis 6-31G*
}

set_num_threads( 1 )
memory 2 gb

molecule MOL {
0 1

H	 2.236707	 -1.228404	 -4.662173
C	 2.496859	 -0.400446	 -4.010000
C	 1.323733	 -0.017540	 -3.108704
H	 3.358225	 -0.701341	 -3.421058
H	 2.799650	 0.432977	 -4.638111
C	 1.654899	 1.152741	 -2.179949
H	 1.031433	 -0.878261	 -2.515979
H	 0.466460	 0.245082	 -3.726608
C	 0.493384	 1.570614	 -1.277989
H	 2.506979	 0.895708	 -1.560645
H	 1.947203	 2.011184	 -2.780511
C	 0.169600	 0.576866	 -0.172154
H	 0.729853	 2.513682	 -0.787607
H	 -0.403960	 1.760436	 -1.862726
C	 -1.181045	 0.701995	 0.511084
O	 0.950894	 -0.261515	 0.164151
C	 -2.285934	 -0.139295	 -0.145128
H	 -1.449051	 1.751551	 0.493206
H	 -1.071135	 0.403303	 1.551943
C	 -3.651768	 0.085446	 0.506485
H	 -2.346596	 0.110469	 -1.202272
H	 -2.034737	 -1.195320	 -0.088721
C	 -4.759797	 -0.746382	 -0.137905
H	 -3.908762	 1.140117	 0.445781
H	 -3.588286	 -0.154158	 1.565709
H	 -4.868882	 -0.505166	 -1.191300
H	 -4.548009	 -1.809175	 -0.062213
H	 -5.715422	 -0.564821	 0.343442

	symmetry c1
}
set optking {
	frozen_dihedral = ("
		10 6 3 2,
		12 15 17 21
	")
}

ee = energy('scf')
oeprop('DIPOLE', 'QUADRUPOLE', 'MULLIKEN_CHARGES')
f=open( 'psi4out.xyz', 'w' )
f.write( "28  " )
f.write( str(ee) + "\n" )
f.write( MOL.save_string_xyz() )
f.close()
--------------------------------------------------------------------------

    Molecular point group: c1

    Geometry (in Angstrom), charge = 0, multiplicity = 1:

       Center              X                  Y                   Z               Mass
    ------------   -----------------  -----------------  -----------------  -----------------
           H          2.719667474244    -1.463995823215    -3.664296331744     1.007825032070
           C          2.979819474244    -0.636037823215    -3.012123331744    12.000000000000
           C          1.806693474244    -0.253131823215    -2.110827331744    12.000000000000
           H          3.841185474244    -0.936932823215    -2.423181331744     1.007825032070
           H          3.282610474244     0.197385176785    -3.640234331744     1.007825032070
           C          2.137859474244     0.917149176785    -1.182072331744    12.000000000000
           H          1.514393474244    -1.113852823215    -1.518102331744     1.007825032070
           H          0.949420474244     0.009490176785    -2.728731331744     1.007825032070
           C          0.976344474244     1.335022176785    -0.280112331744    12.000000000000
           H          2.989939474244     0.660116176785    -0.562768331744     1.007825032070
           H          2.430163474244     1.775592176785    -1.782634331744     1.007825032070
           C          0.652560474244     0.341274176785     0.825722668256    12.000000000000
           H          1.212813474244     2.278090176785     0.210269668256     1.007825032070
           H          0.079000474244     1.524844176785    -0.864849331744     1.007825032070
           C         -0.698084525756     0.466403176785     1.508960668256    12.000000000000
           O          1.433854474244    -0.497106823215     1.162027668256    15.994914619560
           C         -1.802973525756    -0.374886823215     0.852748668256    12.000000000000
           H         -0.966090525756     1.515959176785     1.491082668256     1.007825032070
           H         -0.588174525756     0.167711176785     2.549819668256     1.007825032070
           C         -3.168807525756    -0.150145823215     1.504361668256    12.000000000000
           H         -1.863635525756    -0.125122823215    -0.204395331744     1.007825032070
           H         -1.551776525756    -1.430911823215     0.909155668256     1.007825032070
           C         -4.276836525756    -0.981973823215     0.859971668256    12.000000000000
           H         -3.425801525756     0.904525176785     1.443657668256     1.007825032070
           H         -3.105325525756    -0.389749823215     2.563585668256     1.007825032070
           H         -4.385921525756    -0.740757823215    -0.193423331744     1.007825032070
           H         -4.065048525756    -2.044766823215     0.935663668256     1.007825032070
           H         -5.232461525756    -0.800412823215     1.341318668256     1.007825032070

  Charge       = 0
  Multiplicity = 1
  Basis Set: 6-31G*
  Basis Set:

    Orbital Energies (a.u.)
    -----------------------

    Doubly Occupied:

       1A    -20.546993     2A    -11.321928     3A    -11.231557
       4A    -11.230760     5A    -11.228830     6A    -11.225307
       7A    -11.216463     8A    -11.215458     9A    -11.212606
      10A    -11.205928    11A     -1.392518    12A     -1.093406
      13A     -1.077856    14A     -1.022456    15A     -0.991245
      16A     -0.909445    17A     -0.870223    18A     -0.807864
      19A     -0.799120    20A     -0.723480    21A     -0.668209
      22A     -0.654396    23A     -0.624109    24A     -0.619366
      25A     -0.609910    26A     -0.589930    27A     -0.575383
      28A     -0.573273    29A     -0.544785    30A     -0.529964
      31A     -0.516664    32A     -0.509109    33A     -0.504571
      34A     -0.483032    35A     -0.478445    36A     -0.472900
      37A     -0.469320    38A     -0.465862    39A     -0.455927
      40A     -0.391701

  @DF-RHF Final Energy:  -426.16920728924333

   => Energetics <=

    Nuclear Repulsion Energy =            534.9760968584298553
    One-Electron Energy =               -1638.1700868204452490
    Two-Electron Energy =                 677.0247826727720621
    DFT Exchange-Correlation Energy =       0.0000000000000000
    Empirical Dispersion Energy =           0.0000000000000000
    PCM Polarization Energy =               0.0000000000000000
    EFP Energy =                            0.0000000000000000
    Total Energy =                       -426.1692072892433316

  Mulliken Charges: (a.u.)
   Center  Symbol    Alpha    Beta     Spin     Total
       1     H     0.41941  0.41941  0.00000  0.16119
       2     C     3.24010  3.24010  0.00000 -0.48019
       3     C     3.15627  3.15627  0.00000 -0.31254
       4     H     0.41822  0.41822  0.00000  0.16356
       5     H     0.42356  0.42356  0.00000  0.15289
       6     C     3.14973  3.14973  0.00000 -0.29946
       7     H     0.41055  0.41055  0.00000  0.17890
       8     H     0.42786  0.42786  0.00000  0.14428
       9     C     3.21336  3.21336  0.00000 -0.42673
      10     H     0.40636  0.40636  0.00000  0.18729
      11     H     0.42187  0.42187  0.00000  0.15627
      12     C     2.73332  2.73332  0.00000  0.53335
      13     H     0.40367  0.40367  0.00000  0.19266
      14     H     0.41224  0.41224  0.00000  0.17551
      15     C     3.19807  3.19807  0.00000 -0.39613
      16     O     4.26685  4.26685  0.00000 -0.53370
      17     C     3.15984  3.15984  0.00000 -0.31967
      18     H     0.41701  0.41701  0.00000  0.16597
      19     H     0.40149  0.40149  0.00000  0.19702
      20     C     3.15219  3.15219  0.00000 -0.30437
      21     H     0.42023  0.42023  0.00000  0.15953
      22     H     0.40902  0.40902  0.00000  0.18195
      23     C     3.24039  3.24039  0.00000 -0.48078
      24     H     0.42184  0.42184  0.00000  0.15633
      25     H     0.41921  0.41921  0.00000  0.16159
      26     H     0.42093  0.42093  0.00000  0.15815
      27     H     0.41921  0.41921  0.00000  0.16158
      28     H     0.41722  0.41722  0.00000  0.16556

   Total alpha = 40.00000, Total beta = 40.00000, Total charge =  0.00000
