  ==> Input File <==

--------------------------------------------------------------------------
set {
	reference rhf
	basis 6-31G*
}

set_num_threads( 4 )
memory 2 gb

molecule MOL {
0 1

H	 3.276176	 0.174363	 -0.109463
N	 2.434251	 -0.367735	 -0.081097
C	 1.267428	 0.496480	 0.024474
H	 2.501951	 -0.965776	 0.720575
C	 -0.016086	 -0.325158	 -0.029487
H	 1.288818	 1.183521	 -0.816092
H	 1.267576	 1.109062	 0.929528
C	 -1.282277	 0.529072	 0.046735
H	 -0.012495	 -0.908639	 -0.945788
H	 -0.015903	 -1.041248	 0.791956
C	 -1.715540	 0.822914	 1.482577
H	 -2.090936	 0.022140	 -0.475832
H	 -1.120503	 1.467758	 -0.479245
H	 -1.919174	 -0.095492	 2.025517
H	 -2.616421	 1.428217	 1.505914
H	 -0.941568	 1.360538	 2.023084

	symmetry c1
}
set optking {
	frozen_dihedral = ("
		12 8 5 9
	")
}

ee = optimize('scf')
oeprop('DIPOLE', 'QUADRUPOLE', 'MULLIKEN_CHARGES')
f=open( 'psi4out.xyz', 'w' )
f.write( "16  " )
f.write( str(ee) + "\n" )
f.write( MOL.save_string_xyz() )
f.close()
--------------------------------------------------------------------------

    Molecular point group: c1
  Charge       = 0
  Multiplicity = 1
  Basis Set: 6-31G*
  Basis Set:
  @DF-RHF Final Energy:  -212.31407196511481
    Total Energy =                       -212.3140719651145787
    Molecular point group: c1
  Basis Set: 6-31G*
  Basis Set:
  Basis Set: 6-31G*
  Basis Set:
  @DF-RHF Final Energy:  -212.31427305510320
    Total Energy =                       -212.3142730551031718
  Basis Set: 6-31G*
  Basis Set:
  Basis Set: 6-31G*
  Basis Set:
  @DF-RHF Final Energy:  -212.31432558403040
    Total Energy =                       -212.3143255840304846
  Basis Set: 6-31G*
  Basis Set:
  Charge       = 0
  Multiplicity = 1
  Basis Set: 6-31G*
  Basis Set:

    Orbital Energies (a.u.)
    -----------------------

    Doubly Occupied:

       1A    -15.532684     2A    -11.240070     3A    -11.215208
       4A    -11.209641     5A    -11.209125     6A     -1.176801
       7A     -1.058292     8A     -0.956569     9A     -0.853245
      10A     -0.786001    11A     -0.658466    12A     -0.635598
      13A     -0.614625    14A     -0.574058    15A     -0.561864
      16A     -0.530764    17A     -0.501602    18A     -0.467330
      19A     -0.463720    20A     -0.461214    21A     -0.380737

  @DF-RHF Final Energy:  -212.31432640283356

   => Energetics <=

    Nuclear Repulsion Energy =            188.0456178888008480
    One-Electron Energy =                -658.5446619751210164
    Two-Electron Energy =                 258.1847176834864399
    DFT Exchange-Correlation Energy =       0.0000000000000000
    Empirical Dispersion Energy =           0.0000000000000000
    PCM Polarization Energy =               0.0000000000000000
    EFP Energy =                            0.0000000000000000
    Total Energy =                       -212.3143264028337285
    Molecular point group: c1
  Basis Set: 6-31G*
  Basis Set:

  -Total Gradient:
     Atom            X                  Y                   Z
    ------   -----------------  -----------------  -----------------
       1        0.000027390951    -0.000015388314     0.000003462492
       2        0.000013956880    -0.000004106919     0.000031089537
       3       -0.000001042694     0.000015023384    -0.000056887845
       4        0.000015738291    -0.000008550316     0.000000739799
       5        0.001572005754     0.002677425654    -0.001909134340
       6       -0.000029374131     0.000020179975    -0.000003749143
       7       -0.000018776485    -0.000027716254    -0.000006278330
       8       -0.001070983820    -0.001965844879     0.002887350102
       9       -0.001143894704    -0.001859520102     0.001165682917
      10       -0.000022873762     0.000008033324     0.000004730541
      11        0.000041580328     0.000003335731     0.000019071930
      12        0.000593704626     0.001162898778    -0.002092130666
      13        0.000018877417    -0.000005301297     0.000013052338
      14       -0.000009084958    -0.000004547643    -0.000024934995
      15        0.000006527313     0.000012976627    -0.000027776026
      16        0.000006248996    -0.000008897751    -0.000004288311

  **** Optimization is complete! (in 4 steps) ****
    Final optimized geometry and variables:
    Molecular point group: c1

    Geometry (in Angstrom), charge = 0, multiplicity = 1:

    H            3.107671802412    -0.064398030417    -0.398761354593
    N            2.262961146428    -0.602232339426    -0.370849028625
    C            1.098562849870     0.268128065840    -0.293121318281
    H            2.318976972676    -1.187657193441     0.440915956640
    C           -0.186020000481    -0.551823437767    -0.359168349120
    H            1.132711465652     0.942264030959    -1.143510773345
    H            1.092249039521     0.894187701395     0.601849785384
    C           -1.466516495533     0.290058144912    -0.250155218816
    H           -0.185314413583    -1.122760939258    -1.281972006376
    H           -0.176454731162    -1.291208464103     0.441604843920
    C           -1.891811992047     0.595843237002     1.186429730568
    H           -2.275371831740    -0.218315006191    -0.767359282870
    H           -1.325548701506     1.225739254289    -0.788697519549
    H           -2.111070520369    -0.319005873899     1.729606608138
    H           -2.783903678799     1.214357645559     1.206787714945
    H           -1.114769624223     1.124060148815     1.730883437643

  Mulliken Charges: (a.u.)
   Center  Symbol    Alpha    Beta     Spin     Total
       1     H     0.33245  0.33245  0.00000  0.33511
       2     N     3.92188  3.92188  0.00000 -0.84375
       3     C     3.06182  3.06182  0.00000 -0.12365
       4     H     0.33519  0.33519  0.00000  0.32962
       5     C     3.15271  3.15271  0.00000 -0.30541
       6     H     0.42049  0.42049  0.00000  0.15903
       7     H     0.43377  0.43377  0.00000  0.13246
       8     C     3.15883  3.15883  0.00000 -0.31765
       9     H     0.41112  0.41112  0.00000  0.17777
      10     H     0.42756  0.42756  0.00000  0.14487
      11     C     3.23963  3.23963  0.00000 -0.47927
      12     H     0.41859  0.41859  0.00000  0.16283
      13     H     0.42316  0.42316  0.00000  0.15369
      14     H     0.42146  0.42146  0.00000  0.15708
      15     H     0.41932  0.41932  0.00000  0.16135
      16     H     0.42204  0.42204  0.00000  0.15592

   Total alpha = 21.00000, Total beta = 21.00000, Total charge = -0.00000
