  ==> Input File <==

--------------------------------------------------------------------------
set {
	reference rhf
	basis 6-31G*
}

set_num_threads( 1 )
memory 2 gb

molecule MOL {
0 1

H	 -2.139647	 -0.793389	 0.380079
O	 -1.422729	 -0.573567	 -0.196946
C	 -0.731407	 0.539437	 0.309156
C	 0.680193	 0.672443	 -0.251532
H	 -1.319765	 1.404033	 0.030086
H	 -0.700012	 0.506517	 1.397677
C	 1.599139	 -0.492137	 0.118598
H	 0.616402	 0.758534	 -1.332349
H	 1.107032	 1.602637	 0.117369
H	 1.239738	 -1.428634	 -0.297334
H	 2.601428	 -0.335055	 -0.265730
H	 1.674954	 -0.608418	 1.197020

	symmetry c1
}
set optking {
	frozen_dihedral = ("
		8 4 3 2
	")
}

ee = energy('scf')
oeprop('DIPOLE', 'QUADRUPOLE', 'MULLIKEN_CHARGES')
f=open( 'psi4out.xyz', 'w' )
f.write( "12  " )
f.write( str(ee) + "\n" )
f.write( MOL.save_string_xyz() )
f.close()
--------------------------------------------------------------------------

    Molecular point group: c1

    Geometry (in Angstrom), charge = 0, multiplicity = 1:

       Center              X                  Y                   Z               Mass
    ------------   -----------------  -----------------  -----------------  -----------------
           H         -2.121712578838    -0.803007147765     0.376733083407     1.007825032070
           O         -1.404794578838    -0.583185147765    -0.200291916593    15.994914619560
           C         -0.713472578838     0.529818852235     0.305810083407    12.000000000000
           C          0.698127421162     0.662824852235    -0.254877916593    12.000000000000
           H         -1.301830578838     1.394414852235     0.026740083407     1.007825032070
           H         -0.682077578838     0.496898852235     1.394331083407     1.007825032070
           C          1.617073421162    -0.501755147765     0.115252083407    12.000000000000
           H          0.634336421162     0.748915852235    -1.335694916593     1.007825032070
           H          1.124966421162     1.593018852235     0.114023083407     1.007825032070
           H          1.257672421162    -1.438252147765    -0.300679916593     1.007825032070
           H          2.619362421162    -0.344673147765    -0.269075916593     1.007825032070
           H          1.692888421162    -0.618036147765     1.193674083407     1.007825032070

  Charge       = 0
  Multiplicity = 1
  Basis Set: 6-31G*
  Basis Set:

    Orbital Energies (a.u.)
    -----------------------

    Doubly Occupied:

       1A    -20.550909     2A    -11.267717     3A    -11.217672
       4A    -11.205459     5A     -1.358626     6A     -1.046750
       7A     -0.918807     8A     -0.799776     9A     -0.702527
      10A     -0.640854    11A     -0.590167    12A     -0.581565
      13A     -0.531510    14A     -0.500466    15A     -0.486282
      16A     -0.464229    17A     -0.428611

  @DF-RHF Final Energy:  -193.10843047464493

   => Energetics <=

    Nuclear Repulsion Energy =            132.4840809836433664
    One-Electron Energy =                -524.6011253062696369
    Two-Electron Energy =                 199.0086138479814224
    DFT Exchange-Correlation Energy =       0.0000000000000000
    Empirical Dispersion Energy =           0.0000000000000000
    PCM Polarization Energy =               0.0000000000000000
    EFP Energy =                            0.0000000000000000
    Total Energy =                       -193.1084304746448481

  Mulliken Charges: (a.u.)
   Center  Symbol    Alpha    Beta     Spin     Total
       1     H     0.27983  0.27983  0.00000  0.44034
       2     O     4.37189  4.37189  0.00000 -0.74377
       3     C     2.99367  2.99367  0.00000  0.01266
       4     C     3.16056  3.16056  0.00000 -0.32111
       5     H     0.42807  0.42807  0.00000  0.14385
       6     H     0.43431  0.43431  0.00000  0.13138
       7     C     3.24207  3.24207  0.00000 -0.48414
       8     H     0.41401  0.41401  0.00000  0.17199
       9     H     0.42167  0.42167  0.00000  0.15666
      10     H     0.40854  0.40854  0.00000  0.18292
      11     H     0.42032  0.42032  0.00000  0.15937
      12     H     0.42507  0.42507  0.00000  0.14987

   Total alpha = 17.00000, Total beta = 17.00000, Total charge =  0.00000
