  ==> Input File <==

--------------------------------------------------------------------------
set {
	reference rhf
	basis 6-31G*
}

set_num_threads( 4 )
memory 2 gb

molecule MOL {
0 1

H	 -0.293175	 -1.115534	 0.821772
N	 -0.626943	 -0.667432	 -0.000092
C	 -1.979713	 -0.158776	 0.000050
C	 0.208865	 -0.563203	 -1.061566
H	 -2.520245	 -0.492427	 -0.879443
H	 -1.934741	 0.918111	 -0.004428
H	 -2.517790	 -0.485056	 0.883818
C	 1.582197	 -1.165821	 -0.842938
O	 -0.103048	 -0.039019	 -2.095082
H	 1.504316	 -2.225838	 -0.622366
H	 2.169861	 -1.029716	 -1.738384
H	 2.083070	 -0.685521	 -0.008208

	symmetry c1
}
set optking {
	frozen_dihedral = ("
		4 2 3 5
	")
}

ee = optimize('scf')
oeprop('DIPOLE', 'QUADRUPOLE', 'MULLIKEN_CHARGES')
f=open( 'psi4out.xyz', 'w' )
f.write( "12  " )
f.write( str(ee) + "\n" )
f.write( MOL.save_string_xyz() )
f.close()
--------------------------------------------------------------------------

    Molecular point group: c1
  Charge       = 0
  Multiplicity = 1
  Basis Set: 6-31G*
  Basis Set:
  @DF-RHF Final Energy:  -247.00480927141714
    Total Energy =                       -247.0048092714170025
    Molecular point group: c1
  Basis Set: 6-31G*
  Basis Set:
  Basis Set: 6-31G*
  Basis Set:
  @DF-RHF Final Energy:  -247.00552773429087
    Total Energy =                       -247.0055277342906948
  Basis Set: 6-31G*
  Basis Set:
  Basis Set: 6-31G*
  Basis Set:
  @DF-RHF Final Energy:  -247.00563605339048
    Total Energy =                       -247.0056360533905035
  Basis Set: 6-31G*
  Basis Set:
  Basis Set: 6-31G*
  Basis Set:
  @DF-RHF Final Energy:  -247.00553229452655
    Total Energy =                       -247.0055322945267449
  Basis Set: 6-31G*
  Basis Set:
  @DF-RHF Final Energy:  -247.00565659543463
    Total Energy =                       -247.0056565954348571
  @DF-RHF Final Energy:  -247.00566367662518
    Total Energy =                       -247.0056636766252041
  @DF-RHF Final Energy:  -247.00569752159060
    Total Energy =                       -247.0056975215906618
  @DF-RHF Final Energy:  -247.00570209869838
    Total Energy =                       -247.0057020986981797
  @DF-RHF Final Energy:  -247.00570451126046
    Total Energy =                       -247.0057045112605465
  @DF-RHF Final Energy:  -247.00571050525573
    Total Energy =                       -247.0057105052556494
  @DF-RHF Final Energy:  -247.00571720738969
    Total Energy =                       -247.0057172073894662
  @DF-RHF Final Energy:  -247.00572393902345
    Total Energy =                       -247.0057239390235395
  @DF-RHF Final Energy:  -247.00573226464923
    Total Energy =                       -247.0057322646492253
  @DF-RHF Final Energy:  -247.00574061304653
    Total Energy =                       -247.0057406130462141
  @DF-RHF Final Energy:  -247.00575599231050
    Total Energy =                       -247.0057559923105259
  @DF-RHF Final Energy:  -247.00576322236628
    Total Energy =                       -247.0057632223663404
  @DF-RHF Final Energy:  -247.00576673531683
    Total Energy =                       -247.0057667353169109
  @DF-RHF Final Energy:  -247.00576985271698
    Total Energy =                       -247.0057698527169805
  @DF-RHF Final Energy:  -247.00577287870621
    Total Energy =                       -247.0057728787062388
  @DF-RHF Final Energy:  -247.00577582405856
    Total Energy =                       -247.0057758240586736
  @DF-RHF Final Energy:  -247.00577870043136
    Total Energy =                       -247.0057787004313923
  @DF-RHF Final Energy:  -247.00578151468304
    Total Energy =                       -247.0057815146830080
  @DF-RHF Final Energy:  -247.00578426920825
    Total Energy =                       -247.0057842692082204
  @DF-RHF Final Energy:  -247.00578696517184
    Total Energy =                       -247.0057869651719784
  @DF-RHF Final Energy:  -247.00578960350569
    Total Energy =                       -247.0057896035056615
  @DF-RHF Final Energy:  -247.00579712470940
    Total Energy =                       -247.0057971247094315
  Basis Set: 6-31G*
  Basis Set:
  @DF-RHF Final Energy:  -247.00580404699645
    Total Energy =                       -247.0058040469965590
  Basis Set: 6-31G*
  Basis Set:
  Basis Set: 6-31G*
  Basis Set:
  @DF-RHF Final Energy:  -247.00581715041025
    Total Energy =                       -247.0058171504104507
  Basis Set: 6-31G*
  Basis Set:
  Basis Set: 6-31G*
  Basis Set:
  @DF-RHF Final Energy:  -247.00582261033944
    Total Energy =                       -247.0058226103395214
  Basis Set: 6-31G*
  Basis Set:
  Charge       = 0
  Multiplicity = 1
  Basis Set: 6-31G*
  Basis Set:

    Orbital Energies (a.u.)
    -----------------------

    Doubly Occupied:

       1A    -20.515021     2A    -15.581931     3A    -11.341533
       4A    -11.255095     5A    -11.230044     6A     -1.384015
       7A     -1.228006     8A     -1.015178     9A     -0.932184
      10A     -0.787634    11A     -0.688911    12A     -0.647730
      13A     -0.632959    14A     -0.584393    15A     -0.579465
      16A     -0.555866    17A     -0.546432    18A     -0.502798
      19A     -0.412700    20A     -0.385667

  @DF-RHF Final Energy:  -247.00582340293349

   => Energetics <=

    Nuclear Repulsion Energy =            181.5181946963649295
    One-Electron Energy =                -695.4329142644317017
    Two-Electron Energy =                 266.9088961651333989
    DFT Exchange-Correlation Energy =       0.0000000000000000
    Empirical Dispersion Energy =           0.0000000000000000
    PCM Polarization Energy =               0.0000000000000000
    EFP Energy =                            0.0000000000000000
    Total Energy =                       -247.0058234029333448
    Molecular point group: c1
  Basis Set: 6-31G*
  Basis Set:

  -Total Gradient:
     Atom            X                  Y                   Z
    ------   -----------------  -----------------  -----------------
       1       -0.000001891301    -0.000007638751    -0.000003098136
       2        0.000007635048     0.000009238498     0.000005749893
       3        0.000007254360     0.000029794260    -0.000004661297
       4        0.000008864563     0.000014042013     0.000004942843
       5       -0.000008416199    -0.000018726399     0.000008572758
       6        0.000000347618     0.000000114996    -0.000001338044
       7        0.000000097761     0.000001801105     0.000000597922
       8       -0.000002727144    -0.000003917698    -0.000001771712
       9       -0.000011491026    -0.000028386755    -0.000013458163
      10       -0.000001813744    -0.000012503451    -0.000019051678
      11        0.000009648617     0.000022669072     0.000000374750
      12       -0.000007508554    -0.000006486892     0.000023140860

  **** Optimization is complete! (in 30 steps) ****
    Final optimized geometry and variables:
    Molecular point group: c1

    Geometry (in Angstrom), charge = 0, multiplicity = 1:

    H           -0.166393131584    -0.745935029717     1.563131773498
    N           -0.476546478802    -0.274738424491     0.746061687878
    C           -1.785166514684     0.341684335794     0.755578150113
    C            0.406034501513    -0.044900595698    -0.253024295424
    H           -2.268217627199     0.192932965540    -0.199299172581
    H           -1.728418332542     1.407955005850     0.946633264232
    H           -2.383170191439    -0.122788591954     1.528674612684
    C            1.778902718631    -0.656447593841    -0.066140814410
    O            0.127930686855     0.613549825456    -1.217588005974
    H            1.753414277001    -1.570873464225     0.515720199069
    H            2.206355190456    -0.856580785085    -1.038247977166
    H            2.417379370868     0.057576719798     0.445054817826

  Mulliken Charges: (a.u.)
   Center  Symbol    Alpha    Beta     Spin     Total
       1     H     0.30963  0.30963  0.00000  0.38075
       2     N     3.89214  3.89214  0.00000 -0.78429
       3     C     3.13499  3.13499  0.00000 -0.26999
       4     C     2.63086  2.63086  0.00000  0.73829
       5     H     0.39869  0.39869  0.00000  0.20261
       6     H     0.41158  0.41158  0.00000  0.17683
       7     H     0.41776  0.41776  0.00000  0.16447
       8     C     3.29216  3.29216  0.00000 -0.58432
       9     O     4.30244  4.30244  0.00000 -0.60489
      10     H     0.41504  0.41504  0.00000  0.16992
      11     H     0.39341  0.39341  0.00000  0.21319
      12     H     0.40129  0.40129  0.00000  0.19742

   Total alpha = 20.00000, Total beta = 20.00000, Total charge = -0.00000
