                              Psi4 1.0.54 Driver

  ==> Input File <==

--------------------------------------------------------------------------
set {
	reference rhf
	basis cc-pvtz
}

set_num_threads( 4 )
memory 2 gb

molecule MOL {
0 1

O	 -1.510770	 1.240811	 -0.054933
C	 -1.081510	 0.147522	 0.122720
C	 0.327029	 -0.064006	 0.641890
C	 -1.903028	 -1.084121	 -0.174656
C	 1.349460	 -0.017068	 -0.500215
H	 0.399029	 -1.014606	 1.159950
H	 0.538021	 0.726928	 1.350471
C	 2.023199	 1.344852	 -0.622660
H	 2.106562	 -0.780543	 -0.346135
H	 0.844478	 -0.262515	 -1.427079
H	 2.731264	 1.354293	 -1.442772
H	 2.561857	 1.600189	 0.283653
H	 1.293025	 2.125445	 -0.805390
H	 -1.341891	 -1.779207	 -0.789259
H	 -2.820449	 -0.808163	 -0.671328
H	 -2.133314	 -1.593056	 0.755831

	symmetry c1
}
set optking {
	frozen_dihedral = ("
		9 5 3 2
	")
}

ee,wfn = optimize('scf', return_wfn=True)
oeprop( wfn, 'DIPOLE', 'QUADRUPOLE', 'MULLIKEN_CHARGES')
f=open( 'psi4out.xyz', 'w' )
f.write( "16  " )
f.write( str(ee) + "\n" )
f.write( MOL.save_string_xyz() )
f.close()
--------------------------------------------------------------------------

    Molecular point group: c1
  Charge       = 0
  Multiplicity = 1
  Basis Set: CC-PVTZ
  Basis Set:
  @DF-RHF Final Energy:  -270.12523617484425
    Total Energy =                       -270.1252361748445310
    Molecular point group: c1
  Basis Set: CC-PVTZ
  Basis Set:
  Basis Set: CC-PVTZ
  Basis Set:
  @DF-RHF Final Energy:  -270.12549632492335
    Total Energy =                       -270.1254963249231764
  Basis Set: CC-PVTZ
  Basis Set:
  Basis Set: CC-PVTZ
  Basis Set:
  @DF-RHF Final Energy:  -270.12569579118917
    Total Energy =                       -270.1256957911890026
  Basis Set: CC-PVTZ
  Basis Set:
  Basis Set: CC-PVTZ
  Basis Set:
  @DF-RHF Final Energy:  -270.12576003285511
    Total Energy =                       -270.1257600328551121
  Basis Set: CC-PVTZ
  Basis Set:
  Basis Set: CC-PVTZ
  Basis Set:
  @DF-RHF Final Energy:  -270.12577208005143
    Total Energy =                       -270.1257720800513766
  Basis Set: CC-PVTZ
  Basis Set:
  Basis Set: CC-PVTZ
  Basis Set:
  @DF-RHF Final Energy:  -270.12577784955732
    Total Energy =                       -270.1257778495571529
  Basis Set: CC-PVTZ
  Basis Set:
  Basis Set: CC-PVTZ
  Basis Set:
  @DF-RHF Final Energy:  -270.12577933055047
    Total Energy =                       -270.1257793305505857
  Basis Set: CC-PVTZ
  Basis Set:
  Charge       = 0
  Multiplicity = 1
  Basis Set: CC-PVTZ
  Basis Set:

    Orbital Energies (a.u.)
    -----------------------

    Doubly Occupied:

       1A    -20.537388     2A    -11.319974     3A    -11.232997
       4A    -11.228457     5A    -11.227321     6A    -11.212401
       7A     -1.397194     8A     -1.082041     9A     -1.013023
      10A     -0.948336    11A     -0.831664    12A     -0.736050
      13A     -0.659732    14A     -0.646155    15A     -0.619807
      16A     -0.594155    17A     -0.585333    18A     -0.560643
      19A     -0.543923    20A     -0.512209    21A     -0.495240
      22A     -0.488300    23A     -0.474527    24A     -0.399644

  @DF-RHF Final Energy:  -270.12577944430848

   => Energetics <=

    Nuclear Repulsion Energy =            240.2007720962974133
    One-Electron Energy =                -841.9600777608008002
    Two-Electron Energy =                 331.6335262201949945
    DFT Exchange-Correlation Energy =       0.0000000000000000
    Empirical Dispersion Energy =           0.0000000000000000
    PCM Polarization Energy =               0.0000000000000000
    EFP Energy =                            0.0000000000000000
    Total Energy =                       -270.1257794443083640
    Molecular point group: c1
  Basis Set: CC-PVTZ
  Basis Set:

  -Total Gradient:
     Atom            X                  Y                   Z
    ------   -----------------  -----------------  -----------------
       1       -0.000010607591    -0.000002349747    -0.000002655911
       2       -0.000270766893    -0.002507429782    -0.000258768879
       3       -0.000063369824     0.002878621811    -0.000070011185
       4       -0.000007531333    -0.000008927281     0.000016128761
       5        0.002324925402     0.001970652058     0.002097529644
       6       -0.000007121548    -0.000004734760     0.000004421896
       7       -0.000003642099    -0.000001950949     0.000002195107
       8       -0.000002324481    -0.000002578350    -0.000002219126
       9       -0.001968038728    -0.002328735269    -0.001771696282
      10        0.000006975070     0.000003084742    -0.000004647145
      11        0.000001010617     0.000000414947    -0.000001632077
      12       -0.000001322845    -0.000000773987     0.000002171440
      13       -0.000001677191     0.000001565753    -0.000000524717
      14        0.000004324486     0.000003786453    -0.000004159145
      15       -0.000000524312     0.000002729907    -0.000002342322
      16       -0.000000308733    -0.000003375545    -0.000003790060

  **** Optimization is complete! (in 8 steps) ****
    Final optimized geometry and variables:
    Molecular point group: c1

    Geometry (in Angstrom), charge = 0, multiplicity = 1:

    O           -1.428527524107     0.975376070721     0.165422935792
    C           -0.949640229964    -0.108902150910     0.251216103402
    C            0.456062569362    -0.316952754984     0.774865828928
    C           -1.712131948076    -1.343246588261    -0.171546036645
    C            1.487562527742    -0.308554833426    -0.377319028568
    H            0.499661715935    -1.264659718494     1.299243388972
    H            0.674772584201     0.469857765761     1.483618033749
    C            2.146890328061     1.050166436620    -0.581219434462
    H            2.233350352840    -1.073440737781    -0.196509589194
    H            0.999685208241    -0.604531891176    -1.301687250644
    H            2.827287683843     1.028069088156    -1.424574492862
    H            2.712586983619     1.341919466691     0.296715017429
    H            1.403413538134     1.815890541146    -0.767014551992
    H           -1.097161965290    -1.992540011106    -0.783515809643
    H           -2.604808488708    -1.061585435854    -0.708543279615
    H           -1.988820224854    -1.904759016756     0.715227250360

  Mulliken Charges: (a.u.)
   Center  Symbol    Alpha    Beta     Spin     Total
       1     O     4.17738  4.17738  0.00000 -0.35476
       2     C     2.85849  2.85849  0.00000  0.28302
       3     C     3.10639  3.10639  0.00000 -0.21278
       4     C     3.15442  3.15442  0.00000 -0.30885
       5     C     3.09091  3.09091  0.00000 -0.18183
       6     H     0.44207  0.44207  0.00000  0.11587
       7     H     0.44037  0.44037  0.00000  0.11927
       8     C     3.14465  3.14465  0.00000 -0.28930
       9     H     0.44634  0.44634  0.00000  0.10732
      10     H     0.45514  0.45514  0.00000  0.08973
      11     H     0.44999  0.44999  0.00000  0.10001
      12     H     0.45484  0.45484  0.00000  0.09031
      13     H     0.44425  0.44425  0.00000  0.11151
      14     H     0.45065  0.45065  0.00000  0.09870
      15     H     0.43625  0.43625  0.00000  0.12750
      16     H     0.44786  0.44786  0.00000  0.10427

   Total alpha = 24.00000, Total beta = 24.00000, Total charge =  0.00000

*** Psi4 exiting successfully. Buy a developer a beer!
