  ==> Input File <==

--------------------------------------------------------------------------
set {
	reference rhf
	basis 6-31G*
}

set_num_threads( 4 )
memory 2 gb

molecule MOL {
0 1

O	 1.214711	 1.306902	 -0.000291
C	 1.122059	 0.121804	 -0.000188
C	 -0.170150	 -0.657997	 -0.000227
O	 2.172624	 -0.688929	 0.000216
C	 -1.412532	 0.227344	 -0.000051
H	 -0.153847	 -1.313287	 -0.866878
H	 -0.153779	 -1.313623	 0.866169
C	 -2.706999	 -0.587347	 0.000253
H	 -1.388145	 0.879278	 -0.867744
H	 -1.387827	 0.879326	 0.867597
C	 -3.956777	 0.291889	 0.001723
H	 -2.726260	 -1.239418	 -0.870670
H	 -2.725071	 -1.240655	 0.870272
H	 -3.985359	 0.933065	 -0.874480
H	 -4.860123	 -0.309978	 0.001613
H	 -3.984471	 0.931357	 0.879193
C	 3.452279	 -0.082609	 0.000533
H	 3.583069	 0.529321	 -0.880332
H	 4.163299	 -0.894027	 0.001117
H	 3.582335	 0.529955	 0.881077

	symmetry c1
}
set optking {
	frozen_dihedral = ("
		1 2 4 17
	")
}

ee = optimize('scf')
oeprop('DIPOLE', 'QUADRUPOLE', 'MULLIKEN_CHARGES')
f=open( 'psi4out.xyz', 'w' )
f.write( "20  " )
f.write( str(ee) + "\n" )
f.write( MOL.save_string_xyz() )
f.close()
--------------------------------------------------------------------------

    Molecular point group: c1
  Charge       = 0
  Multiplicity = 1
  Basis Set: 6-31G*
  Basis Set:
  @DF-RHF Final Energy:  -383.94159350607237
    Total Energy =                       -383.9415935060725360
    Molecular point group: c1
  Basis Set: 6-31G*
  Basis Set:
  Charge       = 0
  Multiplicity = 1
  Basis Set: 6-31G*
  Basis Set:

    Orbital Energies (a.u.)
    -----------------------

    Doubly Occupied:

       1A    -20.603770     2A    -20.545577     3A    -11.372438
       4A    -11.280951     5A    -11.235740     6A    -11.220350
       7A    -11.219365     8A    -11.210679     9A     -1.469472
      10A     -1.362925    11A     -1.088780    12A     -1.024448
      13A     -0.969155    14A     -0.885890    15A     -0.804045
      16A     -0.767628    17A     -0.696833    18A     -0.683831
      19A     -0.672026    20A     -0.646140    21A     -0.597512
      22A     -0.592095    23A     -0.578911    24A     -0.539057
      25A     -0.537770    26A     -0.522815    27A     -0.500676
      28A     -0.478260    29A     -0.473461    30A     -0.470687
      31A     -0.455819    32A     -0.437078

  @DF-RHF Final Energy:  -383.94159337617270

   => Energetics <=

    Nuclear Repulsion Energy =            381.0711662732013565
    One-Electron Energy =               -1278.1371542762024092
    Two-Electron Energy =                 513.1243946268282343
    DFT Exchange-Correlation Energy =       0.0000000000000000
    Empirical Dispersion Energy =           0.0000000000000000
    PCM Polarization Energy =               0.0000000000000000
    EFP Energy =                            0.0000000000000000
    Total Energy =                       -383.9415933761728184
    Molecular point group: c1
  Basis Set: 6-31G*
  Basis Set:

  -Total Gradient:
     Atom            X                  Y                   Z
    ------   -----------------  -----------------  -----------------
       1        0.000000253619     0.000006086877    -0.000074653106
       2        0.000006351576    -0.000009142603     0.000215327959
       3       -0.000001118610     0.000000516328    -0.000083130023
       4       -0.000005166680     0.000002142626    -0.000046654525
       5       -0.000000084929    -0.000000842549     0.000009589031
       6       -0.000013261724    -0.000014421091    -0.000002187509
       7        0.000011929495     0.000013529701    -0.000002701503
       8       -0.000000494159     0.000001664817    -0.000002303561
       9       -0.000004419456     0.000003336756     0.000002336309
      10        0.000003959068    -0.000003808758     0.000002449669
      11        0.000000838598    -0.000001542511    -0.000006454083
      12        0.000003972320    -0.000003369390     0.000003164164
      13       -0.000004330184     0.000004302305     0.000003089741
      14       -0.000000944750     0.000001064923    -0.000000926598
      15       -0.000000892196    -0.000000373648    -0.000001717405
      16        0.000001883751    -0.000000982074    -0.000000099344
      17        0.000003368506     0.000003340196    -0.000014185305
      18        0.000003210874     0.000000315328    -0.000000090235
      19       -0.000001596224    -0.000000962959    -0.000001068889
      20       -0.000003458902    -0.000000854275     0.000000215213

  **** Optimization is complete! (in 2 steps) ****
    Final optimized geometry and variables:
    Molecular point group: c1

    Geometry (in Angstrom), charge = 0, multiplicity = 1:

    O            1.214731391205     1.306924109402     0.001129403742
    C            1.122059583150     0.121829240328     0.000875134546
    C           -0.170154367614    -0.657984492157     0.000349847126
    O            2.172630345932    -0.688923362514    -0.000593162276
    C           -1.412547337783     0.227342721771     0.001390890160
    H           -0.153980674517    -1.312635796430    -0.866791968647
    H           -0.153682719797    -1.314271286527     0.866234391718
    C           -2.707002560911    -0.587353744658     0.000228639165
    H           -1.387947589838     0.880373523462    -0.865472152879
    H           -1.388087621731     0.878222106051     0.869878848403
    C           -3.956789852928     0.291859514793    -0.001108215749
    H           -2.724809873664    -1.240137137735    -0.870188122150
    H           -2.726523378539    -1.239937099218     0.870757920436
    H           -3.984109315792     0.931990253034    -0.878118043162
    H           -4.860137229648    -0.310016416574    -0.001811996503
    H           -3.985715706746     0.932365303205     0.875576144005
    C            3.452286003983    -0.082628370451    -0.001894152960
    H            3.581688458084     0.529945393920    -0.882529896998
    H            4.163268433911    -0.894083258104    -0.003052746975
    H            3.583791774908     0.529283003889     0.878886666281

  Mulliken Charges: (a.u.)
   Center  Symbol    Alpha    Beta     Spin     Total
       1     O     4.28597  4.28597  0.00000 -0.57194
       2     C     2.60524  2.60524  0.00000  0.78952
       3     C     3.20814  3.20814  0.00000 -0.41629
       4     O     4.30723  4.30723  0.00000 -0.61446
       5     C     3.15110  3.15110  0.00000 -0.30219
       6     H     0.40065  0.40065  0.00000  0.19870
       7     H     0.40068  0.40068  0.00000  0.19865
       8     C     3.15424  3.15424  0.00000 -0.30848
       9     H     0.41195  0.41195  0.00000  0.17610
      10     H     0.41197  0.41197  0.00000  0.17606
      11     C     3.23931  3.23931  0.00000 -0.47861
      12     H     0.42296  0.42296  0.00000  0.15408
      13     H     0.42295  0.42295  0.00000  0.15410
      14     H     0.41996  0.41996  0.00000  0.16008
      15     H     0.41874  0.41874  0.00000  0.16253
      16     H     0.41996  0.41996  0.00000  0.16008
      17     C     3.09245  3.09245  0.00000 -0.18489
      18     H     0.40905  0.40905  0.00000  0.18189
      19     H     0.40841  0.40841  0.00000  0.18318
      20     H     0.40905  0.40905  0.00000  0.18190

   Total alpha = 32.00000, Total beta = 32.00000, Total charge =  0.00000
