                              Psi4 1.0.54 Driver

  ==> Input File <==

--------------------------------------------------------------------------
set {
	reference rhf
	basis cc-pvtz
}

set_num_threads( 4 )
memory 2 gb

molecule MOL {
0 1

H	 -3.387031	 -0.086440	 -0.743728
O	 -2.602117	 -0.613291	 -0.751289
C	 -1.575128	 0.156194	 -0.401831
C	 -0.281109	 -0.611561	 -0.391887
O	 -1.707515	 1.301996	 -0.141866
C	 0.926581	 0.227233	 0.000178
H	 -0.158230	 -1.042750	 -1.380170
H	 -0.413777	 -1.451780	 0.282019
C	 2.220156	 -0.582071	 -0.000088
H	 1.016889	 1.065081	 -0.681944
H	 0.761036	 0.655559	 0.982295
C	 3.466689	 0.296012	 -0.000457
H	 2.239073	 -1.234095	 -0.869382
H	 2.239505	 -1.233985	 0.869270
H	 3.493549	 0.935857	 -0.875887
H	 4.368821	 -0.304526	 -0.001199
H	 3.494559	 0.935166	 0.875458

	symmetry c1
}
set optking {
	frozen_dihedral = ("
		10 6 9 13
	")
}

ee,wfn = optimize('scf', return_wfn=True)
oeprop( wfn, 'DIPOLE', 'QUADRUPOLE', 'MULLIKEN_CHARGES')
f=open( 'psi4out.xyz', 'w' )
f.write( "17  " )
f.write( str(ee) + "\n" )
f.write( MOL.save_string_xyz() )
f.close()
--------------------------------------------------------------------------

    Molecular point group: c1
  Charge       = 0
  Multiplicity = 1
  Basis Set: CC-PVTZ
  Basis Set:
  @DF-RHF Final Energy:  -345.04791764132386
    Total Energy =                       -345.0479176413239202
    Molecular point group: c1
  Basis Set: CC-PVTZ
  Basis Set:
  Basis Set: CC-PVTZ
  Basis Set:
  @DF-RHF Final Energy:  -345.04802427913904
    Total Energy =                       -345.0480242791389855
  Basis Set: CC-PVTZ
  Basis Set:
  Basis Set: CC-PVTZ
  Basis Set:
  @DF-RHF Final Energy:  -345.04768663456031
    Total Energy =                       -345.0476866345603639
  Basis Set: CC-PVTZ
  Basis Set:
  Basis Set: CC-PVTZ
  Basis Set:
  @DF-RHF Final Energy:  -345.04807481568338
    Total Energy =                       -345.0480748156833215
  Basis Set: CC-PVTZ
  Basis Set:
  Basis Set: CC-PVTZ
  Basis Set:
  @DF-RHF Final Energy:  -345.04807832724441
    Total Energy =                       -345.0480783272442409
  Basis Set: CC-PVTZ
  Basis Set:
  Charge       = 0
  Multiplicity = 1
  Basis Set: CC-PVTZ
  Basis Set:

    Orbital Energies (a.u.)
    -----------------------

    Doubly Occupied:

       1A    -20.604224     2A    -20.540818     3A    -11.373801
       4A    -11.239717     5A    -11.221159     6A    -11.220541
       7A    -11.211019     8A     -1.477809     9A     -1.369342
      10A     -1.092606    11A     -1.020009    12A     -0.915116
      13A     -0.825403    14A     -0.791429    15A     -0.704051
      16A     -0.688722    17A     -0.671069    18A     -0.629995
      19A     -0.593651    20A     -0.587089    21A     -0.573973
      22A     -0.538830    23A     -0.510005    24A     -0.484851
      25A     -0.484167    26A     -0.478540    27A     -0.469922
      28A     -0.446381

  @DF-RHF Final Energy:  -345.04807839080007

   => Energetics <=

    Nuclear Repulsion Energy =            304.7489145417699206
    One-Electron Energy =               -1074.0655090196255514
    Two-Electron Energy =                 424.2685160870551044
    DFT Exchange-Correlation Energy =       0.0000000000000000
    Empirical Dispersion Energy =           0.0000000000000000
    PCM Polarization Energy =               0.0000000000000000
    EFP Energy =                            0.0000000000000000
    Total Energy =                       -345.0480783908005833
    Molecular point group: c1
  Basis Set: CC-PVTZ
  Basis Set:

  -Total Gradient:
     Atom            X                  Y                   Z
    ------   -----------------  -----------------  -----------------
       1        0.000002882849     0.000000232127     0.000000036633
       2       -0.000003465465    -0.000005956619     0.000000958220
       3        0.000010645470     0.000005935753     0.000004734215
       4       -0.000005133357    -0.000009010257     0.000003770562
       5        0.000001105020     0.000001344395    -0.000004420768
       6       -0.001632751672    -0.002661080283    -0.002410010110
       7        0.000000704969     0.000002283385    -0.000004923761
       8        0.000004459566     0.000004466294    -0.000005246541
       9        0.001951134382     0.003081973137    -0.001420637636
      10        0.001046765259     0.001723437350     0.002238291253
      11        0.000003812360    -0.000001445469     0.000006271855
      12        0.000005295703     0.000012517941    -0.000004163731
      13       -0.001374061483    -0.002141122979     0.001593829418
      14        0.000001908901    -0.000006691394     0.000002943855
      15        0.000001868047    -0.000003604483     0.000003746612
      16       -0.000012450146     0.000000607396     0.000000796845
      17       -0.000002720408    -0.000003886292    -0.000005976924

  **** Optimization is complete! (in 6 steps) ****
    Final optimized geometry and variables:
    Molecular point group: c1

    Geometry (in Angstrom), charge = 0, multiplicity = 1:

    H           -3.417629957028    -0.122044133331    -0.430132466424
    O           -2.631378705118    -0.646016251341    -0.461756156816
    C           -1.598211595387     0.125830975211    -0.136409814989
    C           -0.301867132356    -0.637516293097    -0.164143486388
    O           -1.727970293038     1.269375881643     0.134412951267
    C            0.912736667242     0.203214947955     0.196446942086
    H           -0.205057380826    -1.066350635767    -1.156109837002
    H           -0.412570717252    -1.479473314916     0.511861077433
    C            2.206869532728    -0.609141894763     0.213539400603
    H            1.004834975574     1.037969304735    -0.489393773159
    H            0.757403626924     0.652551318909     1.171060620944
    C            3.457564637414     0.259905521678     0.256259635560
    H            2.239561614692    -1.269973845404    -0.648713775671
    H            2.197989201433    -1.267036862748     1.078924122982
    H            3.528782824332     0.885787940816    -0.626595302440
    H            4.354578329129    -0.346021142559     0.307335792533
    H            3.448805098014     0.912623189646     1.122697705597

  Mulliken Charges: (a.u.)
   Center  Symbol    Alpha    Beta     Spin     Total
       1     H     0.38240  0.38240  0.00000  0.23520
       2     O     4.15977  4.15977  0.00000 -0.31953
       3     C     2.80476  2.80476  0.00000  0.39049
       4     C     3.11072  3.11072  0.00000 -0.22144
       5     O     4.19098  4.19098  0.00000 -0.38196
       6     C     3.08294  3.08294  0.00000 -0.16588
       7     H     0.43793  0.43793  0.00000  0.12414
       8     H     0.43787  0.43787  0.00000  0.12426
       9     C     3.08600  3.08600  0.00000 -0.17199
      10     H     0.44723  0.44723  0.00000  0.10555
      11     H     0.44557  0.44557  0.00000  0.10886
      12     C     3.14865  3.14865  0.00000 -0.29730
      13     H     0.45628  0.45628  0.00000  0.08745
      14     H     0.45372  0.45372  0.00000  0.09257
      15     H     0.45399  0.45399  0.00000  0.09203
      16     H     0.44814  0.44814  0.00000  0.10372
      17     H     0.45308  0.45308  0.00000  0.09385

   Total alpha = 28.00000, Total beta = 28.00000, Total charge = -0.00000

*** Psi4 exiting successfully. Buy a developer a beer!
