                              Psi4 1.0.54 Driver

  ==> Input File <==

--------------------------------------------------------------------------
set {
	reference rhf
	basis cc-pvtz
}

set_num_threads( 4 )
memory 2 gb

molecule MOL {
0 1

H	 0.529179	 -4.206893	 -3.553998
O	 1.458791	 -4.098553	 -3.630902
C	 1.794322	 -2.736678	 -3.586336
C	 1.653654	 -2.122409	 -2.201572
H	 2.825886	 -2.676008	 -3.905986
H	 1.200686	 -2.175874	 -4.305743
C	 0.219264	 -2.072967	 -1.680104
H	 2.275131	 -2.683461	 -1.510091
H	 2.056931	 -1.113352	 -2.241169
C	 0.113298	 -1.420414	 -0.302504
H	 -0.180605	 -3.080448	 -1.634388
H	 -0.401237	 -1.521583	 -2.384548
C	 -1.311023	 -1.277304	 0.237018
H	 0.710743	 -1.986925	 0.407674
H	 0.561864	 -0.432154	 -0.353479
C	 -2.041121	 -0.006551	 -0.194127
H	 -1.888548	 -2.136293	 -0.093331
H	 -1.289731	 -1.328757	 1.323321
C	 -3.489218	 0.042606	 0.286507
H	 -2.022185	 0.066287	 -1.279394
H	 -1.518764	 0.869305	 0.178730
C	 -4.219984	 1.311773	 -0.139038
H	 -4.022855	 -0.824300	 -0.093339
H	 -3.510372	 -0.038577	 1.370031
H	 -4.244251	 1.405725	 -1.219696
H	 -5.244345	 1.313233	 0.215630
H	 -3.732090	 2.196311	 0.257073

	symmetry c1
}
set optking {
	frozen_dihedral = ("
		14 10 13 16
	")
}

ee,wfn = optimize('scf', return_wfn=True)
oeprop( wfn, 'DIPOLE', 'QUADRUPOLE', 'MULLIKEN_CHARGES')
f=open( 'psi4out.xyz', 'w' )
f.write( "27  " )
f.write( str(ee) + "\n" )
f.write( MOL.save_string_xyz() )
f.close()
--------------------------------------------------------------------------

    Molecular point group: c1
  Charge       = 0
  Multiplicity = 1
  Basis Set: CC-PVTZ
  Basis Set:
  @DF-RHF Final Energy:  -388.42629926776686
    Total Energy =                       -388.4262992677668080
    Molecular point group: c1
  Basis Set: CC-PVTZ
  Basis Set:
  Basis Set: CC-PVTZ
  Basis Set:
  @DF-RHF Final Energy:  -388.42663665023713
    Total Energy =                       -388.4266366502375831
  Basis Set: CC-PVTZ
  Basis Set:
  Basis Set: CC-PVTZ
  Basis Set:
  @DF-RHF Final Energy:  -388.42667384388307
    Total Energy =                       -388.4266738438835773
  Basis Set: CC-PVTZ
  Basis Set:
  Basis Set: CC-PVTZ
  Basis Set:
  @DF-RHF Final Energy:  -388.42667572269818
    Total Energy =                       -388.4266757226979507
  Basis Set: CC-PVTZ
  Basis Set:
  Charge       = 0
  Multiplicity = 1
  Basis Set: CC-PVTZ
  Basis Set:

    Orbital Energies (a.u.)
    -----------------------

    Doubly Occupied:

       1A    -20.545297     2A    -11.265064     3A    -11.217474
       4A    -11.214340     5A    -11.214027     6A    -11.213341
       7A    -11.213060     8A    -11.212304     9A    -11.207580
      10A     -1.363240    11A     -1.095972    12A     -1.063057
      13A     -1.012489    14A     -0.950270    15A     -0.886513
      16A     -0.821134    17A     -0.798236    18A     -0.784533
      19A     -0.696631    20A     -0.648117    21A     -0.641930
      22A     -0.615881    23A     -0.605366    24A     -0.583085
      25A     -0.579477    26A     -0.555042    27A     -0.543402
      28A     -0.520409    29A     -0.508010    30A     -0.504246
      31A     -0.481240    32A     -0.474668    33A     -0.469602
      34A     -0.463423    35A     -0.452418    36A     -0.442317
      37A     -0.425336

  @DF-RHF Final Energy:  -388.42667766883267

   => Energetics <=

    Nuclear Repulsion Energy =            457.4591044551981440
    One-Electron Energy =               -1433.1944984161366392
    Two-Electron Energy =                 587.3087162921059416
    DFT Exchange-Correlation Energy =       0.0000000000000000
    Empirical Dispersion Energy =           0.0000000000000000
    PCM Polarization Energy =               0.0000000000000000
    EFP Energy =                            0.0000000000000000
    Total Energy =                       -388.4266776688325535
    Molecular point group: c1
  Basis Set: CC-PVTZ
  Basis Set:

  -Total Gradient:
     Atom            X                  Y                   Z
    ------   -----------------  -----------------  -----------------
       1        0.000003575464     0.000001407503    -0.000008846583
       2        0.000000311045    -0.000024600391     0.000006497427
       3       -0.000020620554     0.000014759087     0.000004572525
       4        0.000018956988    -0.000010551818     0.000011963119
       5       -0.000002861537     0.000002927018     0.000001103792
       6        0.000002584534     0.000001735285    -0.000000883538
       7       -0.000005507239    -0.000004450231     0.000012199913
       8        0.000002337877    -0.000001213966    -0.000001234384
       9       -0.000004672428     0.000005352174     0.000007440177
      10       -0.000564302638    -0.002560499237    -0.001013437225
      11        0.000011069895     0.000003368720    -0.000001472633
      12       -0.000008290574     0.000008309026     0.000015743971
      13       -0.000805315911    -0.000799785060    -0.002084697463
      14        0.000666124261     0.002371179240     0.001335989319
      15       -0.000002289462     0.000015728530     0.000001762390
      16        0.000691123868     0.000980980440     0.001692787482
      17        0.000012774983    -0.000009758047    -0.000002712829
      18       -0.000005892815     0.000009767155     0.000004249975
      19       -0.000009952027     0.000000330786     0.000016959575
      20        0.000008595519    -0.000009726819     0.000006811399
      21       -0.000000018682     0.000009683679    -0.000002856265
      22        0.000010738966    -0.000000616466    -0.000002318802
      23        0.000004919880    -0.000001880353    -0.000001728732
      24       -0.000004267659     0.000000921920     0.000002634357
      25        0.000000465380    -0.000000086689     0.000000221311
      26        0.000002695339    -0.000006012156    -0.000001188848
      27       -0.000002282472     0.000002730662     0.000000440573

  **** Optimization is complete! (in 5 steps) ****
    Final optimized geometry and variables:
    Molecular point group: c1

    Geometry (in Angstrom), charge = 0, multiplicity = 1:

    H            1.171392518711    -2.766433661966    -2.270458169584
    O            2.100465235311    -2.657014146421    -2.350972544911
    C            2.436036289205    -1.295706913808    -2.294701006830
    C            2.291234975871    -0.692252042560    -0.905668011693
    H            3.468507067676    -1.232860323365    -2.610850977931
    H            1.844666853241    -0.729196148624    -3.011488500408
    C            0.856000076354    -0.647679431406    -0.387510458813
    H            2.911479394528    -1.257799620878    -0.216835040577
    H            2.693212526479     0.317600661384    -0.936388951179
    C            0.738896409400    -0.016109899278     0.997778679169
    H            0.452263937737    -1.655591279197    -0.341257417415
    H            0.237516428741    -0.097380455995    -1.093003707973
    C           -0.699013607190     0.091408442529     1.521032447585
    H            1.341245072341    -0.580248765103     1.703091654828
    H            1.180798934445     0.977249493841     0.973900883286
    C           -1.425365516319     1.362702723099     1.084925372154
    H           -1.266855218947    -0.781655687386     1.209812365394
    H           -0.683971726533     0.066778096307     2.606679967190
    C           -2.867481127545     1.435009805653     1.578613857030
    H           -1.417781635867     1.440761044438     0.000412071792
    H           -0.876840180493     2.225483236074     1.454612288578
    C           -3.581250985375     2.716623725342     1.161674173718
    H           -3.418848885840     0.577485206415     1.202622714651
    H           -2.879864394489     1.352456617638     2.662086181229
    H           -3.615916832388     2.811820705110     0.081379017360
    H           -4.601445823395     2.735297801163     1.527521559150
    H           -3.073867130692     3.592246550500     1.552857442702

  Mulliken Charges: (a.u.)
   Center  Symbol    Alpha    Beta     Spin     Total
       1     H     0.39229  0.39229  0.00000  0.21541
       2     O     4.20566  4.20566  0.00000 -0.41132
       3     C     2.97973  2.97973  0.00000  0.04054
       4     C     3.08979  3.08979  0.00000 -0.17958
       5     H     0.44847  0.44847  0.00000  0.10305
       6     H     0.46994  0.46994  0.00000  0.06012
       7     C     3.09987  3.09987  0.00000 -0.19975
       8     H     0.45063  0.45063  0.00000  0.09875
       9     H     0.45536  0.45536  0.00000  0.08929
      10     C     3.10024  3.10024  0.00000 -0.20047
      11     H     0.45711  0.45711  0.00000  0.08578
      12     H     0.45314  0.45314  0.00000  0.09373
      13     C     3.09918  3.09918  0.00000 -0.19835
      14     H     0.44486  0.44486  0.00000  0.11028
      15     H     0.45470  0.45470  0.00000  0.09059
      16     C     3.08419  3.08419  0.00000 -0.16838
      17     H     0.45518  0.45518  0.00000  0.08963
      18     H     0.44710  0.44710  0.00000  0.10581
      19     C     3.08507  3.08507  0.00000 -0.17013
      20     H     0.45582  0.45582  0.00000  0.08835
      21     H     0.45454  0.45454  0.00000  0.09092
      22     C     3.14967  3.14967  0.00000 -0.29934
      23     H     0.45435  0.45435  0.00000  0.09131
      24     H     0.45417  0.45417  0.00000  0.09165
      25     H     0.45556  0.45556  0.00000  0.08889
      26     H     0.44827  0.44827  0.00000  0.10346
      27     H     0.45512  0.45512  0.00000  0.08977

   Total alpha = 37.00000, Total beta = 37.00000, Total charge =  0.00000

*** Psi4 exiting successfully. Buy a developer a beer!
