                              Psi4 1.0.54 Driver

  ==> Input File <==

--------------------------------------------------------------------------
set {
	reference rhf
	basis cc-pvtz
}

set_num_threads( 4 )
memory 2 gb

molecule MOL {
0 1

H	 1.499487	 -0.125495	 -2.620385
C	 0.769931	 -0.314477	 -1.843653
C	 1.322304	 0.099773	 -0.484271
H	 -0.128189	 0.240582	 -2.089942
H	 0.528136	 -1.371073	 -1.865573
C	 0.308557	 -0.162619	 0.622645
H	 1.572422	 1.153411	 -0.488704
H	 2.229497	 -0.450448	 -0.267023
N	 -1.069352	 -0.004081	 0.085342
H	 0.371632	 -1.172932	 0.991288
H	 0.400391	 0.548875	 1.426218
O	 -1.584901	 -0.965470	 -0.377818
O	 -1.548033	 1.079343	 0.130056

	symmetry c1
}
set optking {
	frozen_dihedral = ("
		7 3 6 9
	")
}

ee,wfn = optimize('scf', return_wfn=True)
oeprop( wfn, 'DIPOLE', 'QUADRUPOLE', 'MULLIKEN_CHARGES')
f=open( 'psi4out.xyz', 'w' )
f.write( "13  " )
f.write( str(ee) + "\n" )
f.write( MOL.save_string_xyz() )
f.close()
--------------------------------------------------------------------------

    Molecular point group: c1
  Charge       = 0
  Multiplicity = 1
  Basis Set: CC-PVTZ
  Basis Set:
  @DF-RHF Final Energy:  -321.85378032941117
    Total Energy =                       -321.8537803294112223
    Molecular point group: c1
  Basis Set: CC-PVTZ
  Basis Set:
  Basis Set: CC-PVTZ
  Basis Set:
  @DF-RHF Final Energy:  -321.85125825997409
    Total Energy =                       -321.8512582599742586
  Basis Set: CC-PVTZ
  Basis Set:
  Basis Set: CC-PVTZ
  Basis Set:
  @DF-RHF Final Energy:  -321.85462430282803
    Total Energy =                       -321.8546243028277445
  Basis Set: CC-PVTZ
  Basis Set:
  Basis Set: CC-PVTZ
  Basis Set:
  @DF-RHF Final Energy:  -321.85746159046187
    Total Energy =                       -321.8574615904618668
  Basis Set: CC-PVTZ
  Basis Set:
  @DF-RHF Final Energy:  -321.85782292437682
    Total Energy =                       -321.8578229243769329
  @DF-RHF Final Energy:  -321.85792282417532
    Total Energy =                       -321.8579228241754322
  @DF-RHF Final Energy:  -321.85799726108621
    Total Energy =                       -321.8579972610856998
  Basis Set: CC-PVTZ
  Basis Set:
  @DF-RHF Final Energy:  -321.85804930640217
    Total Energy =                       -321.8580493064023358
  Basis Set: CC-PVTZ
  Basis Set:
  Basis Set: CC-PVTZ
  Basis Set:
  @DF-RHF Final Energy:  -321.85807901221523
    Total Energy =                       -321.8580790122151711
  Basis Set: CC-PVTZ
  Basis Set:
  Basis Set: CC-PVTZ
  Basis Set:
  @DF-RHF Final Energy:  -321.85808685242483
    Total Energy =                       -321.8580868524247762
  Basis Set: CC-PVTZ
  Basis Set:
  Charge       = 0
  Multiplicity = 1
  Basis Set: CC-PVTZ
  Basis Set:

    Orbital Energies (a.u.)
    -----------------------

    Doubly Occupied:

       1A    -20.592991     2A    -20.588653     3A    -15.836623
       4A    -11.297487     5A    -11.254133     6A    -11.228458
       7A     -1.636363     8A     -1.420549     9A     -1.131005
      10A     -1.021606    11A     -0.896727    12A     -0.822683
      13A     -0.756334    14A     -0.739938    15A     -0.729309
      16A     -0.662206    17A     -0.610657    18A     -0.590973
      19A     -0.537231    20A     -0.519483    21A     -0.510044
      22A     -0.483892    23A     -0.475203    24A     -0.454209

  @DF-RHF Final Energy:  -321.85808747054216

   => Energetics <=

    Nuclear Repulsion Energy =            254.6757479669213069
    One-Electron Energy =                -943.4741598050597986
    Two-Electron Energy =                 366.9403243675960766
    DFT Exchange-Correlation Energy =       0.0000000000000000
    Empirical Dispersion Energy =           0.0000000000000000
    PCM Polarization Energy =               0.0000000000000000
    EFP Energy =                            0.0000000000000000
    Total Energy =                       -321.8580874705423867
    Molecular point group: c1
  Basis Set: CC-PVTZ
  Basis Set:

  -Total Gradient:
     Atom            X                  Y                   Z
    ------   -----------------  -----------------  -----------------
       1        0.000001855907    -0.000008537342    -0.000015716068
       2       -0.000008145625     0.000001397576     0.000015818271
       3       -0.006276437290     0.000925305293    -0.003726910118
       4       -0.000033302397     0.000022556857    -0.000010833169
       5       -0.000000922576    -0.000007665291     0.000003747018
       6        0.002004752848     0.004879421356     0.002823023881
       7        0.004899734204    -0.001887428314     0.002556900200
       8        0.000033046134    -0.000010214556     0.000004523719
       9       -0.000779764636    -0.003876976005    -0.001712532023
      10        0.000007085104    -0.000011931646    -0.000006503018
      11       -0.000006841739     0.000018462146     0.000016559719
      12        0.000095759403     0.000051565025     0.000029651070
      13        0.000063180662    -0.000095955104     0.000022270524

  **** Optimization is complete! (in 11 steps) ****
    Final optimized geometry and variables:
    Molecular point group: c1

    Geometry (in Angstrom), charge = 0, multiplicity = 1:

    H            1.548501199452     0.093816293099    -2.661294865321
    C            0.873761638168    -0.131852416364    -1.845642632130
    C            1.580483941068     0.101257620238    -0.515447837386
    H            0.002894728623     0.501772126659    -1.952526463021
    H            0.555878146990    -1.162447031296    -1.948516587468
    C            0.783850282762    -0.286869049827     0.734840710644
    H            1.924641794173     1.122499461142    -0.420445221997
    H            2.479276200498    -0.505878756720    -0.480511403469
    N           -0.663753619032     0.023114190620     0.577837011430
    H            0.822927833401    -1.346630746892     0.918150176262
    H            1.113284466808     0.260415499799     1.602534870394
    O           -1.407353289622    -0.885030417707     0.423183953001
    O           -0.973157377763     1.168274184288     0.602441293230

  Mulliken Charges: (a.u.)
   Center  Symbol    Alpha    Beta     Spin     Total
       1     H     0.44553  0.44553  0.00000  0.10895
       2     C     3.14982  3.14982  0.00000 -0.29963
       3     C     3.09409  3.09409  0.00000 -0.18818
       4     H     0.44287  0.44287  0.00000  0.11426
       5     H     0.44672  0.44672  0.00000  0.10656
       6     C     3.04492  3.04492  0.00000 -0.08983
       7     H     0.44162  0.44162  0.00000  0.11677
       8     H     0.44768  0.44768  0.00000  0.10465
       9     N     3.27966  3.27966  0.00000  0.44069
      10     H     0.43287  0.43287  0.00000  0.13426
      11     H     0.42926  0.42926  0.00000  0.14148
      12     O     4.17064  4.17064  0.00000 -0.34128
      13     O     4.17435  4.17435  0.00000 -0.34870

   Total alpha = 24.00000, Total beta = 24.00000, Total charge = -0.00000

*** Psi4 exiting successfully. Buy a developer a beer!
