                              Psi4 1.0.54 Driver

  ==> Input File <==

--------------------------------------------------------------------------
set {
	reference rhf
	basis cc-pvtz
}

set_num_threads( 4 )
memory 2 gb

molecule MOL {
0 1

H	 -3.289991	 0.333922	 -2.051221
C	 -2.580194	 -0.314078	 -1.579423
C	 -2.105997	 -0.000418	 -0.398703
H	 -2.276576	 -1.207803	 -2.088215
O	 -1.189946	 -0.765863	 0.237511
H	 -2.409718	 0.888325	 0.123807
C	 0.026572	 -0.995256	 -0.379403
C	 1.057223	 0.049888	 -0.004615
H	 -0.054361	 -1.010670	 -1.459674
H	 0.397526	 -1.952058	 -0.044198
F	 2.203233	 -0.234060	 -0.590375
F	 0.698147	 1.254887	 -0.392621
F	 1.266440	 0.094219	 1.288722

	symmetry c1
}
set optking {
	frozen_dihedral = ("
		6 3 5 7
	")
}

ee,wfn = optimize('scf', return_wfn=True)
oeprop( wfn, 'DIPOLE', 'QUADRUPOLE', 'MULLIKEN_CHARGES')
f=open( 'psi4out.xyz', 'w' )
f.write( "13  " )
f.write( str(ee) + "\n" )
f.write( MOL.save_string_xyz() )
f.close()
--------------------------------------------------------------------------

    Molecular point group: c1
  Charge       = 0
  Multiplicity = 1
  Basis Set: CC-PVTZ
  Basis Set:
  @DF-RHF Final Energy:  -527.73692815878167
    Total Energy =                       -527.7369281587818932
    Molecular point group: c1
  Basis Set: CC-PVTZ
  Basis Set:
  Basis Set: CC-PVTZ
  Basis Set:
  @DF-RHF Final Energy:  -527.73753822339870
    Total Energy =                       -527.7375382233988148
  Basis Set: CC-PVTZ
  Basis Set:
  Basis Set: CC-PVTZ
  Basis Set:
  @DF-RHF Final Energy:  -527.73801907487950
    Total Energy =                       -527.7380190748795030
  Basis Set: CC-PVTZ
  Basis Set:
  Basis Set: CC-PVTZ
  Basis Set:
  @DF-RHF Final Energy:  -527.73805152832404
    Total Energy =                       -527.7380515283243767
  Basis Set: CC-PVTZ
  Basis Set:
  @DF-RHF Final Energy:  -527.73806248440087
    Total Energy =                       -527.7380624844006434
  Basis Set: CC-PVTZ
  Basis Set:
  @DF-RHF Final Energy:  -527.73806854258601
    Total Energy =                       -527.7380685425857791
  Basis Set: CC-PVTZ
  Basis Set:
  Basis Set: CC-PVTZ
  Basis Set:
  @DF-RHF Final Energy:  -527.73807267994789
    Total Energy =                       -527.7380726799484592
  Basis Set: CC-PVTZ
  Basis Set:
  Basis Set: CC-PVTZ
  Basis Set:
  @DF-RHF Final Energy:  -527.73807556135682
    Total Energy =                       -527.7380755613567089
  Basis Set: CC-PVTZ
  Basis Set:
  Charge       = 0
  Multiplicity = 1
  Basis Set: CC-PVTZ
  Basis Set:

    Orbital Energies (a.u.)
    -----------------------

    Doubly Occupied:

       1A    -26.338526     2A    -26.336824     3A    -26.334680
       4A    -20.595102     5A    -11.493848     6A    -11.315467
       7A    -11.299042     8A    -11.226162     9A     -1.746792
      10A     -1.643506    11A     -1.641567    12A     -1.434415
      13A     -1.082695    14A     -1.025018    15A     -0.933823
      16A     -0.841382    17A     -0.836321    18A     -0.832080
      19A     -0.770130    20A     -0.724617    21A     -0.718953
      22A     -0.707418    23A     -0.679291    24A     -0.664967
      25A     -0.659986    26A     -0.652193    27A     -0.647543
      28A     -0.592706    29A     -0.562543    30A     -0.535975
      31A     -0.482032    32A     -0.375892

  @DF-RHF Final Energy:  -527.73807568395637

   => Energetics <=

    Nuclear Repulsion Energy =            414.3171952429556200
    One-Electron Energy =               -1552.6475481422298799
    Two-Electron Energy =                 610.5922772153180631
    DFT Exchange-Correlation Energy =       0.0000000000000000
    Empirical Dispersion Energy =           0.0000000000000000
    PCM Polarization Energy =               0.0000000000000000
    EFP Energy =                            0.0000000000000000
    Total Energy =                       -527.7380756839561400
    Molecular point group: c1
  Basis Set: CC-PVTZ
  Basis Set:

  -Total Gradient:
     Atom            X                  Y                   Z
    ------   -----------------  -----------------  -----------------
       1        0.000001519983     0.000001287586    -0.000000551233
       2       -0.000018888532     0.000001716217    -0.000009554656
       3       -0.000557462704    -0.000204324174     0.000695084748
       4        0.000006517225    -0.000002376299     0.000003972103
       5       -0.000254285392    -0.000735460738    -0.000428413925
       6        0.000541407219     0.000372256892    -0.000444256203
       7        0.000264041037     0.000583435651     0.000182862909
       8        0.000037411903    -0.000062842255     0.000003928529
       9        0.000000760361    -0.000000568009     0.000001812631
      10       -0.000002950035     0.000012079952     0.000003205547
      11        0.000016683556     0.000011320228    -0.000014628488
      12       -0.000013418522    -0.000001911911     0.000016986312
      13       -0.000021336108     0.000025386858    -0.000010448277

  **** Optimization is complete! (in 9 steps) ****
    Final optimized geometry and variables:
    Molecular point group: c1

    Geometry (in Angstrom), charge = 0, multiplicity = 1:

    H           -3.623650970780     0.221160037748    -1.694564547875
    C           -2.844849586970    -0.369243354157    -1.255843686164
    C           -2.223057254395     0.070146821576    -0.188233564638
    H           -2.605499619080    -1.309619404283    -1.714991575404
    O           -1.235309336399    -0.596805266062     0.467524492072
    H           -2.476724182837     1.001879391446     0.280165671088
    C           -0.048336349687    -0.889991562971    -0.190609711308
    C            1.018239279006     0.126826659212     0.156027838208
    H           -0.164580110745    -0.899941393330    -1.264833099046
    H            0.301646734853    -1.857138756490     0.139445877810
    F            2.134269860410    -0.166626096640    -0.480857251444
    F            0.665151928704     1.344961139813    -0.194155315086
    F            1.283583121433     0.145928794750     1.441075189117

  Mulliken Charges: (a.u.)
   Center  Symbol    Alpha    Beta     Spin     Total
       1     H     0.42365  0.42365  0.00000  0.15270
       2     C     3.18657  3.18657  0.00000 -0.37315
       3     C     2.97271  2.97271  0.00000  0.05458
       4     H     0.42536  0.42536  0.00000  0.14928
       5     O     4.16505  4.16505  0.00000 -0.33011
       6     H     0.41848  0.41848  0.00000  0.16304
       7     C     3.00382  3.00382  0.00000 -0.00764
       8     C     2.67561  2.67561  0.00000  0.64878
       9     H     0.45551  0.45551  0.00000  0.08898
      10     H     0.44097  0.44097  0.00000  0.11807
      11     F     4.61278  4.61278  0.00000 -0.22556
      12     F     4.61104  4.61104  0.00000 -0.22208
      13     F     4.60845  4.60845  0.00000 -0.21689

   Total alpha = 32.00000, Total beta = 32.00000, Total charge =  0.00000

*** Psi4 exiting successfully. Buy a developer a beer!
