  ==> Input File <==

--------------------------------------------------------------------------
set {
	reference rhf
	basis 6-31G*
}

set_num_threads( 1 )
memory 2 gb

molecule MOL {
0 1

O	 -0.682937	 1.318834	 -0.186099
C	 -0.860635	 0.152188	 -0.042321
C	 -2.173363	 -0.477127	 0.338347
O	 0.083258	 -0.765189	 -0.202595
H	 -2.477673	 -1.180929	 -0.427595
H	 -2.923125	 0.290956	 0.455536
H	 -2.058825	 -1.029004	 1.264191
C	 1.331185	 -0.577318	 0.460865
C	 1.278642	 -1.070238	 1.895061
H	 1.604314	 0.465933	 0.414297
H	 2.036702	 -1.152924	 -0.120875
H	 2.261109	 -0.984357	 2.349059
H	 0.581536	 -0.483083	 2.479577
H	 0.977149	 -2.111543	 1.929713

	symmetry c1
}
set optking {
	frozen_dihedral = ("
		10 8 4 2
	")
}

ee = energy('scf')
oeprop('DIPOLE', 'QUADRUPOLE', 'MULLIKEN_CHARGES')
f=open( 'psi4out.xyz', 'w' )
f.write( "14  " )
f.write( str(ee) + "\n" )
f.write( MOL.save_string_xyz() )
f.close()
--------------------------------------------------------------------------

    Molecular point group: c1

    Geometry (in Angstrom), charge = 0, multiplicity = 1:

       Center              X                  Y                   Z               Mass
    ------------   -----------------  -----------------  -----------------  -----------------
           O         -0.516210537142     1.557870947145    -0.572408510825    15.994914619560
           C         -0.693908537142     0.391224947145    -0.428630510825    12.000000000000
           C         -2.006636537142    -0.238090052855    -0.047962510825    12.000000000000
           O          0.249984462858    -0.526152052855    -0.588904510825    15.994914619560
           H         -2.310946537142    -0.941892052855    -0.813904510825     1.007825032070
           H         -2.756398537142     0.529992947145     0.069226489175     1.007825032070
           H         -1.892098537142    -0.789967052855     0.877881489175     1.007825032070
           C          1.497911462858    -0.338281052855     0.074555489175    12.000000000000
           C          1.445368462858    -0.831201052855     1.508751489175    12.000000000000
           H          1.771040462858     0.704969947145     0.027987489175     1.007825032070
           H          2.203428462858    -0.913887052855    -0.507184510825     1.007825032070
           H          2.427835462858    -0.745320052855     1.962749489175     1.007825032070
           H          0.748262462858    -0.244046052855     2.093267489175     1.007825032070
           H          1.143875462858    -1.872506052855     1.543403489175     1.007825032070

  Charge       = 0
  Multiplicity = 1
  Basis Set: 6-31G*
  Basis Set:

    Orbital Energies (a.u.)
    -----------------------

    Doubly Occupied:

       1A    -20.591850     2A    -20.549170     3A    -11.375791
       4A    -11.291440     5A    -11.232907     6A    -11.228695
       7A     -1.464329     8A     -1.363930     9A     -1.054932
      10A     -1.005504    11A     -0.886071    12A     -0.766654
      13A     -0.695842    14A     -0.683549    15A     -0.665605
      16A     -0.613420    17A     -0.590724    18A     -0.570590
      19A     -0.558577    20A     -0.546734    21A     -0.511048
      22A     -0.495502    23A     -0.450301    24A     -0.437744

  @DF-RHF Final Energy:  -305.86390652028274

   => Energetics <=

    Nuclear Repulsion Energy =            248.6666252656206098
    One-Electron Energy =                -909.7993313397888642
    Two-Electron Energy =                 355.2687995538855148
    DFT Exchange-Correlation Energy =       0.0000000000000000
    Empirical Dispersion Energy =           0.0000000000000000
    PCM Polarization Energy =               0.0000000000000000
    EFP Energy =                            0.0000000000000000
    Total Energy =                       -305.8639065202827396

  Mulliken Charges: (a.u.)
   Center  Symbol    Alpha    Beta     Spin     Total
       1     O     4.27129  4.27129  0.00000 -0.54259
       2     C     2.62253  2.62253  0.00000  0.75494
       3     C     3.28258  3.28258  0.00000 -0.56517
       4     O     4.31005  4.31005  0.00000 -0.62010
       5     H     0.39922  0.39922  0.00000  0.20156
       6     H     0.39890  0.39890  0.00000  0.20220
       7     H     0.40443  0.40443  0.00000  0.19115
       8     C     3.01016  3.01016  0.00000 -0.02032
       9     C     3.25310  3.25310  0.00000 -0.50620
      10     H     0.40045  0.40045  0.00000  0.19910
      11     H     0.40779  0.40779  0.00000  0.18442
      12     H     0.41388  0.41388  0.00000  0.17223
      13     H     0.41470  0.41470  0.00000  0.17060
      14     H     0.41092  0.41092  0.00000  0.17816

   Total alpha = 24.00000, Total beta = 24.00000, Total charge =  0.00000
