  ==> Input File <==

--------------------------------------------------------------------------
set {
	reference rhf
	basis 6-31G*
}

set_num_threads( 4 )
memory 2 gb

molecule MOL {
0 1

H	 -0.824183	 1.631517	 -0.278062
O	 0.055946	 1.300438	 -0.164479
C	 0.004957	 -0.004114	 0.366649
C	 1.201664	 -0.828089	 -0.095740
C	 -1.317755	 -0.601827	 -0.081511
H	 0.013527	 0.048298	 1.454924
H	 1.216388	 -0.895289	 -1.178704
H	 2.135132	 -0.372895	 0.226467
H	 1.166770	 -1.832878	 0.313827
H	 -1.355732	 -0.658248	 -1.164429
H	 -2.141614	 0.017037	 0.254547
H	 -1.447303	 -1.600817	 0.322594

	symmetry c1
}
set optking {
	frozen_dihedral = ("
		1 2 3 4
	")
}

ee = optimize('scf')
oeprop('DIPOLE', 'QUADRUPOLE', 'MULLIKEN_CHARGES')
f=open( 'psi4out.xyz', 'w' )
f.write( "12  " )
f.write( str(ee) + "\n" )
f.write( MOL.save_string_xyz() )
f.close()
--------------------------------------------------------------------------

    Molecular point group: c1
  Charge       = 0
  Multiplicity = 1
  Basis Set: 6-31G*
  Basis Set:
  @DF-RHF Final Energy:  -193.11180284032466
    Total Energy =                       -193.1118028403246853
    Molecular point group: c1
  Basis Set: 6-31G*
  Basis Set:
  Basis Set: 6-31G*
  Basis Set:
  @DF-RHF Final Energy:  -193.11348400405475
    Total Energy =                       -193.1134840040547545
  Basis Set: 6-31G*
  Basis Set:
  Basis Set: 6-31G*
  Basis Set:
  @DF-RHF Final Energy:  -193.11391783336222
    Total Energy =                       -193.1139178333622226
  Basis Set: 6-31G*
  Basis Set:
  Basis Set: 6-31G*
  Basis Set:
  @DF-RHF Final Energy:  -193.11392416856830
    Total Energy =                       -193.1139241685682748
  Basis Set: 6-31G*
  Basis Set:
  Charge       = 0
  Multiplicity = 1
  Basis Set: 6-31G*
  Basis Set:

    Orbital Energies (a.u.)
    -----------------------

    Doubly Occupied:

       1A    -20.549626     2A    -11.275505     3A    -11.218535
       4A    -11.206203     5A     -1.359153     6A     -1.042703
       7A     -0.942375     8A     -0.807014     9A     -0.684223
      10A     -0.639460    11A     -0.606553    12A     -0.547679
      13A     -0.538082    14A     -0.524455    15A     -0.513025
      16A     -0.467770    17A     -0.428455

  @DF-RHF Final Energy:  -193.11392478792882

   => Energetics <=

    Nuclear Repulsion Energy =            135.5791197856290466
    One-Electron Energy =                -530.6844597970467703
    Two-Electron Energy =                 201.9914152234890423
    DFT Exchange-Correlation Energy =       0.0000000000000000
    Empirical Dispersion Energy =           0.0000000000000000
    PCM Polarization Energy =               0.0000000000000000
    EFP Energy =                            0.0000000000000000
    Total Energy =                       -193.1139247879287097
    Molecular point group: c1
  Basis Set: 6-31G*
  Basis Set:

  -Total Gradient:
     Atom            X                  Y                   Z
    ------   -----------------  -----------------  -----------------
       1       -0.000017408221    -0.000840705738    -0.002101182925
       2       -0.000193801057     0.000923997540     0.002245354988
       3        0.000891581767     0.000337787731     0.000927105024
       4       -0.000702121847    -0.000400094621    -0.001081863379
       5       -0.000022599205     0.000006296584     0.000002682406
       6        0.000017941214    -0.000029781932    -0.000017435671
       7       -0.000037661314     0.000016214408     0.000012336728
       8        0.000018726338     0.000004572342     0.000000423187
       9        0.000016701470     0.000001143686    -0.000002731391
      10        0.000009845347     0.000012291765     0.000018307040
      11        0.000025150923    -0.000003041453    -0.000018142617
      12       -0.000006355416    -0.000028680312     0.000015146609

  **** Optimization is complete! (in 5 steps) ****
    Final optimized geometry and variables:
    Molecular point group: c1

    Geometry (in Angstrom), charge = 0, multiplicity = 1:

    H           -0.695543991277     1.694906453263    -0.291762236384
    O            0.152822902163     1.303762956149    -0.141457474155
    C            0.001977952145    -0.001985265980     0.371642340721
    C            1.202696445347    -0.807687380150    -0.097097660746
    C           -1.314363947076    -0.624311710264    -0.080679051790
    H            0.009018720072     0.045287575453     1.459063204158
    H            1.199112458036    -0.891650542011    -1.178835376384
    H            2.122350527840    -0.316673161303     0.200427750818
    H            1.191972462958    -1.805418370860     0.330957624671
    H           -1.355287562487    -0.680801921369    -1.164491338657
    H           -2.162497152771    -0.036363233091     0.262975235094
    H           -1.428481145253    -1.626744964945     0.318373082233

  Mulliken Charges: (a.u.)
   Center  Symbol    Alpha    Beta     Spin     Total
       1     H     0.28081  0.28081  0.00000  0.43839
       2     O     4.37696  4.37696  0.00000 -0.75392
       3     C     2.90740  2.90740  0.00000  0.18521
       4     C     3.23938  3.23938  0.00000 -0.47876
       5     C     3.26202  3.26202  0.00000 -0.52404
       6     H     0.42780  0.42780  0.00000  0.14440
       7     H     0.41775  0.41775  0.00000  0.16450
       8     H     0.41066  0.41066  0.00000  0.17868
       9     H     0.42452  0.42452  0.00000  0.15096
      10     H     0.41494  0.41494  0.00000  0.17012
      11     H     0.42216  0.42216  0.00000  0.15568
      12     H     0.41560  0.41560  0.00000  0.16879

   Total alpha = 17.00000, Total beta = 17.00000, Total charge =  0.00000
