                              Psi4 1.0.54 Driver

  ==> Input File <==

--------------------------------------------------------------------------
set {
	reference rhf
	basis cc-pvtz
}

set_num_threads( 4 )
memory 2 gb

molecule MOL {
0 1

H	 1.149152	 -0.358464	 -0.689520
C	 0.848385	 0.440008	 0.000011
C	 -0.623497	 0.751021	 0.000090
O	 1.657393	 0.982693	 0.669520
C	 -1.523725	 -0.474323	 -0.000013
H	 -0.813143	 1.382932	 -0.864897
H	 -0.813071	 1.382716	 0.865253
H	 -1.342980	 -1.087348	 -0.873016
H	 -2.565269	 -0.177464	 0.000070
H	 -1.342898	 -1.087564	 0.872820

	symmetry c1
}
set optking {
	frozen_dihedral = ("
		4 2 3 6
	")
}

ee,wfn = optimize('scf', return_wfn=True)
oeprop( wfn, 'DIPOLE', 'QUADRUPOLE', 'MULLIKEN_CHARGES')
f=open( 'psi4out.xyz', 'w' )
f.write( "10  " )
f.write( str(ee) + "\n" )
f.write( MOL.save_string_xyz() )
f.close()
--------------------------------------------------------------------------

    Molecular point group: c1
  Charge       = 0
  Multiplicity = 1
  Basis Set: CC-PVTZ
  Basis Set:
  @DF-RHF Final Energy:  -192.02272119110398
    Total Energy =                       -192.0227211911039262
    Molecular point group: c1
  Basis Set: CC-PVTZ
  Basis Set:
  Basis Set: CC-PVTZ
  Basis Set:
  @DF-RHF Final Energy:  -192.02252341259799
    Total Energy =                       -192.0225234125980762
  Basis Set: CC-PVTZ
  Basis Set:
  Basis Set: CC-PVTZ
  Basis Set:
  @DF-RHF Final Energy:  -192.02254820770656
    Total Energy =                       -192.0225482077065635
  Basis Set: CC-PVTZ
  Basis Set:
  Basis Set: CC-PVTZ
  Basis Set:
  @DF-RHF Final Energy:  -192.02311273879968
    Total Energy =                       -192.0231127387995969
  Basis Set: CC-PVTZ
  Basis Set:
  Basis Set: CC-PVTZ
  Basis Set:
  @DF-RHF Final Energy:  -192.02313391092500
    Total Energy =                       -192.0231339109250825
  Basis Set: CC-PVTZ
  Basis Set:
  Charge       = 0
  Multiplicity = 1
  Basis Set: CC-PVTZ
  Basis Set:

    Orbital Energies (a.u.)
    -----------------------

    Doubly Occupied:

       1A    -20.553284     2A    -11.323039     3A    -11.238407
       4A    -11.231814     5A     -1.408498     6A     -1.068359
       7A     -0.904693     8A     -0.796311     9A     -0.672563
      10A     -0.644044    11A     -0.624641    12A     -0.563829
      13A     -0.546059    14A     -0.520382    15A     -0.496840
      16A     -0.415113

  @DF-RHF Final Energy:  -192.02313455996000

   => Energetics <=

    Nuclear Repulsion Energy =            117.3643753886314443
    One-Electron Energy =                -492.7592688569453685
    Two-Electron Energy =                 183.3717589083539394
    DFT Exchange-Correlation Energy =       0.0000000000000000
    Empirical Dispersion Energy =           0.0000000000000000
    PCM Polarization Energy =               0.0000000000000000
    EFP Energy =                            0.0000000000000000
    Total Energy =                       -192.0231345599599706
    Molecular point group: c1
  Basis Set: CC-PVTZ
  Basis Set:

  -Total Gradient:
     Atom            X                  Y                   Z
    ------   -----------------  -----------------  -----------------
       1        0.000004787069     0.000017174614     0.000005565308
       2       -0.000116207165    -0.000644981341     0.000942097209
       3       -0.000133157060    -0.000543791448    -0.000718465856
       4        0.000082293359     0.000518332139    -0.000608064687
       5        0.000012381007     0.000014108484    -0.000015487107
       6        0.000141264698     0.000594684751     0.000409010035
       7       -0.000002211000     0.000021140886     0.000001015022
       8       -0.000000007843    -0.000015711990    -0.000006741674
       9       -0.000002661234     0.000017992681     0.000001978736
      10        0.000013518168     0.000021051225    -0.000010906986

  **** Optimization is complete! (in 6 steps) ****
    Final optimized geometry and variables:
    Molecular point group: c1

    Geometry (in Angstrom), charge = 0, multiplicity = 1:

    H            1.033074509441    -0.781473604062    -0.875734703590
    C            0.749991351986     0.014476842049    -0.174026616751
    C           -0.718479051516     0.345639240865    -0.136336011719
    O            1.578361891507     0.558738606353     0.469536439311
    C           -1.606429903563    -0.895475273015    -0.173720872340
    H           -0.918081713883     0.969767836420    -1.004610730296
    H           -0.906644964140     0.948452141251     0.741964202434
    H           -1.412444148248    -1.493329328055    -1.057319055665
    H           -2.651549963244    -0.615247286715    -0.188061942322
    H           -1.441828236172    -1.521326747518     0.695777516124

  Mulliken Charges: (a.u.)
   Center  Symbol    Alpha    Beta     Spin     Total
       1     H     0.46687  0.46687  0.00000  0.06626
       2     C     2.90054  2.90054  0.00000  0.19893
       3     C     3.08136  3.08136  0.00000 -0.16272
       4     O     4.16345  4.16345  0.00000 -0.32690
       5     C     3.15180  3.15180  0.00000 -0.30360
       6     H     0.44872  0.44872  0.00000  0.10256
       7     H     0.44088  0.44088  0.00000  0.11825
       8     H     0.45361  0.45361  0.00000  0.09279
       9     H     0.44407  0.44407  0.00000  0.11186
      10     H     0.44871  0.44871  0.00000  0.10257

   Total alpha = 16.00000, Total beta = 16.00000, Total charge = -0.00000

*** Psi4 exiting successfully. Buy a developer a beer!
