  ==> Input File <==

--------------------------------------------------------------------------
set {
	reference rhf
	basis cc-pvtz
}

set_num_threads( 4 )
memory 2 gb

molecule MOL {
0 1

H	 -0.000105	 1.988529	 0.748933
O	 -0.000098	 1.879786	 -0.188206
C	 -0.000014	 0.545691	 -0.532416
C	 -1.286000	 -0.125171	 -0.046657
C	 1.286016	 -0.125031	 -0.046584
H	 0.000021	 0.481103	 -1.610604
F	 -1.555192	 0.283354	 1.168868
F	 -2.314143	 0.162331	 -0.804269
F	 -1.158198	 -1.434214	 -0.008615
F	 2.317750	 0.468717	 -0.594166
F	 1.336617	 -1.393765	 -0.365123
F	 1.414467	 -0.024806	 1.259108

	symmetry c1
}
set optking {
	frozen_dihedral = ("
		7 4 3 6
	")
}

ee = optimize('scf')
oeprop('DIPOLE', 'QUADRUPOLE', 'MULLIKEN_CHARGES')
f=open( 'psi4out.xyz', 'w' )
f.write( "12  " )
f.write( str(ee) + "\n" )
f.write( MOL.save_string_xyz() )
f.close()
--------------------------------------------------------------------------

    Molecular point group: c1
  Charge       = 0
  Multiplicity = 1
  Basis Set: CC-PVTZ
  Basis Set:
  @DF-RHF Final Energy:  -786.58723121600497
    Total Energy =                       -786.5872312160046249
    Molecular point group: c1
  Basis Set: CC-PVTZ
  Basis Set:
  Basis Set: CC-PVTZ
  Basis Set:
  @DF-RHF Final Energy:  -786.58832801244625
    Total Energy =                       -786.5883280124464818
  Basis Set: CC-PVTZ
  Basis Set:
  Basis Set: CC-PVTZ
  Basis Set:
  @DF-RHF Final Energy:  -786.58866897278961
    Total Energy =                       -786.5886689727889234
  Basis Set: CC-PVTZ
  Basis Set:
  Basis Set: CC-PVTZ
  Basis Set:
  @DF-RHF Final Energy:  -786.58873810615989
    Total Energy =                       -786.5887381061594397
  Basis Set: CC-PVTZ
  Basis Set:
  Basis Set: CC-PVTZ
  Basis Set:
  @DF-RHF Final Energy:  -786.58874699336991
    Total Energy =                       -786.5887469933696821
  Basis Set: CC-PVTZ
  Basis Set:
  Basis Set: CC-PVTZ
  Basis Set:
  @DF-RHF Final Energy:  -786.58874922196776
    Total Energy =                       -786.5887492219676460
  Basis Set: CC-PVTZ
  Basis Set:
  Charge       = 0
  Multiplicity = 1
  Basis Set: CC-PVTZ
  Basis Set:

    Orbital Energies (a.u.)
    -----------------------

    Doubly Occupied:

       1A    -26.359560     2A    -26.359268     3A    -26.358069
       4A    -26.356032     5A    -26.354248     6A    -26.353282
       7A    -20.609011     8A    -11.521307     9A    -11.518753
      10A    -11.351454    11A     -1.772434    12A     -1.766464
      13A     -1.668371    14A     -1.663879    15A     -1.662974
      16A     -1.660822    17A     -1.439000    18A     -1.102573
      19A     -1.002018    20A     -0.945030    21A     -0.871858
      22A     -0.868650    23A     -0.859389    24A     -0.852912
      25A     -0.840423    26A     -0.822695    27A     -0.747851
      28A     -0.734684    29A     -0.732159    30A     -0.727371
      31A     -0.695686    32A     -0.692379    33A     -0.689525
      34A     -0.682228    35A     -0.677782    36A     -0.668176
      37A     -0.664755    38A     -0.656142    39A     -0.625082
      40A     -0.554570    41A     -0.509769

  @DF-RHF Final Energy:  -786.58874950811094

   => Energetics <=

    Nuclear Repulsion Energy =            670.8352279731178669
    One-Electron Energy =               -2428.8506815654982347
    Two-Electron Energy =                 971.4267040842694314
    DFT Exchange-Correlation Energy =       0.0000000000000000
    Empirical Dispersion Energy =           0.0000000000000000
    PCM Polarization Energy =               0.0000000000000000
    EFP Energy =                            0.0000000000000000
    Total Energy =                       -786.5887495081108227
    Molecular point group: c1
  Basis Set: CC-PVTZ
  Basis Set:

  -Total Gradient:
     Atom            X                  Y                   Z
    ------   -----------------  -----------------  -----------------
       1       -0.000001844176     0.000015103244     0.000004281645
       2        0.000009627502    -0.000039384862     0.000007720535
       3        0.001248027546    -0.002547605637    -0.000080447197
       4        0.001520024513    -0.001936566785     0.001216241918
       5        0.000026637997     0.000012592548    -0.000016937666
       6       -0.001385597743     0.002592216328    -0.000207912966
       7       -0.001340628524     0.001831756780    -0.000907805530
       8       -0.000035086128     0.000003429174    -0.000050353171
       9        0.000000782508     0.000096288341     0.000011615989
      10       -0.000037970634     0.000004087116    -0.000000996045
      11        0.000003073709    -0.000037325367    -0.000015790631
      12       -0.000007046589     0.000005409116     0.000040383116

  **** Optimization is complete! (in 7 steps) ****
    Final optimized geometry and variables:
    Molecular point group: c1

    Geometry (in Angstrom), charge = 0, multiplicity = 1:

    H           -0.056757513751     2.021669550798     0.665748651605
    O           -0.005367363486     1.874382748948    -0.264366776444
    C           -0.001222987403     0.527223538898    -0.556217975992
    C           -1.281858041846    -0.126019685735    -0.021394243376
    C            1.287541311830    -0.129306391814    -0.062428295961
    H           -0.023484317093     0.439167273745    -1.631979229359
    F           -1.549310328674     0.294495188827     1.196423845811
    F           -2.293540080121     0.215932746757    -0.783581641321
    F           -1.219335101146    -1.432169031517     0.002423109856
    F            2.320971973096     0.536688038144    -0.512100509648
    F            1.396831166792    -1.366476767568    -0.477750285118
    F            1.350340600022    -0.128810016913     1.252684656046

  Mulliken Charges: (a.u.)
   Center  Symbol    Alpha    Beta     Spin     Total
       1     H     0.38078  0.38078  0.00000  0.23843
       2     O     4.18974  4.18974  0.00000 -0.37947
       3     C     3.00962  3.00962  0.00000 -0.01924
       4     C     2.68098  2.68098  0.00000  0.63804
       5     C     2.68372  2.68372  0.00000  0.63256
       6     H     0.42455  0.42455  0.00000  0.15091
       7     F     4.61102  4.61102  0.00000 -0.22203
       8     F     4.60363  4.60363  0.00000 -0.20726
       9     F     4.60062  4.60062  0.00000 -0.20125
      10     F     4.60099  4.60099  0.00000 -0.20198
      11     F     4.60360  4.60360  0.00000 -0.20721
      12     F     4.61075  4.61075  0.00000 -0.22151

   Total alpha = 41.00000, Total beta = 41.00000, Total charge = -0.00000
