  ==> Input File <==

--------------------------------------------------------------------------
set {
	reference rhf
	basis 6-31G*
}

set_num_threads( 1 )
memory 2 gb

molecule MOL {
0 1

O	 3.907787	 -0.360760	 -0.118032
C	 2.843464	 0.164689	 -0.000222
C	 1.546494	 -0.624492	 -0.000609
C	 2.718020	 1.666091	 0.158555
C	 0.291004	 0.242674	 0.000989
H	 1.557904	 -1.283758	 -0.867573
H	 1.558622	 -1.285963	 0.864672
C	 -0.994322	 -0.586602	 0.000262
H	 0.309117	 0.896430	 -0.865270
H	 0.309661	 0.894078	 0.869017
C	 -2.259874	 0.272531	 0.000494
H	 -1.004862	 -1.240012	 -0.870939
H	 -1.005220	 -1.241071	 0.870675
C	 -3.549786	 -0.549746	 -0.000374
H	 -2.250389	 0.926680	 -0.869574
H	 -2.250838	 0.925513	 0.871430
C	 -4.809590	 0.315458	 -0.000369
H	 -3.560515	 -1.202009	 -0.871156
H	 -3.561123	 -1.202955	 0.869711
H	 -4.844746	 0.956611	 -0.876632
H	 -5.706986	 -0.295590	 -0.001609
H	 -4.845960	 0.954827	 0.877144
H	 2.219647	 1.908090	 1.092729
H	 3.700267	 2.117606	 0.145944
H	 2.117181	 2.082899	 -0.644501

	symmetry c1
}
set optking {
	frozen_dihedral = ("
		9 5 8 12,
		15 11 8 12,
		15 11 14 18,
		9 5 3 6
	")
}

ee = energy('scf')
oeprop('DIPOLE', 'QUADRUPOLE', 'MULLIKEN_CHARGES')
f=open( 'psi4out.xyz', 'w' )
f.write( "25  " )
f.write( str(ee) + "\n" )
f.write( MOL.save_string_xyz() )
f.close()
--------------------------------------------------------------------------

    Molecular point group: c1

    Geometry (in Angstrom), charge = 0, multiplicity = 1:

       Center              X                  Y                   Z               Mass
    ------------   -----------------  -----------------  -----------------  -----------------
           O          3.950431723347    -0.430841838712    -0.122836217028    15.994914619560
           C          2.886108723347     0.094607161288    -0.005026217028    12.000000000000
           C          1.589138723347    -0.694573838712    -0.005413217028    12.000000000000
           C          2.760664723347     1.596009161288     0.153750782972    12.000000000000
           C          0.333648723347     0.172592161288    -0.003815217028    12.000000000000
           H          1.600548723347    -1.353839838712    -0.872377217028     1.007825032070
           H          1.601266723347    -1.356044838712     0.859867782972     1.007825032070
           C         -0.951677276653    -0.656683838712    -0.004542217028    12.000000000000
           H          0.351761723347     0.826348161288    -0.870074217028     1.007825032070
           H          0.352305723347     0.823996161288     0.864212782972     1.007825032070
           C         -2.217229276653     0.202449161288    -0.004310217028    12.000000000000
           H         -0.962217276653    -1.310093838712    -0.875743217028     1.007825032070
           H         -0.962575276653    -1.311152838712     0.865870782972     1.007825032070
           C         -3.507141276653    -0.619827838712    -0.005178217028    12.000000000000
           H         -2.207744276653     0.856598161288    -0.874378217028     1.007825032070
           H         -2.208193276653     0.855431161288     0.866625782972     1.007825032070
           C         -4.766945276653     0.245376161288    -0.005173217028    12.000000000000
           H         -3.517870276653    -1.272090838712    -0.875960217028     1.007825032070
           H         -3.518478276653    -1.273036838712     0.864906782972     1.007825032070
           H         -4.802101276653     0.886529161288    -0.881436217028     1.007825032070
           H         -5.664341276653    -0.365671838712    -0.006413217028     1.007825032070
           H         -4.803315276653     0.884745161288     0.872339782972     1.007825032070
           H          2.262291723347     1.838008161288     1.087924782972     1.007825032070
           H          3.742911723347     2.047524161288     0.141139782972     1.007825032070
           H          2.159825723347     2.012817161288    -0.649305217028     1.007825032070

  Charge       = 0
  Multiplicity = 1
  Basis Set: 6-31G*
  Basis Set:

    Orbital Energies (a.u.)
    -----------------------

    Doubly Occupied:

       1A    -20.546348     2A    -11.325555     3A    -11.231129
       4A    -11.229986     5A    -11.225559     6A    -11.224713
       7A    -11.220985     8A    -11.220346     9A    -11.212962
      10A     -1.392306    11A     -1.104413    12A     -1.064514
      13A     -1.009685    14A     -0.969922    15A     -0.898800
      16A     -0.823417    17A     -0.798148    18A     -0.731189
      19A     -0.670105    20A     -0.650610    21A     -0.636276
      22A     -0.626281    23A     -0.594465    24A     -0.591015
      25A     -0.562862    26A     -0.558338    27A     -0.546544
      28A     -0.531207    29A     -0.527690    30A     -0.498922
      31A     -0.492652    32A     -0.470728    33A     -0.470009
      34A     -0.466469    35A     -0.459741    36A     -0.395224

  @DF-RHF Final Energy:  -387.12918976354899

   => Energetics <=

    Nuclear Repulsion Energy =            440.9423820047135223
    One-Electron Energy =               -1398.1850200509147726
    Two-Electron Energy =                 570.1134482826531666
    DFT Exchange-Correlation Energy =       0.0000000000000000
    Empirical Dispersion Energy =           0.0000000000000000
    PCM Polarization Energy =               0.0000000000000000
    EFP Energy =                            0.0000000000000000
    Total Energy =                       -387.1291897635480836

  Mulliken Charges: (a.u.)
   Center  Symbol    Alpha    Beta     Spin     Total
       1     O     4.26339  4.26339  0.00000 -0.52678
       2     C     2.73233  2.73233  0.00000  0.53535
       3     C     3.20645  3.20645  0.00000 -0.41290
       4     C     3.29583  3.29583  0.00000 -0.59166
       5     C     3.16519  3.16519  0.00000 -0.33037
       6     H     0.39976  0.39976  0.00000  0.20048
       7     H     0.40060  0.40060  0.00000  0.19879
       8     C     3.15132  3.15132  0.00000 -0.30264
       9     H     0.41869  0.41869  0.00000  0.16262
      10     H     0.41880  0.41880  0.00000  0.16239
      11     C     3.15092  3.15092  0.00000 -0.30183
      12     H     0.42094  0.42094  0.00000  0.15813
      13     H     0.42138  0.42138  0.00000  0.15724
      14     C     3.15200  3.15200  0.00000 -0.30399
      15     H     0.42342  0.42342  0.00000  0.15317
      16     H     0.42357  0.42357  0.00000  0.15286
      17     C     3.23957  3.23957  0.00000 -0.47913
      18     H     0.42223  0.42223  0.00000  0.15555
      19     H     0.42235  0.42235  0.00000  0.15530
      20     H     0.42144  0.42144  0.00000  0.15711
      21     H     0.41828  0.41828  0.00000  0.16343
      22     H     0.42152  0.42152  0.00000  0.15697
      23     H     0.40747  0.40747  0.00000  0.18506
      24     H     0.39561  0.39561  0.00000  0.20879
      25     H     0.40696  0.40696  0.00000  0.18607

   Total alpha = 36.00000, Total beta = 36.00000, Total charge =  0.00000
