  ==> Input File <==

--------------------------------------------------------------------------
set {
	reference rhf
	basis 6-31G*
}

set_num_threads( 1 )
memory 2 gb

molecule MOL {
0 1

O	 -3.108977	 0.724125	 -0.931673
C	 -2.668563	 0.129746	 -0.000350
C	 -3.397819	 -0.041957	 1.307309
O	 -1.481751	 -0.454642	 0.000584
H	 -4.343095	 -0.535745	 1.116290
H	 -2.821061	 -0.615156	 2.018106
H	 -3.616402	 0.937779	 1.715009
C	 -0.334255	 0.388708	 0.000906
C	 0.891947	 -0.504646	 0.000751
H	 -0.365390	 1.025305	 -0.873475
H	 -0.365484	 1.024911	 0.875569
C	 2.191998	 0.301789	 0.000897
H	 0.855148	 -1.151283	 -0.871571
H	 0.855132	 -1.151660	 0.872805
C	 3.441114	 -0.581407	 0.000108
H	 2.215074	 0.954890	 -0.869742
H	 2.215465	 0.953923	 0.872248
C	 4.739576	 0.224112	 -0.001102
H	 3.419457	 -1.233487	 -0.870178
H	 3.420834	 -1.233096	 0.870717
H	 4.804918	 0.861552	 -0.878265
H	 5.606527	 -0.429058	 -0.001824
H	 4.806469	 0.861674	 0.875853

	symmetry c1
}
set optking {
	frozen_dihedral = ("
		13 9 8 10,
		2 4 8 10,
		16 12 9 13,
		19 15 12 16
	")
}

ee = energy('scf')
oeprop('DIPOLE', 'QUADRUPOLE', 'MULLIKEN_CHARGES')
f=open( 'psi4out.xyz', 'w' )
f.write( "23  " )
f.write( str(ee) + "\n" )
f.write( MOL.save_string_xyz() )
f.close()
--------------------------------------------------------------------------

    Molecular point group: c1

    Geometry (in Angstrom), charge = 0, multiplicity = 1:

       Center              X                  Y                   Z               Mass
    ------------   -----------------  -----------------  -----------------  -----------------
           O         -3.122488567428     0.696614003102    -0.975478315807    15.994914619560
           C         -2.682074567428     0.102235003102    -0.044155315807    12.000000000000
           C         -3.411330567428    -0.069467996898     1.263503684193    12.000000000000
           O         -1.495262567428    -0.482152996898    -0.043221315807    15.994914619560
           H         -4.356606567428    -0.563255996898     1.072484684193     1.007825032070
           H         -2.834572567428    -0.642666996898     1.974300684193     1.007825032070
           H         -3.629913567428     0.910268003102     1.671203684193     1.007825032070
           C         -0.347766567428     0.361197003102    -0.042899315807    12.000000000000
           C          0.878435432572    -0.532156996898    -0.043054315807    12.000000000000
           H         -0.378901567428     0.997794003102    -0.917280315807     1.007825032070
           H         -0.378995567428     0.997400003102     0.831763684193     1.007825032070
           C          2.178486432572     0.274278003102    -0.042908315807    12.000000000000
           H          0.841636432572    -1.178793996898    -0.915376315807     1.007825032070
           H          0.841620432572    -1.179170996898     0.828999684193     1.007825032070
           C          3.427602432572    -0.608917996898    -0.043697315807    12.000000000000
           H          2.201562432572     0.927379003102    -0.913547315807     1.007825032070
           H          2.201953432572     0.926412003102     0.828442684193     1.007825032070
           C          4.726064432572     0.196601003102    -0.044907315807    12.000000000000
           H          3.405945432572    -1.260997996898    -0.913983315807     1.007825032070
           H          3.407322432572    -1.260606996898     0.826911684193     1.007825032070
           H          4.791406432572     0.834041003102    -0.922070315807     1.007825032070
           H          5.593015432572    -0.456568996898    -0.045629315807     1.007825032070
           H          4.792957432572     0.834163003102     0.832047684193     1.007825032070

  Charge       = 0
  Multiplicity = 1
  Basis Set: 6-31G*
  Basis Set:

    Orbital Energies (a.u.)
    -----------------------

    Doubly Occupied:

       1A    -20.584667     2A    -20.548556     3A    -11.374647
       4A    -11.292274     5A    -11.231593     6A    -11.227587
       7A    -11.226629     8A    -11.223611     9A    -11.214597
      10A     -1.462188    11A     -1.363066    12A     -1.096211
      13A     -1.039819    14A     -1.005397    15A     -0.935728
      16A     -0.844489    17A     -0.805794    18A     -0.775981
      19A     -0.698787    20A     -0.683189    21A     -0.656641
      22A     -0.649575    23A     -0.615417    24A     -0.590520
      25A     -0.583659    26A     -0.573782    27A     -0.557108
      28A     -0.550527    29A     -0.515929    30A     -0.502123
      31A     -0.488018    32A     -0.479459    33A     -0.473653
      34A     -0.471055    35A     -0.449481    36A     -0.432751

  @DF-RHF Final Energy:  -422.96063867103180

   => Energetics <=

    Nuclear Repulsion Energy =            449.5564521383695364
    One-Electron Energy =               -1466.5851126393465620
    Two-Electron Energy =                 594.0680218299421540
    DFT Exchange-Correlation Energy =       0.0000000000000000
    Empirical Dispersion Energy =           0.0000000000000000
    PCM Polarization Energy =               0.0000000000000000
    EFP Energy =                            0.0000000000000000
    Total Energy =                       -422.9606386710348715

  Mulliken Charges: (a.u.)
   Center  Symbol    Alpha    Beta     Spin     Total
       1     O     4.26233  4.26233  0.00000 -0.52466
       2     C     2.62149  2.62149  0.00000  0.75702
       3     C     3.29312  3.29312  0.00000 -0.58624
       4     O     4.31799  4.31799  0.00000 -0.63598
       5     H     0.39610  0.39610  0.00000  0.20781
       6     H     0.40224  0.40224  0.00000  0.19553
       7     H     0.39887  0.39887  0.00000  0.20226
       8     C     2.99655  2.99655  0.00000  0.00690
       9     C     3.16389  3.16389  0.00000 -0.32779
      10     H     0.40685  0.40685  0.00000  0.18631
      11     H     0.42202  0.42202  0.00000  0.15597
      12     C     3.16110  3.16110  0.00000 -0.32220
      13     H     0.40901  0.40901  0.00000  0.18198
      14     H     0.41382  0.41382  0.00000  0.17236
      15     C     3.15168  3.15168  0.00000 -0.30335
      16     H     0.41987  0.41987  0.00000  0.16026
      17     H     0.42239  0.42239  0.00000  0.15522
      18     C     3.23996  3.23996  0.00000 -0.47992
      19     H     0.42017  0.42017  0.00000  0.15966
      20     H     0.42133  0.42133  0.00000  0.15735
      21     H     0.42048  0.42048  0.00000  0.15905
      22     H     0.41747  0.41747  0.00000  0.16506
      23     H     0.42130  0.42130  0.00000  0.15741

   Total alpha = 36.00000, Total beta = 36.00000, Total charge =  0.00000
