  ==> Input File <==

--------------------------------------------------------------------------
set {
	reference rhf
	basis 6-31G*
}

set_num_threads( 4 )
memory 2 gb

molecule MOL {
0 1

H	 -1.518340	 -0.270561	 -1.039401
N	 -1.172117	 -0.314371	 -0.100254
C	 -0.024542	 0.565565	 0.069209
H	 -1.923565	 -0.030153	 0.499433
C	 1.271298	 -0.229563	 -0.014192
H	 -0.049409	 1.297310	 -0.731596
H	 -0.046881	 1.125219	 1.006750
H	 1.332152	 -0.753033	 -0.961461
H	 2.134169	 0.422483	 0.080702
H	 1.326077	 -0.968298	 0.781395

	symmetry c1
}
set optking {
	frozen_dihedral = ("
		1 2 3 6
	")
}

ee = optimize('scf')
oeprop('DIPOLE', 'QUADRUPOLE', 'MULLIKEN_CHARGES')
f=open( 'psi4out.xyz', 'w' )
f.write( "10  " )
f.write( str(ee) + "\n" )
f.write( MOL.save_string_xyz() )
f.close()
--------------------------------------------------------------------------

    Molecular point group: c1
  Charge       = 0
  Multiplicity = 1
  Basis Set: 6-31G*
  Basis Set:
  @DF-RHF Final Energy:  -134.24362249038762
    Total Energy =                       -134.2436224903875939
    Molecular point group: c1
  Basis Set: 6-31G*
  Basis Set:
  Basis Set: 6-31G*
  Basis Set:
  @DF-RHF Final Energy:  -134.24478143190262
    Total Energy =                       -134.2447814319025952
  Basis Set: 6-31G*
  Basis Set:
  Basis Set: 6-31G*
  Basis Set:
  @DF-RHF Final Energy:  -134.24504254831655
    Total Energy =                       -134.2450425483166612
  Basis Set: 6-31G*
  Basis Set:
  Basis Set: 6-31G*
  Basis Set:
  @DF-RHF Final Energy:  -134.24504556443199
    Total Energy =                       -134.2450455644319902
  Basis Set: 6-31G*
  Basis Set:
  Charge       = 0
  Multiplicity = 1
  Basis Set: 6-31G*
  Basis Set:

    Orbital Energies (a.u.)
    -----------------------

    Doubly Occupied:

       1A    -15.532554     2A    -11.243249     3A    -11.200275
       4A     -1.173948     5A     -0.985473     6A     -0.820044
       7A     -0.669836     8A     -0.624039     9A     -0.570153
      10A     -0.521293    11A     -0.509468    12A     -0.479112
      13A     -0.381737

  @DF-RHF Final Energy:  -134.24504610781838

   => Energetics <=

    Nuclear Repulsion Energy =             83.0739475513620818
    One-Electron Energy =                -345.2156255036948096
    Two-Electron Energy =                 127.8966318445143173
    DFT Exchange-Correlation Energy =       0.0000000000000000
    Empirical Dispersion Energy =           0.0000000000000000
    PCM Polarization Energy =               0.0000000000000000
    EFP Energy =                            0.0000000000000000
    Total Energy =                       -134.2450461078183821
    Molecular point group: c1
  Basis Set: 6-31G*
  Basis Set:

  -Total Gradient:
     Atom            X                  Y                   Z
    ------   -----------------  -----------------  -----------------
       1       -0.001665794629     0.002088038245     0.000764052392
       2        0.002466350407    -0.002987160102    -0.001372636199
       3       -0.002168858260     0.002445445501     0.002097088467
       4       -0.000019229249    -0.000019890942     0.000005761099
       5       -0.000003397567     0.000041621991     0.000009235026
       6        0.001380320321    -0.001585402622    -0.001506980935
       7        0.000022327361     0.000007739987     0.000010463117
       8       -0.000006596190     0.000003548681    -0.000001939330
       9        0.000004491334    -0.000003582078    -0.000005417098
      10       -0.000009613528     0.000009641340     0.000000373461

  **** Optimization is complete! (in 5 steps) ****
    Final optimized geometry and variables:
    Molecular point group: c1

    Geometry (in Angstrom), charge = 0, multiplicity = 1:

    H           -1.548199182696    -0.292302791971    -0.990394900202
    N           -1.175270044519    -0.327804288602    -0.062224029256
    C           -0.017964932164     0.557321383991     0.072077488619
    H           -1.916404736379    -0.039102276957     0.545063798296
    C            1.281970789056    -0.237073115380     0.012695603632
    H            0.002495427458     1.317951656688    -0.707161253254
    H           -0.078373148765     1.078401148126     1.021744069886
    H            1.364096205236    -0.765293915466    -0.932370276253
    H            2.145135220166     0.416158632926     0.111143261777
    H            1.310562680221    -0.974326118656     0.807159070910

  Mulliken Charges: (a.u.)
   Center  Symbol    Alpha    Beta     Spin     Total
       1     H     0.33300  0.33300  0.00000  0.33400
       2     N     3.92191  3.92191  0.00000 -0.84382
       3     C     3.06935  3.06935  0.00000 -0.13869
       4     H     0.33199  0.33199  0.00000  0.33603
       5     C     3.22629  3.22629  0.00000 -0.45258
       6     H     0.42888  0.42888  0.00000  0.14224
       7     H     0.42244  0.42244  0.00000  0.15513
       8     H     0.42229  0.42229  0.00000  0.15543
       9     H     0.42765  0.42765  0.00000  0.14471
      10     H     0.41622  0.41622  0.00000  0.16756

   Total alpha = 13.00000, Total beta = 13.00000, Total charge =  0.00000
