                              Psi4 1.0.54 Driver

  ==> Input File <==

--------------------------------------------------------------------------
set {
	reference rhf
	basis cc-pvtz
}

set_num_threads( 4 )
memory 2 gb

molecule MOL {
0 1

H	 -3.902701	 -1.538685	 0.923238
C	 -2.835947	 -1.425405	 0.960384
C	 -2.170000	 -1.553521	 2.166097
C	 -2.131675	 -1.151914	 -0.196848
H	 -2.717307	 -1.765808	 3.063922
C	 -0.799211	 -1.407823	 2.213033
H	 -2.649055	 -1.052748	 -1.131383
C	 -0.759059	 -1.005747	 -0.151475
H	 -0.267761	 -1.503789	 3.137917
C	 -0.088698	 -1.133445	 1.054684
H	 -0.210649	 -0.793917	 -1.045849
C	 1.391222	 -0.985042	 1.158282
O	 1.968286	 -0.725612	 -0.000027
O	 1.994833	 -1.088043	 2.173281
C	 3.373556	 -0.568203	 0.000011
H	 3.695416	 -0.031588	 -0.879663
H	 3.782700	 -1.565294	 -0.000152
H	 3.695405	 -0.031851	 0.879862

	symmetry c1
}
set optking {
	frozen_dihedral = ("
		12 13 15 16
	")
}

ee,wfn = optimize('scf', return_wfn=True)
oeprop( wfn, 'DIPOLE', 'QUADRUPOLE', 'MULLIKEN_CHARGES')
f=open( 'psi4out.xyz', 'w' )
f.write( "18  " )
f.write( str(ee) + "\n" )
f.write( MOL.save_string_xyz() )
f.close()
--------------------------------------------------------------------------

    Molecular point group: c1
  Charge       = 0
  Multiplicity = 1
  Basis Set: CC-PVTZ
  Basis Set:
  @DF-RHF Final Energy:  -457.50822417961041
    Total Energy =                       -457.5082241796101243
    Molecular point group: c1
  Basis Set: CC-PVTZ
  Basis Set:
  Basis Set: CC-PVTZ
  Basis Set:
  @DF-RHF Final Energy:  -457.50926108944435
    Total Energy =                       -457.5092610894439531
  Basis Set: CC-PVTZ
  Basis Set:
  Basis Set: CC-PVTZ
  Basis Set:
  @DF-RHF Final Energy:  -457.50848911805355
    Total Energy =                       -457.5084891180531486
  Basis Set: CC-PVTZ
  Basis Set:
  Basis Set: CC-PVTZ
  Basis Set:
  @DF-RHF Final Energy:  -457.50960903500925
    Total Energy =                       -457.5096090350093618
  Basis Set: CC-PVTZ
  Basis Set:
  Basis Set: CC-PVTZ
  Basis Set:
  @DF-RHF Final Energy:  -457.50963659172106
    Total Energy =                       -457.5096365917213461
  Basis Set: CC-PVTZ
  Basis Set:
  Charge       = 0
  Multiplicity = 1
  Basis Set: CC-PVTZ
  Basis Set:

    Orbital Energies (a.u.)
    -----------------------

    Doubly Occupied:

       1A    -20.600727     2A    -20.534262     3A    -11.372128
       4A    -11.280963     5A    -11.244844     6A    -11.243408
       7A    -11.242566     8A    -11.239929     9A    -11.235961
      10A    -11.235201    11A     -1.476292    12A     -1.368686
      13A     -1.170683    14A     -1.051788    15A     -1.028964
      16A     -0.980896    17A     -0.863143    18A     -0.838365
      19A     -0.781112    20A     -0.745011    21A     -0.688007
      22A     -0.681292    23A     -0.676282    24A     -0.634104
      25A     -0.629986    26A     -0.601223    27A     -0.587661
      28A     -0.566834    29A     -0.530071    30A     -0.520210
      31A     -0.509649    32A     -0.502044    33A     -0.463573
      34A     -0.449371    35A     -0.350147    36A     -0.346159

  @DF-RHF Final Energy:  -457.50963767571244

   => Energetics <=

    Nuclear Repulsion Energy =            493.9204325316482596
    One-Electron Energy =               -1602.3170567820607175
    Two-Electron Energy =                 650.8869865747000176
    DFT Exchange-Correlation Energy =       0.0000000000000000
    Empirical Dispersion Energy =           0.0000000000000000
    PCM Polarization Energy =               0.0000000000000000
    EFP Energy =                            0.0000000000000000
    Total Energy =                       -457.5096376757124972
    Molecular point group: c1
  Basis Set: CC-PVTZ
  Basis Set:

  -Total Gradient:
     Atom            X                  Y                   Z
    ------   -----------------  -----------------  -----------------
       1        0.000011133343     0.000001104488    -0.000002889969
       2        0.000010171694    -0.000001407720     0.000006395225
       3        0.000003854683     0.000005667543    -0.000005346815
       4        0.000022916681     0.000003526505    -0.000001264090
       5        0.000009840615     0.000003190923    -0.000003392983
       6        0.000020726667    -0.000003116429    -0.000003493444
       7        0.000004480777     0.000000667429     0.000000544761
       8        0.000006112252    -0.000008803163    -0.000005583976
       9        0.000002312642    -0.000000526827     0.000004912521
      10        0.000047119475     0.000012584808     0.000033953698
      11        0.000004077132     0.000004598550    -0.000003346709
      12       -0.000196497075     0.001337636740     0.000217008962
      13        0.000150560233    -0.001685850059    -0.000174087669
      14       -0.000094664544    -0.000025906600     0.000072270177
      15        0.000186751870    -0.001001065328    -0.000856712742
      16       -0.000131473125     0.001342584259     0.000757995691
      17       -0.000049724944     0.000046836365     0.000004393200
      18       -0.000007698372    -0.000031721483    -0.000041355843

  **** Optimization is complete! (in 6 steps) ****
    Final optimized geometry and variables:
    Molecular point group: c1

    Geometry (in Angstrom), charge = 0, multiplicity = 1:

    H           -4.027130865164    -0.420711542080    -0.015645085020
    C           -2.959580427449    -0.316247073231     0.024969495074
    C           -2.298437839607    -0.451612241745     1.232624933718
    C           -2.249363039029    -0.047019603893    -1.129569323911
    H           -2.850251300848    -0.660731253939     2.128487162189
    C           -0.926668658894    -0.317462211233     1.284038198598
    H           -2.762763844371     0.057702728855    -2.065726907833
    C           -0.875637237197     0.087819982577    -1.079661985275
    H           -0.399033755189    -0.419448431106     2.210504883585
    C           -0.210243678811    -0.047013907597     0.128343310840
    H           -0.322855907449     0.296229756770    -1.972169035967
    C            1.270882193643     0.089356167507     0.237688929615
    O            1.851819389821     0.340683359323    -0.920621157355
    O            1.867548194491    -0.018021623822     1.256155289393
    C            3.254129236026     0.523713612361    -0.931199945838
    H            3.481179718504     1.052815576162    -1.842643051453
    H            3.755426945538    -0.433432910375    -0.917094014451
    H            3.570016563073     1.103704246992    -0.079374622134

  Mulliken Charges: (a.u.)
   Center  Symbol    Alpha    Beta     Spin     Total
       1     H     0.42031  0.42031  0.00000  0.15939
       2     C     3.06975  3.06975  0.00000 -0.13951
       3     C     3.07553  3.07553  0.00000 -0.15105
       4     C     3.07494  3.07494  0.00000 -0.14987
       5     H     0.42041  0.42041  0.00000  0.15919
       6     C     3.07588  3.07588  0.00000 -0.15176
       7     H     0.42191  0.42191  0.00000  0.15618
       8     C     3.08211  3.08211  0.00000 -0.16422
       9     H     0.40658  0.40658  0.00000  0.18684
      10     C     3.01459  3.01459  0.00000 -0.02918
      11     H     0.41107  0.41107  0.00000  0.17786
      12     C     2.77978  2.77978  0.00000  0.44043
      13     O     4.14896  4.14896  0.00000 -0.29792
      14     O     4.21141  4.21141  0.00000 -0.42282
      15     C     3.03725  3.03725  0.00000 -0.07450
      16     H     0.44645  0.44645  0.00000  0.10710
      17     H     0.45500  0.45500  0.00000  0.09001
      18     H     0.44809  0.44809  0.00000  0.10383

   Total alpha = 36.00000, Total beta = 36.00000, Total charge =  0.00000

*** Psi4 exiting successfully. Buy a developer a beer!
