  ==> Input File <==

--------------------------------------------------------------------------
set {
	reference rhf
	basis 6-31G*
}

set_num_threads( 4 )
memory 2 gb

molecule MOL {
0 1

H	 -1.053687	 2.002580	 -1.184792
C	 -1.575913	 1.140572	 -0.780585
O	 -0.774054	 0.001095	 -0.743181
H	 -2.406959	 0.910727	 -1.433934
H	 -1.972827	 1.400942	 0.196072
C	 0.406953	 0.000033	 0.038965
C	 1.527284	 -0.003667	 -0.998752
C	 0.498933	 1.262172	 0.902524
C	 0.494271	 -1.259566	 0.906664
H	 1.452513	 0.873252	 -1.631882
H	 1.448863	 -0.881882	 -1.629595
H	 2.502020	 -0.005104	 -0.521731
H	 0.364280	 2.147110	 0.289513
H	 1.472180	 1.321775	 1.378800
H	 -0.247853	 1.275162	 1.689097
H	 0.356778	 -2.146106	 0.296587
H	 1.467182	 -1.320941	 1.383330
H	 -0.252763	 -1.267328	 1.693119

	symmetry c1
}
set optking {
	frozen_dihedral = ("
		2 3 6 7
	")
}

ee = optimize('scf')
oeprop('DIPOLE', 'QUADRUPOLE', 'MULLIKEN_CHARGES')
f=open( 'psi4out.xyz', 'w' )
f.write( "18  " )
f.write( str(ee) + "\n" )
f.write( MOL.save_string_xyz() )
f.close()
--------------------------------------------------------------------------

    Molecular point group: c1
  Charge       = 0
  Multiplicity = 1
  Basis Set: 6-31G*
  Basis Set:
  @DF-RHF Final Energy:  -271.16696295447042
    Total Energy =                       -271.1669629544702502
    Molecular point group: c1
  Basis Set: 6-31G*
  Basis Set:
  Basis Set: 6-31G*
  Basis Set:
  @DF-RHF Final Energy:  -271.16829613015881
    Total Energy =                       -271.1682961301588648
  Basis Set: 6-31G*
  Basis Set:
  Basis Set: 6-31G*
  Basis Set:
  @DF-RHF Final Energy:  -271.17120826976441
    Total Energy =                       -271.1712082697642927
  Basis Set: 6-31G*
  Basis Set:
  Basis Set: 6-31G*
  Basis Set:
  @DF-RHF Final Energy:  -271.17156563154526
    Total Energy =                       -271.1715656315451497
  Basis Set: 6-31G*
  Basis Set:
  @DF-RHF Final Energy:  -271.17160290372243
    Total Energy =                       -271.1716029037224871
  Basis Set: 6-31G*
  Basis Set:
  @DF-RHF Final Energy:  -271.17159117606684
    Total Energy =                       -271.1715911760667836
  Basis Set: 6-31G*
  Basis Set:
  Basis Set: 6-31G*
  Basis Set:
  @DF-RHF Final Energy:  -271.17160631449411
    Total Energy =                       -271.1716063144941700
  Basis Set: 6-31G*
  Basis Set:
  Basis Set: 6-31G*
  Basis Set:
  @DF-RHF Final Energy:  -271.17160504053084
    Total Energy =                       -271.1716050405306646
  Basis Set: 6-31G*
  Basis Set:
  Charge       = 0
  Multiplicity = 1
  Basis Set: 6-31G*
  Basis Set:

    Orbital Energies (a.u.)
    -----------------------

    Doubly Occupied:

       1A    -20.543812     2A    -11.281724     3A    -11.262147
       4A    -11.213911     5A    -11.203767     6A    -11.202953
       7A     -1.366382     8A     -1.073932     9A     -0.950957
      10A     -0.934084    11A     -0.911694    12A     -0.751287
      13A     -0.656337    14A     -0.645834    15A     -0.636717
      16A     -0.582678    17A     -0.576558    18A     -0.548494
      19A     -0.541651    20A     -0.526002    21A     -0.514814
      22A     -0.490040    23A     -0.482858    24A     -0.441936
      25A     -0.396028

  @DF-RHF Final Energy:  -271.17160684099275

   => Energetics <=

    Nuclear Repulsion Energy =            271.7275023441564485
    One-Electron Energy =                -906.3250247292911581
    Two-Electron Energy =                 363.4259155441417874
    DFT Exchange-Correlation Energy =       0.0000000000000000
    Empirical Dispersion Energy =           0.0000000000000000
    PCM Polarization Energy =               0.0000000000000000
    EFP Energy =                            0.0000000000000000
    Total Energy =                       -271.1716068409928653
    Molecular point group: c1
  Basis Set: 6-31G*
  Basis Set:

  -Total Gradient:
     Atom            X                  Y                   Z
    ------   -----------------  -----------------  -----------------
       1       -0.000004635345    -0.000006948714     0.000000760696
       2       -0.001076888883    -0.000698632976     0.001883355054
       3        0.001676548093     0.000492932093    -0.002822721709
       4        0.000005827376    -0.000002799298    -0.000001397965
       5       -0.000001431141     0.000002919089     0.000009165396
       6       -0.000643816203     0.002063723290     0.000832866821
       7        0.000032549351    -0.001851562741     0.000096140702
       8        0.000010809993     0.000004971654     0.000000600509
       9        0.000010391821    -0.000006179062    -0.000003040630
      10       -0.000002147061     0.000000268754    -0.000000026847
      11       -0.000001139045    -0.000002374705     0.000000891640
      12       -0.000003396947     0.000001041763     0.000002788913
      13       -0.000000138981    -0.000000991054     0.000001180636
      14        0.000000396259     0.000003780170     0.000002329634
      15       -0.000001880890    -0.000000559544    -0.000000844077
      16        0.000000231399    -0.000001769885     0.000000171758
      17       -0.000001092211    -0.000000299915    -0.000000736672
      18       -0.000000187586     0.000002481079    -0.000001483856

  **** Optimization is complete! (in 9 steps) ****
    Final optimized geometry and variables:
    Molecular point group: c1

    Geometry (in Angstrom), charge = 0, multiplicity = 1:

    H           -1.256689510909     1.735814359081    -1.133540733704
    C           -1.724313799864     0.874075659947    -0.663749978976
    O           -0.869375507235    -0.221969953046    -0.583199004686
    H           -2.557400255077     0.564729273857    -1.280998516259
    H           -2.111460252394     1.174822466285     0.304837552940
    C            0.353921877635    -0.162648797289     0.140766470317
    C            1.482037610947    -0.195497980026    -0.891812535594
    C            0.489117096060     1.066945986647     1.043016945520
    C            0.380570192679    -1.432134037053     0.992350505718
    H            1.445812664872     0.685478116539    -1.525648003453
    H            1.376897157299    -1.068401947782    -1.525671449941
    H            2.456524740780    -0.229698606007    -0.413967078628
    H            0.480181686397     1.993137202115     0.479439656470
    H            1.434915994542     1.015889802931     1.571395306045
    H           -0.299674358109     1.108125609594     1.786021256605
    H            0.253853808355    -2.304532746634     0.361516380718
    H            1.319505033466    -1.527707846266     1.529253545902
    H           -0.429410163387    -1.419676714209     1.714116075787

  Mulliken Charges: (a.u.)
   Center  Symbol    Alpha    Beta     Spin     Total
       1     H     0.43161  0.43161  0.00000  0.13679
       2     C     3.07514  3.07514  0.00000 -0.15029
       3     O     4.32524  4.32524  0.00000 -0.65048
       4     H     0.41247  0.41247  0.00000  0.17506
       5     H     0.42965  0.42965  0.00000  0.14071
       6     C     2.83955  2.83955  0.00000  0.32090
       7     C     3.23242  3.23242  0.00000 -0.46483
       8     C     3.25808  3.25808  0.00000 -0.51616
       9     C     3.23134  3.23134  0.00000 -0.46268
      10     H     0.42121  0.42121  0.00000  0.15758
      11     H     0.41334  0.41334  0.00000  0.17332
      12     H     0.42586  0.42586  0.00000  0.14827
      13     H     0.41628  0.41628  0.00000  0.16744
      14     H     0.41421  0.41421  0.00000  0.17157
      15     H     0.41498  0.41498  0.00000  0.17004
      16     H     0.41319  0.41319  0.00000  0.17363
      17     H     0.42621  0.42621  0.00000  0.14757
      18     H     0.41922  0.41922  0.00000  0.16156

   Total alpha = 25.00000, Total beta = 25.00000, Total charge =  0.00000
