  ==> Input File <==

--------------------------------------------------------------------------
set {
	reference rhf
	basis 6-31G*
}

set_num_threads( 1 )
memory 2 gb

molecule MOL {
0 1

H	 -3.197786	 1.823716	 0.210183
C	 -3.237963	 0.950677	 -0.452998
C	 -2.231800	 0.956301	 -1.575591
O	 -4.034379	 0.090296	 -0.260084
C	 -0.797957	 1.189655	 -1.079712
H	 -2.318925	 0.021862	 -2.117756
H	 -2.512276	 1.762439	 -2.252444
C	 -0.252658	 0.041456	 -0.226725
H	 -0.154974	 1.334841	 -1.942717
H	 -0.758339	 2.118780	 -0.513217
C	 1.180775	 0.282413	 0.250794
H	 -0.293363	 -0.880507	 -0.803071
H	 -0.896577	 -0.114995	 0.636658
C	 2.148627	 -0.814315	 -0.201312
H	 1.516199	 1.249228	 -0.115937
H	 1.192670	 0.346017	 1.338083
C	 3.580890	 -0.659131	 0.322722
H	 2.166869	 -0.852443	 -1.289387
H	 1.762857	 -1.776509	 0.128956
C	 4.324889	 0.564933	 -0.213704
H	 4.142010	 -1.551473	 0.056605
H	 3.564836	 -0.624694	 1.410140
H	 4.342616	 0.565491	 -1.300421
H	 3.866655	 1.493402	 0.110242
H	 5.353900	 0.572371	 0.132816

	symmetry c1
}
set optking {
	frozen_dihedral = ("
		6 3 5 8,
		6 3 2 4,
		3 5 8 12,
		8 11 14 18,
		20 17 14 18
	")
}

ee = energy('scf')
oeprop('DIPOLE', 'QUADRUPOLE', 'MULLIKEN_CHARGES')
f=open( 'psi4out.xyz', 'w' )
f.write( "25  " )
f.write( str(ee) + "\n" )
f.write( MOL.save_string_xyz() )
f.close()
--------------------------------------------------------------------------

    Molecular point group: c1

    Geometry (in Angstrom), charge = 0, multiplicity = 1:

       Center              X                  Y                   Z               Mass
    ------------   -----------------  -----------------  -----------------  -----------------
           H         -3.275553343736     1.533998723060     0.589818829941     1.007825032070
           C         -3.315730343736     0.660959723060    -0.073362170059    12.000000000000
           C         -2.309567343736     0.666583723060    -1.195955170059    12.000000000000
           O         -4.112146343736    -0.199421276940     0.119551829941    15.994914619560
           C         -0.875724343736     0.899937723060    -0.700076170059    12.000000000000
           H         -2.396692343736    -0.267855276940    -1.738120170059     1.007825032070
           H         -2.590043343736     1.472721723060    -1.872808170059     1.007825032070
           C         -0.330425343736    -0.248261276940     0.152910829941    12.000000000000
           H         -0.232741343736     1.045123723060    -1.563081170059     1.007825032070
           H         -0.836106343736     1.829062723060    -0.133581170059     1.007825032070
           C          1.103007656264    -0.007304276940     0.630429829941    12.000000000000
           H         -0.371130343736    -1.170224276940    -0.423435170059     1.007825032070
           H         -0.974344343736    -0.404712276940     1.016293829941     1.007825032070
           C          2.070859656264    -1.104032276940     0.178323829941    12.000000000000
           H          1.438431656264     0.959510723060     0.263698829941     1.007825032070
           H          1.114902656264     0.056299723060     1.717718829941     1.007825032070
           C          3.503122656264    -0.948848276940     0.702357829941    12.000000000000
           H          2.089101656264    -1.142160276940    -0.909751170059     1.007825032070
           H          1.685089656264    -2.066226276940     0.508591829941     1.007825032070
           C          4.247121656264     0.275215723060     0.165931829941    12.000000000000
           H          4.064242656264    -1.841190276940     0.436240829941     1.007825032070
           H          3.487068656264    -0.914411276940     1.789775829941     1.007825032070
           H          4.264848656264     0.275773723060    -0.920785170059     1.007825032070
           H          3.788887656264     1.203684723060     0.489877829941     1.007825032070
           H          5.276132656264     0.282653723060     0.512451829941     1.007825032070

  Charge       = 0
  Multiplicity = 1
  Basis Set: 6-31G*
  Basis Set:

    Orbital Energies (a.u.)
    -----------------------

    Doubly Occupied:

       1A    -20.561812     2A    -11.326030     3A    -11.235615
       4A    -11.234225     5A    -11.222337     6A    -11.218558
       7A    -11.218089     8A    -11.217629     9A    -11.211186
      10A     -1.401812    11A     -1.104403    12A     -1.069507
      13A     -1.013347    14A     -0.941972    15A     -0.876430
      16A     -0.821409    17A     -0.788002    18A     -0.782284
      19A     -0.665751    20A     -0.652319    21A     -0.635791
      22A     -0.623720    23A     -0.608406    24A     -0.596806
      25A     -0.565333    26A     -0.562595    27A     -0.525864
      28A     -0.523784    29A     -0.519266    30A     -0.499375
      31A     -0.487086    32A     -0.478212    33A     -0.460493
      34A     -0.457113    35A     -0.441469    36A     -0.409400

  @DF-RHF Final Energy:  -387.11640110166496

   => Energetics <=

    Nuclear Repulsion Energy =            440.4391814455487406
    One-Electron Energy =               -1397.1964963667983284
    Two-Electron Energy =                 569.6409138195848527
    DFT Exchange-Correlation Energy =       0.0000000000000000
    Empirical Dispersion Energy =           0.0000000000000000
    PCM Polarization Energy =               0.0000000000000000
    EFP Energy =                            0.0000000000000000
    Total Energy =                       -387.1164011016647919

  Mulliken Charges: (a.u.)
   Center  Symbol    Alpha    Beta     Spin     Total
       1     H     0.43268  0.43268  0.00000  0.13464
       2     C     2.83075  2.83075  0.00000  0.33851
       3     C     3.20872  3.20872  0.00000 -0.41744
       4     O     4.23782  4.23782  0.00000 -0.47565
       5     C     3.16951  3.16951  0.00000 -0.33902
       6     H     0.39964  0.39964  0.00000  0.20071
       7     H     0.40688  0.40688  0.00000  0.18624
       8     C     3.15701  3.15701  0.00000 -0.31402
       9     H     0.41256  0.41256  0.00000  0.17488
      10     H     0.41899  0.41899  0.00000  0.16202
      11     C     3.15769  3.15769  0.00000 -0.31539
      12     H     0.41522  0.41522  0.00000  0.16957
      13     H     0.41581  0.41581  0.00000  0.16837
      14     C     3.15536  3.15536  0.00000 -0.31071
      15     H     0.41880  0.41880  0.00000  0.16239
      16     H     0.41950  0.41950  0.00000  0.16100
      17     C     3.15331  3.15331  0.00000 -0.30662
      18     H     0.42426  0.42426  0.00000  0.15149
      19     H     0.41974  0.41974  0.00000  0.16051
      20     C     3.24130  3.24130  0.00000 -0.48259
      21     H     0.42030  0.42030  0.00000  0.15940
      22     H     0.42264  0.42264  0.00000  0.15471
      23     H     0.42250  0.42250  0.00000  0.15500
      24     H     0.42049  0.42049  0.00000  0.15901
      25     H     0.41850  0.41850  0.00000  0.16300

   Total alpha = 36.00000, Total beta = 36.00000, Total charge =  0.00000
