                              Psi4 1.0.54 Driver

  ==> Input File <==

--------------------------------------------------------------------------
set {
	reference rhf
	basis cc-pvtz
}

set_num_threads( 4 )
memory 2 gb

molecule MOL {
0 1

H	 -3.162190	 0.493205	 -0.000107
C	 -2.363908	 -0.234727	 0.000005
O	 -1.158738	 0.454634	 -0.000087
H	 -2.464314	 -0.863616	 -0.882153
H	 -2.464327	 -0.863359	 0.882345
C	 -0.028611	 -0.359694	 0.000037
C	 1.212847	 0.509314	 -0.000053
H	 -0.034155	 -1.007047	 -0.877198
H	 -0.034195	 -1.006836	 0.877430
C	 2.492116	 -0.302825	 -0.168137
H	 1.124843	 1.237298	 -0.798939
H	 1.244004	 1.067198	 0.929326
H	 2.492434	 -0.850745	 -1.104550
H	 3.362271	 0.342032	 -0.164814
H	 2.612544	 -1.021765	 0.635411

	symmetry c1
}
set optking {
	frozen_dihedral = ("
		11 7 6 8
	")
}

ee,wfn = optimize('scf', return_wfn=True)
oeprop( wfn, 'DIPOLE', 'QUADRUPOLE', 'MULLIKEN_CHARGES')
f=open( 'psi4out.xyz', 'w' )
f.write( "15  " )
f.write( str(ee) + "\n" )
f.write( MOL.save_string_xyz() )
f.close()
--------------------------------------------------------------------------

    Molecular point group: c1
  Charge       = 0
  Multiplicity = 1
  Basis Set: CC-PVTZ
  Basis Set:
  @DF-RHF Final Energy:  -232.22803006271741
    Total Energy =                       -232.2280300627173801
    Molecular point group: c1
  Basis Set: CC-PVTZ
  Basis Set:
  Basis Set: CC-PVTZ
  Basis Set:
  @DF-RHF Final Energy:  -232.22805563910325
    Total Energy =                       -232.2280556391033883
  Basis Set: CC-PVTZ
  Basis Set:
  Charge       = 0
  Multiplicity = 1
  Basis Set: CC-PVTZ
  Basis Set:

    Orbital Energies (a.u.)
    -----------------------

    Doubly Occupied:

       1A    -20.547894     2A    -11.264405     3A    -11.261905
       4A    -11.212748     5A    -11.210845     6A     -1.382164
       7A     -1.058366     8A     -0.956251     9A     -0.877568
      10A     -0.809750    11A     -0.676796    12A     -0.656457
      13A     -0.632485    14A     -0.608046    15A     -0.565406
      16A     -0.540851    17A     -0.504177    18A     -0.490655
      19A     -0.477789    20A     -0.463058    21A     -0.416721

  @DF-RHF Final Energy:  -232.22806288158429

   => Energetics <=

    Nuclear Repulsion Energy =            189.9907532196331488
    One-Electron Energy =                -691.2089598530130843
    Two-Electron Energy =                 268.9901437517956992
    DFT Exchange-Correlation Energy =       0.0000000000000000
    Empirical Dispersion Energy =           0.0000000000000000
    PCM Polarization Energy =               0.0000000000000000
    EFP Energy =                            0.0000000000000000
    Total Energy =                       -232.2280628815842647
    Molecular point group: c1
  Basis Set: CC-PVTZ
  Basis Set:

  -Total Gradient:
     Atom            X                  Y                   Z
    ------   -----------------  -----------------  -----------------
       1        0.000010431598     0.000011351554     0.000007787266
       2        0.000034493756    -0.000038308296    -0.000028091851
       3       -0.000134919708     0.000179517042    -0.000022172163
       4       -0.000009748499    -0.000007215648     0.000000479042
       5        0.000005199929     0.000000097326     0.000009889057
       6       -0.000865967818     0.001182017066    -0.000671734050
       7        0.000853761681    -0.001182464590    -0.000891360833
       8        0.000658303778    -0.000935069302     0.000761722777
       9        0.000015461514    -0.000000881282    -0.000040715210
      10        0.000007217109    -0.000075258261     0.000017492301
      11       -0.000614863945     0.000861652487     0.000897096112
      12        0.000013213671    -0.000003610433    -0.000030530778
      13       -0.000005409098    -0.000015972680    -0.000045522904
      14        0.000022861455     0.000041592869     0.000013015169
      15        0.000009964573    -0.000017447851     0.000022646063

  **** Optimization is complete! (in 3 steps) ****
    Final optimized geometry and variables:
    Molecular point group: c1

    Geometry (in Angstrom), charge = 0, multiplicity = 1:

    H           -3.162225300867     0.490975600784     0.050281352858
    C           -2.363373643065    -0.236433276069     0.047277985855
    O           -1.158648599249     0.453271309856     0.029004451782
    H           -2.472893272381    -0.872184680027    -0.828941685096
    H           -2.453852378071    -0.858533337741     0.935353938562
    C           -0.028624776937    -0.360153693860     0.019883233217
    C            1.214642410487     0.507129920081     0.026531709855
    H           -0.032812206946    -1.006604556361    -0.858165688282
    H           -0.031656070822    -1.014467030510     0.892224857335
    C            2.495571378991    -0.305347420425    -0.123032363302
    H            1.129533759007     1.235892963170    -0.771833569936
    H            1.238020190968     1.070784411610     0.953133488981
    H            2.514584641458    -0.842941247675    -1.065143190519
    H            3.366774929658     0.337624864581    -0.093087445922
    H            2.597355216089    -1.033422415023     0.675195862998

  Mulliken Charges: (a.u.)
   Center  Symbol    Alpha    Beta     Spin     Total
       1     H     0.44684  0.44684  0.00000  0.10632
       2     C     3.03339  3.03339  0.00000 -0.06678
       3     O     4.17138  4.17138  0.00000 -0.34275
       4     H     0.47220  0.47220  0.00000  0.05561
       5     H     0.47194  0.47194  0.00000  0.05612
       6     C     2.95601  2.95601  0.00000  0.08798
       7     C     3.08040  3.08040  0.00000 -0.16080
       8     H     0.47661  0.47661  0.00000  0.04679
       9     H     0.47547  0.47547  0.00000  0.04905
      10     C     3.15561  3.15561  0.00000 -0.31122
      11     H     0.45042  0.45042  0.00000  0.09916
      12     H     0.45193  0.45193  0.00000  0.09614
      13     H     0.45542  0.45542  0.00000  0.08916
      14     H     0.44631  0.44631  0.00000  0.10739
      15     H     0.45609  0.45609  0.00000  0.08783

   Total alpha = 21.00000, Total beta = 21.00000, Total charge = -0.00000

*** Psi4 exiting successfully. Buy a developer a beer!
