  ==> Input File <==

--------------------------------------------------------------------------
set {
	reference rhf
	basis cc-pvtz
}

set_num_threads( 4 )
memory 2 gb

molecule MOL {
0 1

H	 -3.162190	 0.493205	 -0.000107
C	 -2.363908	 -0.234727	 0.000005
O	 -1.158738	 0.454634	 -0.000087
H	 -2.464314	 -0.863616	 -0.882153
H	 -2.464327	 -0.863359	 0.882345
C	 -0.028611	 -0.359694	 0.000037
C	 0.391852	 -0.630283	 -1.430482
H	 -0.243791	 -1.297769	 0.512240
H	 0.781799	 0.125553	 0.544474
C	 1.627753	 -1.518870	 -1.515994
H	 -0.438050	 -1.093370	 -1.952726
H	 0.579435	 0.318627	 -1.920721
H	 1.453643	 -2.484046	 -1.052088
H	 1.905590	 -1.695877	 -2.547738
H	 2.477994	 -1.062488	 -1.020137

	symmetry c1
}
set optking {
	frozen_dihedral = ("
		8 6 3 2
	")
}

ee = optimize('scf')
oeprop('DIPOLE', 'QUADRUPOLE', 'MULLIKEN_CHARGES')
f=open( 'psi4out.xyz', 'w' )
f.write( "15  " )
f.write( str(ee) + "\n" )
f.write( MOL.save_string_xyz() )
f.close()
--------------------------------------------------------------------------

    Molecular point group: c1
  Charge       = 0
  Multiplicity = 1
  Basis Set: CC-PVTZ
  Basis Set:
  @DF-RHF Final Energy:  -232.22393758577763
    Total Energy =                       -232.2239375857777759
    Molecular point group: c1
  Basis Set: CC-PVTZ
  Basis Set:
  Basis Set: CC-PVTZ
  Basis Set:
  @DF-RHF Final Energy:  -232.22481687168241
    Total Energy =                       -232.2248168716824921
  Basis Set: CC-PVTZ
  Basis Set:
  Basis Set: CC-PVTZ
  Basis Set:
  @DF-RHF Final Energy:  -232.22511991505311
    Total Energy =                       -232.2251199150530283
  Basis Set: CC-PVTZ
  Basis Set:
  Charge       = 0
  Multiplicity = 1
  Basis Set: CC-PVTZ
  Basis Set:

    Orbital Energies (a.u.)
    -----------------------

    Doubly Occupied:

       1A    -20.545224     2A    -11.264186     3A    -11.261895
       4A    -11.213873     5A    -11.211972     6A     -1.377802
       7A     -1.057097     8A     -0.958671     9A     -0.881514
      10A     -0.807316    11A     -0.670693    12A     -0.656842
      13A     -0.638335    14A     -0.600111    15A     -0.567990
      16A     -0.534451    17A     -0.515145    18A     -0.497063
      19A     -0.484034    20A     -0.460900    21A     -0.407557

  @DF-RHF Final Energy:  -232.22512434592667

   => Energetics <=

    Nuclear Repulsion Energy =            191.2188363691815596
    One-Electron Energy =                -693.6625861768134200
    Two-Electron Energy =                 270.2186254617051304
    DFT Exchange-Correlation Energy =       0.0000000000000000
    Empirical Dispersion Energy =           0.0000000000000000
    PCM Polarization Energy =               0.0000000000000000
    EFP Energy =                            0.0000000000000000
    Total Energy =                       -232.2251243459267585
    Molecular point group: c1
  Basis Set: CC-PVTZ
  Basis Set:

  -Total Gradient:
     Atom            X                  Y                   Z
    ------   -----------------  -----------------  -----------------
       1        0.000023220920     0.000017909437    -0.000001116098
       2        0.000032326864    -0.000059354613     0.000769793220
       3       -0.000059662456    -0.000070287211    -0.001245461350
       4        0.000010698580     0.000004585855     0.000002537773
       5        0.000002519313     0.000004148916    -0.000004470558
       6        0.000267072686     0.000404474719     0.001182522176
       7        0.000110127026     0.000012369601     0.000074526796
       8       -0.000333045800    -0.000347634538    -0.000713035902
       9       -0.000041988984     0.000027344427     0.000004839516
      10       -0.000040072498    -0.000006828536    -0.000045180120
      11        0.000017666152     0.000000411404     0.000013693502
      12       -0.000012996494     0.000026212797    -0.000018914542
      13        0.000017407938     0.000011335302     0.000001028046
      14        0.000018675218    -0.000016007279    -0.000017944486
      15       -0.000011948464    -0.000008680279    -0.000002817973

  **** Optimization is complete! (in 4 steps) ****
    Final optimized geometry and variables:
    Molecular point group: c1

    Geometry (in Angstrom), charge = 0, multiplicity = 1:

    H           -2.839868694165     1.011949514814     0.644239815232
    C           -2.068416798153     0.255577192765     0.625246981832
    O           -0.840905162121     0.906679962582     0.590559490526
    H           -2.225038328718    -0.372922293244    -0.247801753425
    H           -2.164246888862    -0.362006540260     1.515286488935
    C            0.284922596596     0.080125121977     0.540154252692
    C            0.749338098153    -0.183786731486    -0.884820990995
    H            0.084268952067    -0.862865603244     1.045737957618
    H            1.070050844478     0.583435281200     1.092208693537
    C            2.004275739245    -1.048862634181    -0.933463541682
    H           -0.047859814466    -0.664382673809    -1.442970078098
    H            0.934587032931     0.770454546215    -1.365970015165
    H            1.832690325581    -2.020158445128    -0.481127955373
    H            2.323963496944    -1.214152519606    -1.955148349734
    H            2.826179920265    -0.579225360835    -0.403292895088

  Mulliken Charges: (a.u.)
   Center  Symbol    Alpha    Beta     Spin     Total
       1     H     0.44738  0.44738  0.00000  0.10524
       2     C     3.03217  3.03217  0.00000 -0.06435
       3     O     4.17930  4.17930  0.00000 -0.35861
       4     H     0.47285  0.47285  0.00000  0.05429
       5     H     0.46978  0.46978  0.00000  0.06044
       6     C     2.97500  2.97500  0.00000  0.05000
       7     C     3.08162  3.08162  0.00000 -0.16323
       8     H     0.47406  0.47406  0.00000  0.05189
       9     H     0.44965  0.44965  0.00000  0.10070
      10     C     3.15382  3.15382  0.00000 -0.30763
      11     H     0.45680  0.45680  0.00000  0.08640
      12     H     0.45101  0.45101  0.00000  0.09798
      13     H     0.45557  0.45557  0.00000  0.08885
      14     H     0.44670  0.44670  0.00000  0.10660
      15     H     0.45428  0.45428  0.00000  0.09143

   Total alpha = 21.00000, Total beta = 21.00000, Total charge = -0.00000
