  ==> Input File <==

--------------------------------------------------------------------------
set {
	reference rhf
	basis cc-pvtz
}

set_num_threads( 4 )
memory 2 gb

molecule MOL {
0 1

O	 -2.071633	 -1.227563	 -0.223463
C	 -1.652164	 -0.152425	 0.058082
C	 -0.327811	 0.006324	 0.778296
C	 -2.402515	 1.108629	 -0.298924
C	 0.843231	 -0.001575	 -0.211665
H	 -0.319484	 0.928173	 1.350354
H	 -0.227804	 -0.823091	 1.466705
C	 2.197693	 0.138030	 0.476937
H	 0.722944	 0.805202	 -0.930230
H	 0.813976	 -0.926978	 -0.776588
C	 2.080372	 0.309501	 1.987564
H	 2.804857	 -0.736154	 0.258583
H	 2.725004	 0.989360	 0.056556
H	 1.587662	 -0.543661	 2.441860
H	 1.504657	 1.194239	 2.236882
H	 3.056968	 0.409915	 2.446454
H	 -3.240910	 0.874416	 -0.936711
H	 -1.747554	 1.818823	 -0.790984
H	 -2.760419	 1.579708	 0.610998

	symmetry c1
}
set optking {
	frozen_dihedral = ("
		11 8 5 9
	")
}

ee = optimize('scf')
oeprop('DIPOLE', 'QUADRUPOLE', 'MULLIKEN_CHARGES')
f=open( 'psi4out.xyz', 'w' )
f.write( "19  " )
f.write( str(ee) + "\n" )
f.write( MOL.save_string_xyz() )
f.close()
--------------------------------------------------------------------------

    Molecular point group: c1
  Charge       = 0
  Multiplicity = 1
  Basis Set: CC-PVTZ
  Basis Set:
  @DF-RHF Final Energy:  -309.16268976279099
    Total Energy =                       -309.1626897627911603
    Molecular point group: c1
  Basis Set: CC-PVTZ
  Basis Set:
  Basis Set: CC-PVTZ
  Basis Set:
  @DF-RHF Final Energy:  -309.16300093013120
    Total Energy =                       -309.1630009301313748
  Basis Set: CC-PVTZ
  Basis Set:
  Basis Set: CC-PVTZ
  Basis Set:
  @DF-RHF Final Energy:  -309.16669476289132
    Total Energy =                       -309.1666947628908702
  Basis Set: CC-PVTZ
  Basis Set:
  Basis Set: CC-PVTZ
  Basis Set:
  @DF-RHF Final Energy:  -309.16712923167904
    Total Energy =                       -309.1671292316792687
  Basis Set: CC-PVTZ
  Basis Set:
  @DF-RHF Final Energy:  -309.16725841305515
    Total Energy =                       -309.1672584130552650
  @DF-RHF Final Energy:  -309.16733448942495
    Total Energy =                       -309.1673344894244337
  Basis Set: CC-PVTZ
  Basis Set:
  @DF-RHF Final Energy:  -309.16733016982425
    Total Energy =                       -309.1673301698237992
  Basis Set: CC-PVTZ
  Basis Set:
  Basis Set: CC-PVTZ
  Basis Set:
  @DF-RHF Final Energy:  -309.16734156515002
    Total Energy =                       -309.1673415651500250
  Basis Set: CC-PVTZ
  Basis Set:
  Basis Set: CC-PVTZ
  Basis Set:
  @DF-RHF Final Energy:  -309.16734978570105
    Total Energy =                       -309.1673497857012762
  Basis Set: CC-PVTZ
  Basis Set:
  Charge       = 0
  Multiplicity = 1
  Basis Set: CC-PVTZ
  Basis Set:

    Orbital Energies (a.u.)
    -----------------------

    Doubly Occupied:

       1A    -20.536654     2A    -11.319173     3A    -11.229002
       4A    -11.227445     5A    -11.226846     6A    -11.223528
       7A    -11.214342     8A     -1.396850     9A     -1.088559
      10A     -1.027771    11A     -0.982316    12A     -0.903971
      13A     -0.795714    14A     -0.734444    15A     -0.663094
      16A     -0.653854    17A     -0.623101    18A     -0.606196
      19A     -0.587793    20A     -0.570715    21A     -0.553455
      22A     -0.544851    23A     -0.524744    24A     -0.504372
      25A     -0.481045    26A     -0.468259    27A     -0.457963
      28A     -0.399601

  @DF-RHF Final Energy:  -309.16734990552737

   => Energetics <=

    Nuclear Repulsion Energy =            305.2848793996428753
    One-Electron Energy =               -1023.8131448894812365
    Two-Electron Energy =                 409.3609155843109306
    DFT Exchange-Correlation Energy =       0.0000000000000000
    Empirical Dispersion Energy =           0.0000000000000000
    PCM Polarization Energy =               0.0000000000000000
    EFP Energy =                            0.0000000000000000
    Total Energy =                       -309.1673499055273737
    Molecular point group: c1
  Basis Set: CC-PVTZ
  Basis Set:

  -Total Gradient:
     Atom            X                  Y                   Z
    ------   -----------------  -----------------  -----------------
       1       -0.000000085883    -0.000000612452    -0.000002674432
       2        0.000005506166     0.000000807314    -0.000011974153
       3       -0.000003458193     0.000001918733    -0.000003031023
       4       -0.000020177240    -0.000006615133     0.000021959138
       5       -0.000521120039     0.000408299385     0.001026528335
       6        0.000003822916    -0.000001253758    -0.000001632602
       7        0.000000144975     0.000000369109     0.000000546889
       8        0.000054882652     0.001066452613    -0.000320411714
       9        0.000431392720    -0.000636802936    -0.000796175434
      10       -0.000007625157     0.000001759013     0.000000054475
      11        0.000037098790    -0.000842461820     0.000094059639
      12       -0.000000734996    -0.000000515679     0.000007534035
      13        0.000006053291    -0.000000163727     0.000003508586
      14        0.000006307823     0.000001169238     0.000000642609
      15       -0.000007118966     0.000000736421    -0.000003881757
      16        0.000000774071     0.000003519504    -0.000000918613
      17        0.000002335611     0.000000018115    -0.000002987705
      18        0.000006048586    -0.000000891305    -0.000005542199
      19        0.000005952870     0.000004267365    -0.000005604078

  **** Optimization is complete! (in 10 steps) ****
    Final optimized geometry and variables:
    Molecular point group: c1

    Geometry (in Angstrom), charge = 0, multiplicity = 1:

    O           -1.885947497497    -1.256154939363    -0.698144641278
    C           -1.493529767129    -0.186079748713    -0.363276338495
    C           -0.213599756606    -0.036546293905     0.435871822467
    C           -2.237445765340     1.077962455998    -0.723688837449
    C            0.996873513824    -0.018821270807    -0.509361041770
    H           -0.251512965757     0.870410388372     1.026949637909
    H           -0.153568050037    -0.881485141291     1.107836289060
    C            2.394983581080     0.109629161137     0.152582433219
    H            0.871832163643     0.788237655868    -1.223909870237
    H            0.964036035844    -0.931211179601    -1.091192449313
    C            2.439688387106     0.290837048581     1.669077499339
    H            2.972227812118    -0.773978904581    -0.094450227207
    H            2.920295169554     0.940429088855    -0.304520081806
    H            1.986019328805    -0.542410218720     2.191572963877
    H            1.937736384387     1.197278329346     1.987171587958
    H            3.469833618703     0.359079165510     1.998752728425
    H           -3.032029231699     0.856060194390    -1.419351254096
    H           -1.563920204703     1.812921382423    -1.149671980087
    H           -2.657425495713     1.512234649648     0.178013686218

  Mulliken Charges: (a.u.)
   Center  Symbol    Alpha    Beta     Spin     Total
       1     O     4.17790  4.17790  0.00000 -0.35579
       2     C     2.85608  2.85608  0.00000  0.28785
       3     C     3.10057  3.10057  0.00000 -0.20114
       4     C     3.15612  3.15612  0.00000 -0.31224
       5     C     3.10975  3.10975  0.00000 -0.21951
       6     H     0.44780  0.44780  0.00000  0.10439
       7     H     0.43760  0.43760  0.00000  0.12479
       8     C     3.08796  3.08796  0.00000 -0.17592
       9     H     0.44879  0.44879  0.00000  0.10242
      10     H     0.43842  0.43842  0.00000  0.12316
      11     C     3.15741  3.15741  0.00000 -0.31483
      12     H     0.44850  0.44850  0.00000  0.10300
      13     H     0.44999  0.44999  0.00000  0.10003
      14     H     0.45131  0.45131  0.00000  0.09739
      15     H     0.45431  0.45431  0.00000  0.09138
      16     H     0.44241  0.44241  0.00000  0.11518
      17     H     0.43589  0.43589  0.00000  0.12823
      18     H     0.45077  0.45077  0.00000  0.09846
      19     H     0.44843  0.44843  0.00000  0.10315

   Total alpha = 28.00000, Total beta = 28.00000, Total charge = -0.00000
