  ==> Input File <==

--------------------------------------------------------------------------
set {
	reference rhf
	basis cc-pvtz
}

set_num_threads( 4 )
memory 2 gb

molecule MOL {
0 1

H	 -2.644180	 -0.653737	 1.272255
C	 -2.092774	 -0.380414	 0.391915
O	 -0.808934	 -0.154049	 0.752536
F	 -2.163230	 -1.351640	 -0.507133
F	 -2.627232	 0.691260	 -0.169301
C	 0.085006	 0.250800	 -0.215074
C	 1.370439	 -0.548013	 -0.012993
Cl	 0.421658	 1.987697	 -0.091007
H	 -0.272219	 0.063284	 -1.212508
F	 2.278504	 -0.182266	 -0.881711
F	 1.116855	 -1.820856	 -0.205037
F	 1.858465	 -0.404697	 1.188482

	symmetry c1
}
set optking {
	frozen_dihedral = ("
		10 7 6 9
	")
}

ee = optimize('scf')
oeprop('DIPOLE', 'QUADRUPOLE', 'MULLIKEN_CHARGES')
f=open( 'psi4out.xyz', 'w' )
f.write( "12  " )
f.write( str(ee) + "\n" )
f.write( MOL.save_string_xyz() )
f.close()
--------------------------------------------------------------------------

    Molecular point group: c1
  Charge       = 0
  Multiplicity = 1
  Basis Set: CC-PVTZ
  Basis Set:
  @DF-RHF Final Energy: -1146.62040212778356
    Total Energy =                      -1146.6204021277842457
    Molecular point group: c1
  Basis Set: CC-PVTZ
  Basis Set:
  Basis Set: CC-PVTZ
  Basis Set:
  @DF-RHF Final Energy: -1146.62040957154591
    Total Energy =                      -1146.6204095715447693
  Basis Set: CC-PVTZ
  Basis Set:
  Basis Set: CC-PVTZ
  Basis Set:
  @DF-RHF Final Energy: -1146.62041450486686
    Total Energy =                      -1146.6204145048666305
  Basis Set: CC-PVTZ
  Basis Set:
  Charge       = 0
  Multiplicity = 1
  Basis Set: CC-PVTZ
  Basis Set:

    Orbital Energies (a.u.)
    -----------------------

    Doubly Occupied:

       1A   -104.856608     2A    -26.354922     3A    -26.354157
       4A    -26.352892     5A    -26.343372     6A    -26.343314
       7A    -20.641251     8A    -11.520151     9A    -11.484033
      10A    -11.401039    11A    -10.582133    12A     -8.048932
      13A     -8.046943    14A     -8.046868    15A     -1.767914
      16A     -1.724943    17A     -1.662728    18A     -1.661435
      19A     -1.644956    20A     -1.487402    21A     -1.178323
      22A     -1.053331    23A     -0.990866    24A     -0.924610
      25A     -0.864871    26A     -0.858621    27A     -0.852369
      28A     -0.829623    29A     -0.818231    30A     -0.794005
      31A     -0.733652    32A     -0.732858    33A     -0.712683
      34A     -0.708505    35A     -0.685039    36A     -0.681339
      37A     -0.665383    38A     -0.664088    39A     -0.649499
      40A     -0.638986    41A     -0.598936    42A     -0.581955
      43A     -0.525692    44A     -0.478244    45A     -0.469931

  @DF-RHF Final Energy: -1146.62041477482967

   => Energetics <=

    Nuclear Repulsion Energy =            738.3686179642947991
    One-Electron Energy =               -3059.9427985051870564
    Two-Electron Energy =                1174.9537657660637251
    DFT Exchange-Correlation Energy =       0.0000000000000000
    Empirical Dispersion Energy =           0.0000000000000000
    PCM Polarization Energy =               0.0000000000000000
    EFP Energy =                            0.0000000000000000
    Total Energy =                      -1146.6204147748287596
    Molecular point group: c1
  Basis Set: CC-PVTZ
  Basis Set:

  -Total Gradient:
     Atom            X                  Y                   Z
    ------   -----------------  -----------------  -----------------
       1        0.000008165937     0.000003230735     0.000006518321
       2       -0.000058961817    -0.000034594389    -0.000007995638
       3        0.000013343454     0.000019528850    -0.000020038832
       4        0.000015461699     0.000025161947     0.000010348885
       5       -0.000008442857    -0.000019332894     0.000000955491
       6        0.000586781638     0.000885057097    -0.000167010788
       7       -0.000375196601    -0.000754710193    -0.000531090427
       8        0.000037191331     0.000038635634     0.000000952430
       9       -0.000430912515    -0.000631020742     0.000276280781
      10        0.000248331395     0.000498790138     0.000460308256
      11       -0.000021606227    -0.000043042591     0.000016110044
      12       -0.000014155412     0.000012296470    -0.000045338525

  **** Optimization is complete! (in 4 steps) ****
    Final optimized geometry and variables:
    Molecular point group: c1

    Geometry (in Angstrom), charge = 0, multiplicity = 1:

    H           -2.642179438837    -0.658821149461     1.270178491008
    C           -2.091544830542    -0.381776010769     0.390461863834
    O           -0.807236740700    -0.157925229772     0.750459802614
    F           -2.163627347563    -1.348837951078    -0.513043213296
    F           -2.626096217068     0.692716773400    -0.165361038492
    C            0.086183215579     0.251792169809    -0.216676336567
    C            1.370799551537    -0.548651553314    -0.014290810063
    CL           0.419113288763     1.988142094639    -0.087694377533
    H           -0.273815786199     0.061518536616    -1.212654330749
    F            2.279738579703    -0.190073523827    -0.884688984973
    F            1.113247432981    -1.822045383866    -0.196999772576
    F            1.860425448866    -0.397883183454     1.185893195505

  Mulliken Charges: (a.u.)
   Center  Symbol    Alpha    Beta     Spin     Total
       1     H     0.45194  0.45194  0.00000  0.09612
       2     C     2.74018  2.74018  0.00000  0.51965
       3     O     4.15655  4.15655  0.00000 -0.31310
       4     F     4.61796  4.61796  0.00000 -0.23592
       5     F     4.61509  4.61509  0.00000 -0.23018
       6     C     2.93703  2.93703  0.00000  0.12595
       7     C     2.66959  2.66959  0.00000  0.66083
       8    CL     8.57372  8.57372  0.00000 -0.14744
       9     H     0.43047  0.43047  0.00000  0.13905
      10     F     4.60210  4.60210  0.00000 -0.20420
      11     F     4.60471  4.60471  0.00000 -0.20942
      12     F     4.60066  4.60066  0.00000 -0.20133

   Total alpha = 45.00000, Total beta = 45.00000, Total charge =  0.00000
