  ==> Input File <==

--------------------------------------------------------------------------
set {
	reference rhf
	basis 6-31G*
}

set_num_threads( 1 )
memory 2 gb

molecule MOL {
0 1

O	 -2.789259	 0.442106	 0.672552
C	 -1.921153	 0.064240	 -0.045697
C	 -2.131689	 -0.577270	 -1.390497
O	 -0.632575	 0.154573	 0.251549
H	 -1.696518	 -1.570021	 -1.394852
H	 -3.188736	 -0.635789	 -1.602775
H	 -1.630702	 0.004059	 -2.155890
C	 0.160891	 -1.019931	 0.106212
C	 1.589627	 -0.672828	 0.480843
H	 0.089836	 -1.367806	 -0.916050
H	 -0.238459	 -1.792301	 0.749618
C	 2.246377	 0.346236	 -0.452210
H	 2.163194	 -1.597435	 0.473358
H	 1.604769	 -0.303424	 1.502885
C	 3.691736	 0.652107	 -0.061850
H	 2.219579	 -0.032311	 -1.472055
H	 1.666466	 1.263317	 -0.447249
H	 4.134505	 1.377213	 -0.737283
H	 4.305508	 -0.243868	 -0.089969
H	 3.748266	 1.059562	 0.943567

	symmetry c1
}
set optking {
	frozen_dihedral = ("
		16 12 9 8,
		2 4 8 10,
		12 9 8 10
	")
}

ee = energy('scf')
oeprop('DIPOLE', 'QUADRUPOLE', 'MULLIKEN_CHARGES')
f=open( 'psi4out.xyz', 'w' )
f.write( "20  " )
f.write( str(ee) + "\n" )
f.write( MOL.save_string_xyz() )
f.close()
--------------------------------------------------------------------------

    Molecular point group: c1

    Geometry (in Angstrom), charge = 0, multiplicity = 1:

       Center              X                  Y                   Z               Mass
    ------------   -----------------  -----------------  -----------------  -----------------
           O         -2.808024328461     0.518037098464     0.730824072068    15.994914619560
           C         -1.939918328461     0.140171098464     0.012575072068    12.000000000000
           C         -2.150454328461    -0.501338901536    -1.332224927932    12.000000000000
           O         -0.651340328461     0.230504098464     0.309821072068    15.994914619560
           H         -1.715283328461    -1.494089901536    -1.336579927932     1.007825032070
           H         -3.207501328461    -0.559857901536    -1.544502927932     1.007825032070
           H         -1.649467328461     0.079990098464    -2.097617927932     1.007825032070
           C          0.142125671539    -0.943999901536     0.164484072068    12.000000000000
           C          1.570861671539    -0.596896901536     0.539115072068    12.000000000000
           H          0.071070671539    -1.291874901536    -0.857777927932     1.007825032070
           H         -0.257224328461    -1.716369901536     0.807890072068     1.007825032070
           C          2.227611671539     0.422167098464    -0.393937927932    12.000000000000
           H          2.144428671539    -1.521503901536     0.531630072068     1.007825032070
           H          1.586003671539    -0.227492901536     1.561157072068     1.007825032070
           C          3.672970671539     0.728038098464    -0.003577927932    12.000000000000
           H          2.200813671539     0.043620098464    -1.413782927932     1.007825032070
           H          1.647700671539     1.339248098464    -0.388976927932     1.007825032070
           H          4.115739671539     1.453144098464    -0.679010927932     1.007825032070
           H          4.286742671539    -0.167936901536    -0.031696927932     1.007825032070
           H          3.729500671539     1.135493098464     1.001839072068     1.007825032070

  Charge       = 0
  Multiplicity = 1
  Basis Set: 6-31G*
  Basis Set:

    Orbital Energies (a.u.)
    -----------------------

    Doubly Occupied:

       1A    -20.593745     2A    -20.549742     3A    -11.376150
       4A    -11.298603     5A    -11.235930     6A    -11.232300
       7A    -11.225031     8A    -11.216327     9A     -1.464062
      10A     -1.368573    11A     -1.088913    12A     -1.020751
      13A     -1.000933    14A     -0.891059    15A     -0.815600
      16A     -0.782848    17A     -0.696601    18A     -0.690334
      19A     -0.661887    20A     -0.634896    21A     -0.622405
      22A     -0.590881    23A     -0.579409    24A     -0.558929
      25A     -0.551052    26A     -0.536642    27A     -0.496538
      28A     -0.489664    29A     -0.483924    30A     -0.477856
      31A     -0.450883    32A     -0.434627

  @DF-RHF Final Energy:  -383.92122442305896

   => Energetics <=

    Nuclear Repulsion Energy =            386.9507878350225951
    One-Electron Energy =               -1289.5094207596348497
    Two-Electron Energy =                 518.6374085015540913
    DFT Exchange-Correlation Energy =       0.0000000000000000
    Empirical Dispersion Energy =           0.0000000000000000
    PCM Polarization Energy =               0.0000000000000000
    EFP Energy =                            0.0000000000000000
    Total Energy =                       -383.9212244230582201

  Mulliken Charges: (a.u.)
   Center  Symbol    Alpha    Beta     Spin     Total
       1     O     4.25989  4.25989  0.00000 -0.51977
       2     C     2.61683  2.61683  0.00000  0.76635
       3     C     3.30659  3.30659  0.00000 -0.61318
       4     O     4.30504  4.30504  0.00000 -0.61008
       5     H     0.40397  0.40397  0.00000  0.19207
       6     H     0.39357  0.39357  0.00000  0.21286
       7     H     0.39889  0.39889  0.00000  0.20223
       8     C     3.01118  3.01118  0.00000 -0.02236
       9     C     3.16168  3.16168  0.00000 -0.32336
      10     H     0.41812  0.41812  0.00000  0.16376
      11     H     0.41076  0.41076  0.00000  0.17848
      12     C     3.15638  3.15638  0.00000 -0.31275
      13     H     0.41914  0.41914  0.00000  0.16172
      14     H     0.40775  0.40775  0.00000  0.18449
      15     C     3.24087  3.24087  0.00000 -0.48173
      16     H     0.42526  0.42526  0.00000  0.14948
      17     H     0.40713  0.40713  0.00000  0.18573
      18     H     0.41651  0.41651  0.00000  0.16698
      19     H     0.42208  0.42208  0.00000  0.15584
      20     H     0.41837  0.41837  0.00000  0.16326

   Total alpha = 32.00000, Total beta = 32.00000, Total charge =  0.00000
