                              Psi4 1.0.54 Driver

  ==> Input File <==

--------------------------------------------------------------------------
set {
	reference rhf
	basis cc-pvtz
}

set_num_threads( 4 )
memory 2 gb

molecule MOL {
0 1

H	 -3.562218	 0.456093	 -0.264644
O	 -3.096013	 -0.305898	 0.029257
C	 -1.770097	 -0.105146	 0.008227
C	 -1.212328	 1.098235	 -0.405540
C	 -0.958019	 -1.149629	 0.417822
H	 -1.848891	 1.903926	 -0.721888
C	 0.153835	 1.250841	 -0.407580
H	 -1.408431	 -2.069278	 0.733092
C	 0.408147	 -0.980659	 0.409861
H	 0.596482	 2.174271	 -0.724520
C	 0.981121	 0.213562	 0.000000
H	 1.039121	 -1.790315	 0.727426
C	 2.447402	 0.371303	 0.000000
O	 3.227427	 -0.521847	 0.000000
H	 2.796538	 1.409525	 0.000000

	symmetry c1
}
set optking {
	frozen_dihedral = ("
		7 11 13 14
	")
}

ee,wfn = optimize('scf', return_wfn=True)
oeprop( wfn, 'DIPOLE', 'QUADRUPOLE', 'MULLIKEN_CHARGES')
f=open( 'psi4out.xyz', 'w' )
f.write( "15  " )
f.write( str(ee) + "\n" )
f.write( MOL.save_string_xyz() )
f.close()
--------------------------------------------------------------------------

    Molecular point group: c1
  Charge       = 0
  Multiplicity = 1
  Basis Set: CC-PVTZ
  Basis Set:
  @DF-RHF Final Energy:  -418.44059400844520
    Total Energy =                       -418.4405940084457143
    Molecular point group: c1
  Basis Set: CC-PVTZ
  Basis Set:
  Basis Set: CC-PVTZ
  Basis Set:
  @DF-RHF Final Energy:  -418.43999654382071
    Total Energy =                       -418.4399965438209392
  Basis Set: CC-PVTZ
  Basis Set:
  Basis Set: CC-PVTZ
  Basis Set:
  @DF-RHF Final Energy:  -418.44084351017176
    Total Energy =                       -418.4408435101713621
  Basis Set: CC-PVTZ
  Basis Set:
  Basis Set: CC-PVTZ
  Basis Set:
  @DF-RHF Final Energy:  -418.44114476269692
    Total Energy =                       -418.4411447626963536
  Basis Set: CC-PVTZ
  Basis Set:
  Basis Set: CC-PVTZ
  Basis Set:
  @DF-RHF Final Energy:  -418.44115410026342
    Total Energy =                       -418.4411541002634749
  Basis Set: CC-PVTZ
  Basis Set:
  Charge       = 0
  Multiplicity = 1
  Basis Set: CC-PVTZ
  Basis Set:

    Orbital Energies (a.u.)
    -----------------------

    Doubly Occupied:

       1A    -20.604474     2A    -20.546756     3A    -11.323263
       4A    -11.321950     5A    -11.260244     6A    -11.251846
       7A    -11.242284     8A    -11.237378     9A    -11.236076
      10A     -1.437583    11A     -1.402805    12A     -1.175053
      13A     -1.046410    14A     -1.040176    15A     -0.897042
      16A     -0.861657    17A     -0.806112    18A     -0.761361
      19A     -0.699444    20A     -0.691019    21A     -0.643271
      22A     -0.629702    23A     -0.614901    24A     -0.611466
      25A     -0.588818    26A     -0.562060    27A     -0.552776
      28A     -0.509149    29A     -0.490772    30A     -0.421907
      31A     -0.361628    32A     -0.331706

  @DF-RHF Final Energy:  -418.44115630389513

   => Energetics <=

    Nuclear Repulsion Energy =            402.3061226863051161
    One-Electron Energy =               -1367.1723736848118733
    Two-Electron Energy =                 546.4250946946117438
    DFT Exchange-Correlation Energy =       0.0000000000000000
    Empirical Dispersion Energy =           0.0000000000000000
    PCM Polarization Energy =               0.0000000000000000
    EFP Energy =                            0.0000000000000000
    Total Energy =                       -418.4411563038950135
    Molecular point group: c1
  Basis Set: CC-PVTZ
  Basis Set:

  -Total Gradient:
     Atom            X                  Y                   Z
    ------   -----------------  -----------------  -----------------
       1        0.000003755181    -0.000002625859     0.000004207545
       2       -0.000009020687     0.000007547127    -0.000004803531
       3        0.000023745975    -0.000047730911    -0.000002475898
       4        0.000015469499     0.000060073143     0.000035519441
       5       -0.000026442798     0.000033842910    -0.000050038278
       6       -0.000006336662    -0.000008222649     0.000007928975
       7        0.000009702841    -0.001327439278    -0.003349571556
       8        0.000009522976    -0.000006687073     0.000003680788
       9       -0.000026055542     0.000075561842     0.000064288794
      10       -0.000013774154     0.000015612640     0.000011915611
      11       -0.000055930690     0.001680842446     0.002839210748
      12        0.000005071849    -0.000004754622    -0.000022467745
      13        0.000128316838    -0.000291712282     0.004840605746
      14       -0.000078981129    -0.000247554798    -0.004346876488
      15        0.000020956490     0.000063247366    -0.000031124151

  **** Optimization is complete! (in 6 steps) ****
    Final optimized geometry and variables:
    Molecular point group: c1

    Geometry (in Angstrom), charge = 0, multiplicity = 1:

    H           -3.565193157947     0.471560010858    -0.302731576694
    O           -3.097612531370    -0.287580866939    -0.003341660049
    C           -1.772860167869    -0.077651091942    -0.007604731042
    C           -1.213876785521     1.121547859683    -0.409113909421
    C           -0.960825541626    -1.126748796637     0.412081834305
    H           -1.842317515657     1.927628664554    -0.739707955356
    C            0.159296915094     1.271629713923    -0.380301171186
    H           -1.418374206141    -2.047213157657     0.715368150105
    C            0.400268596530    -0.966905766309     0.420847534955
    H            0.591574467034     2.205751590651    -0.688790242423
    C            0.978295271329     0.241155844765     0.037536986500
    H            1.038133929424    -1.773403056294     0.724364786365
    C            2.445256255442     0.397371779732    -0.017890187481
    O            3.222288418171    -0.497585671176    -0.013168540939
    H            2.794137827749     1.432208728499    -0.107974311822

  Mulliken Charges: (a.u.)
   Center  Symbol    Alpha    Beta     Spin     Total
       1     H     0.38577  0.38577  0.00000  0.22846
       2     O     4.16609  4.16609  0.00000 -0.33217
       3     C     2.84468  2.84468  0.00000  0.31063
       4     C     3.13485  3.13485  0.00000 -0.26970
       5     C     3.10551  3.10551  0.00000 -0.21102
       6     H     0.43222  0.43222  0.00000  0.13556
       7     C     3.07493  3.07493  0.00000 -0.14986
       8     H     0.41564  0.41564  0.00000  0.16873
       9     C     3.06140  3.06140  0.00000 -0.12279
      10     H     0.42141  0.42141  0.00000  0.15719
      11     C     2.99735  2.99735  0.00000  0.00531
      12     H     0.40860  0.40860  0.00000  0.18280
      13     C     2.91490  2.91490  0.00000  0.17019
      14     O     4.17570  4.17570  0.00000 -0.35139
      15     H     0.46097  0.46097  0.00000  0.07807

   Total alpha = 32.00000, Total beta = 32.00000, Total charge = -0.00000

*** Psi4 exiting successfully. Buy a developer a beer!
