  ==> Input File <==

--------------------------------------------------------------------------
set {
	reference rhf
	basis 6-31G*
}

set_num_threads( 4 )
memory 2 gb

molecule MOL {
0 1

H	 3.159600	 1.105408	 -0.996384
O	 2.227650	 0.977689	 -0.848353
C	 2.077727	 -0.067559	 -0.035091
C	 0.624473	 -0.343591	 0.253101
O	 3.005637	 -0.677536	 0.386724
C	 -0.265902	 0.883932	 0.072916
H	 0.324016	 -1.163849	 -0.390541
H	 0.565024	 -0.726111	 1.268924
C	 -1.728698	 0.646073	 0.462102
H	 -0.209144	 1.219470	 -0.958188
H	 0.135059	 1.692851	 0.673903
C	 -2.482460	 -0.343073	 -0.431425
H	 -2.245265	 1.602650	 0.432430
H	 -1.779332	 0.308348	 1.496285
C	 -3.960546	 -0.461025	 -0.060175
H	 -2.395034	 -0.026811	 -1.468912
H	 -2.024850	 -1.327147	 -0.371646
H	 -4.472726	 -1.168004	 -0.705284
H	 -4.465146	 0.496508	 -0.151489
H	 -4.081218	 -0.800940	 0.964585

	symmetry c1
}
set optking {
	frozen_dihedral = ("
		5 3 4 7
	")
}

ee = optimize('scf')
oeprop('DIPOLE', 'QUADRUPOLE', 'MULLIKEN_CHARGES')
f=open( 'psi4out.xyz', 'w' )
f.write( "20  " )
f.write( str(ee) + "\n" )
f.write( MOL.save_string_xyz() )
f.close()
--------------------------------------------------------------------------

    Molecular point group: c1
  Charge       = 0
  Multiplicity = 1
  Basis Set: 6-31G*
  Basis Set:
  @DF-RHF Final Energy:  -383.94536386409504
    Total Energy =                       -383.9453638640945883
    Molecular point group: c1
  Basis Set: 6-31G*
  Basis Set:
  Basis Set: 6-31G*
  Basis Set:
  @DF-RHF Final Energy:  -383.94513179845666
    Total Energy =                       -383.9451317984564866
  Basis Set: 6-31G*
  Basis Set:
  Basis Set: 6-31G*
  Basis Set:
  @DF-RHF Final Energy:  -383.94552210898900
    Total Energy =                       -383.9455221089893939
  Basis Set: 6-31G*
  Basis Set:
  Basis Set: 6-31G*
  Basis Set:
  @DF-RHF Final Energy:  -383.94633977713363
    Total Energy =                       -383.9463397771335735
  Basis Set: 6-31G*
  Basis Set:
  Basis Set: 6-31G*
  Basis Set:
  @DF-RHF Final Energy:  -383.94635775992725
    Total Energy =                       -383.9463577599274231
  Basis Set: 6-31G*
  Basis Set:
  Basis Set: 6-31G*
  Basis Set:
  @DF-RHF Final Energy:  -383.94635877600115
    Total Energy =                       -383.9463587760009204
  Basis Set: 6-31G*
  Basis Set:
  Charge       = 0
  Multiplicity = 1
  Basis Set: 6-31G*
  Basis Set:

    Orbital Energies (a.u.)
    -----------------------

    Doubly Occupied:

       1A    -20.614506     2A    -20.547333     3A    -11.380997
       4A    -11.240186     5A    -11.227842     6A    -11.222929
       7A    -11.221915     8A    -11.213580     9A     -1.475032
      10A     -1.363822    11A     -1.098413    12A     -1.041612
      13A     -0.959932    14A     -0.862447    15A     -0.826017
      16A     -0.791747    17A     -0.698748    18A     -0.680359
      19A     -0.663110    20A     -0.631599    21A     -0.605780
      22A     -0.591199    23A     -0.575914    24A     -0.551157
      25A     -0.548954    26A     -0.519807    27A     -0.499932
      28A     -0.482174    29A     -0.474909    30A     -0.470522
      31A     -0.456953    32A     -0.433768

  @DF-RHF Final Energy:  -383.94635879832811

   => Energetics <=

    Nuclear Repulsion Energy =            376.5229605880582540
    One-Electron Energy =               -1268.9922524615999464
    Two-Electron Energy =                 508.5229330752135866
    DFT Exchange-Correlation Energy =       0.0000000000000000
    Empirical Dispersion Energy =           0.0000000000000000
    PCM Polarization Energy =               0.0000000000000000
    EFP Energy =                            0.0000000000000000
    Total Energy =                       -383.9463587983281059
    Molecular point group: c1
  Basis Set: 6-31G*
  Basis Set:

  -Total Gradient:
     Atom            X                  Y                   Z
    ------   -----------------  -----------------  -----------------
       1       -0.000005659946    -0.000003542293     0.000003614587
       2        0.000010575976     0.000022159903    -0.000025154288
       3        0.000123590983     0.000706271765     0.001313964599
       4       -0.000278136144     0.000511386271    -0.001132197748
       5       -0.000046501173    -0.000586532084    -0.000809414077
       6       -0.000013308105    -0.000006882734     0.000000731557
       7        0.000187825244    -0.000634485955     0.000649596807
       8       -0.000000547137     0.000002801302    -0.000001241138
       9        0.000002929717    -0.000001258643     0.000006573477
      10        0.000005629997     0.000002380824     0.000003673314
      11        0.000006800686    -0.000015143178     0.000005489479
      12       -0.000004255743     0.000006172604    -0.000014914665
      13        0.000012947272     0.000002760431    -0.000007807988
      14       -0.000009965657     0.000009484593     0.000004714847
      15        0.000004677549    -0.000015141054     0.000006632321
      16       -0.000010023905     0.000004052288    -0.000003005781
      17        0.000012507429    -0.000000940780    -0.000004351585
      18        0.000000671472    -0.000004159497     0.000003473890
      19        0.000003560599    -0.000001581773    -0.000004145115
      20       -0.000003319114     0.000002198009     0.000003767507

  **** Optimization is complete! (in 7 steps) ****
    Final optimized geometry and variables:
    Molecular point group: c1

    Geometry (in Angstrom), charge = 0, multiplicity = 1:

    H            3.295982355164     0.925880904782    -0.940497323705
    O            2.353149646376     0.873180942345    -0.815900329408
    C            2.107530251164    -0.144310418122     0.006175773254
    C            0.638219718620    -0.378668313720     0.261111729037
    O            2.980598417962    -0.816223495042     0.452474206606
    C           -0.270644695015     0.842388028685     0.098861465384
    H            0.347041176603    -1.178375921448    -0.414321777428
    H            0.567158605198    -0.789983344058     1.261535365957
    C           -1.725195988335     0.575167927528     0.501309172514
    H           -0.232404608522     1.191513507467    -0.927513663477
    H            0.116784435554     1.652060093391     0.710505628640
    C           -2.468626449405    -0.421263225094    -0.392721077359
    H           -2.259185812502     1.522482148463     0.483457952984
    H           -1.758717584164     0.229038669801     1.533084199373
    C           -3.940512038411    -0.569294090897    -0.007830243527
    H           -2.397223467640    -0.095982248362    -1.428673147985
    H           -1.992493834959    -1.396984003599    -0.344170179478
    H           -4.445230277879    -1.282037022207    -0.652373928715
    H           -4.464113110846     0.378972333734    -0.088399295208
    H           -4.044577680035    -0.917722631712     1.015822961060

  Mulliken Charges: (a.u.)
   Center  Symbol    Alpha    Beta     Spin     Total
       1     H     0.26731  0.26731  0.00000  0.46538
       2     O     4.34769  4.34769  0.00000 -0.69537
       3     C     2.62307  2.62307  0.00000  0.75387
       4     C     3.21303  3.21303  0.00000 -0.42605
       5     O     4.28267  4.28267  0.00000 -0.56534
       6     C     3.15699  3.15699  0.00000 -0.31397
       7     H     0.39623  0.39623  0.00000  0.20755
       8     H     0.39647  0.39647  0.00000  0.20706
       9     C     3.15548  3.15548  0.00000 -0.31096
      10     H     0.40947  0.40947  0.00000  0.18106
      11     H     0.41396  0.41396  0.00000  0.17209
      12     C     3.15534  3.15534  0.00000 -0.31068
      13     H     0.41806  0.41806  0.00000  0.16388
      14     H     0.42208  0.42208  0.00000  0.15584
      15     C     3.23935  3.23935  0.00000 -0.47869
      16     H     0.42158  0.42158  0.00000  0.15685
      17     H     0.42172  0.42172  0.00000  0.15656
      18     H     0.41796  0.41796  0.00000  0.16409
      19     H     0.42081  0.42081  0.00000  0.15838
      20     H     0.42076  0.42076  0.00000  0.15848

   Total alpha = 32.00000, Total beta = 32.00000, Total charge = -0.00000
