  ==> Input File <==

--------------------------------------------------------------------------
set {
	reference rhf
	basis cc-pvtz
}

set_num_threads( 4 )
memory 2 gb

molecule MOL {
0 1

O	 0.084072	 -0.507833	 -2.171972
C	 -0.140279	 0.187599	 -1.222889
C	 -1.290979	 1.172125	 -1.260713
N	 0.622280	 0.144970	 -0.099307
H	 -0.945945	 2.188047	 -1.115106
H	 -1.754689	 1.088688	 -2.229477
H	 -2.023714	 0.952270	 -0.494073
C	 1.664396	 -0.854993	 0.000772
C	 0.268298	 0.793566	 1.140763
H	 2.462727	 -0.615153	 -0.690869
H	 1.261798	 -1.821849	 -0.240651
H	 2.081615	 -0.891605	 1.003877
H	 1.171480	 1.102263	 1.651257
H	 -0.328102	 1.674097	 0.973828
H	 -0.278725	 0.128409	 1.805124

	symmetry c1
}
set optking {
	frozen_dihedral = ("
		2 4 8 10
	")
}

ee = optimize('scf')
oeprop('DIPOLE', 'QUADRUPOLE', 'MULLIKEN_CHARGES')
f=open( 'psi4out.xyz', 'w' )
f.write( "15  " )
f.write( str(ee) + "\n" )
f.write( MOL.save_string_xyz() )
f.close()
--------------------------------------------------------------------------

    Molecular point group: c1
  Charge       = 0
  Multiplicity = 1
  Basis Set: CC-PVTZ
  Basis Set:
  @DF-RHF Final Energy:  -286.13353824767808
    Total Energy =                       -286.1335382476779046
    Molecular point group: c1
  Basis Set: CC-PVTZ
  Basis Set:
  Basis Set: CC-PVTZ
  Basis Set:
  @DF-RHF Final Energy:  -286.13448461486007
    Total Energy =                       -286.1344846148599572
  Basis Set: CC-PVTZ
  Basis Set:
  Basis Set: CC-PVTZ
  Basis Set:
  @DF-RHF Final Energy:  -286.13461019585498
    Total Energy =                       -286.1346101958549752
  Basis Set: CC-PVTZ
  Basis Set:
  Basis Set: CC-PVTZ
  Basis Set:
  @DF-RHF Final Energy:  -286.13456401213864
    Total Energy =                       -286.1345640121385259
  Basis Set: CC-PVTZ
  Basis Set:
  @DF-RHF Final Energy:  -286.13464414642095
    Total Energy =                       -286.1346441464208965
  @DF-RHF Final Energy:  -286.13468826357007
    Total Energy =                       -286.1346882635698989
  @DF-RHF Final Energy:  -286.13478839954206
    Total Energy =                       -286.1347883995416623
  @DF-RHF Final Energy:  -286.13481777989796
    Total Energy =                       -286.1348177798977872
  @DF-RHF Final Energy:  -286.13484678629618
    Total Energy =                       -286.1348467862957250
  @DF-RHF Final Energy:  -286.13493695795478
    Total Energy =                       -286.1349369579549489
  @DF-RHF Final Energy:  -286.13496513634573
    Total Energy =                       -286.1349651363457269
  @DF-RHF Final Energy:  -286.13504344546914
    Total Energy =                       -286.1350434454691367
  @DF-RHF Final Energy:  -286.13518181538336
    Total Energy =                       -286.1351818153831346
  @DF-RHF Final Energy:  -286.13521308809516
    Total Energy =                       -286.1352130880954405
  Basis Set: CC-PVTZ
  Basis Set:
  @DF-RHF Final Energy:  -286.13524314129700
    Total Energy =                       -286.1352431412972237
  Basis Set: CC-PVTZ
  Basis Set:
  Basis Set: CC-PVTZ
  Basis Set:
  @DF-RHF Final Energy:  -286.13525469334570
    Total Energy =                       -286.1352546933459848
  Basis Set: CC-PVTZ
  Basis Set:
  Basis Set: CC-PVTZ
  Basis Set:
  @DF-RHF Final Energy:  -286.13525747866527
    Total Energy =                       -286.1352574786654941
  Basis Set: CC-PVTZ
  Basis Set:
  Charge       = 0
  Multiplicity = 1
  Basis Set: CC-PVTZ
  Basis Set:

    Orbital Energies (a.u.)
    -----------------------

    Doubly Occupied:

       1A    -20.504892     2A    -15.577466     3A    -11.333501
       4A    -11.264184     5A    -11.246870     6A    -11.226595
       7A     -1.388350     8A     -1.244721     9A     -1.014711
      10A     -0.973524    11A     -0.919399    12A     -0.738405
      13A     -0.682202    14A     -0.660589    15A     -0.653688
      16A     -0.589043    17A     -0.577719    18A     -0.569990
      19A     -0.564530    20A     -0.547133    21A     -0.530831
      22A     -0.503321    23A     -0.414806    24A     -0.371242

  @DF-RHF Final Energy:  -286.13525769106747

   => Energetics <=

    Nuclear Repulsion Energy =            253.1227502186391689
    One-Electron Energy =                -890.3205946818236498
    Two-Electron Energy =                 351.0625867721169584
    DFT Exchange-Correlation Energy =       0.0000000000000000
    Empirical Dispersion Energy =           0.0000000000000000
    PCM Polarization Energy =               0.0000000000000000
    EFP Energy =                            0.0000000000000000
    Total Energy =                       -286.1352576910675793
    Molecular point group: c1
  Basis Set: CC-PVTZ
  Basis Set:

  -Total Gradient:
     Atom            X                  Y                   Z
    ------   -----------------  -----------------  -----------------
       1        0.000012880032    -0.000010237614    -0.000036582047
       2        0.000486616983     0.000539826121     0.000005299483
       3        0.000000651527     0.000010788936    -0.000006893127
       4       -0.000788659975    -0.000873033239    -0.000112988048
       5       -0.000002304973     0.000004279474    -0.000002247313
       6        0.000000110013    -0.000000936913    -0.000002245616
       7        0.000005428799    -0.000001108589    -0.000002904338
       8        0.000513263903     0.000697325894     0.000942158764
       9        0.000016855688    -0.000023508994    -0.000015949513
      10       -0.000248476892    -0.000347228130    -0.000782404776
      11        0.000002693008    -0.000001243705     0.000001308749
      12       -0.000005891104     0.000005401132    -0.000002138066
      13        0.000001869555     0.000006332548     0.000001068808
      14        0.000004554904    -0.000006582877     0.000006802221
      15        0.000000408534    -0.000000074043     0.000007714816

  **** Optimization is complete! (in 18 steps) ****
    Final optimized geometry and variables:
    Molecular point group: c1

    Geometry (in Angstrom), charge = 0, multiplicity = 1:

    O            0.002069734462    -0.557925659935    -1.604600304648
    C           -0.335848645501     0.044381153243    -0.626040855350
    C           -1.449739046076     1.066794875306    -0.704893472467
    N            0.245611092394    -0.184126944946     0.580051775524
    H           -1.082837177580     2.062103778458    -0.485171912002
    H           -1.836144833263     1.047096175758    -1.710427775353
    H           -2.246734707364     0.840226943106    -0.008216562572
    C            1.383549775608    -1.083403775203     0.598937842131
    C            0.106928851911     0.698394873313     1.715296324201
    H            2.253728214272    -0.643697559478     0.121955322776
    H            1.145071942586    -1.993946541529     0.073809029579
    H            1.626196626812    -1.319257648788     1.625281036755
    H            0.893891813876     1.448641351916     1.748442719854
    H           -0.842978026937     1.205022574841     1.704649738421
    H            0.158164480957     0.120472719605     2.628424402243

  Mulliken Charges: (a.u.)
   Center  Symbol    Alpha    Beta     Spin     Total
       1     O     4.21892  4.21892  0.00000 -0.43784
       2     C     2.84492  2.84492  0.00000  0.31017
       3     C     3.16032  3.16032  0.00000 -0.32064
       4     N     3.56462  3.56462  0.00000 -0.12923
       5     H     0.44901  0.44901  0.00000  0.10199
       6     H     0.42883  0.42883  0.00000  0.14234
       7     H     0.44877  0.44877  0.00000  0.10247
       8     C     3.09176  3.09176  0.00000 -0.18351
       9     C     3.09683  3.09683  0.00000 -0.19367
      10     H     0.45350  0.45350  0.00000  0.09300
      11     H     0.43526  0.43526  0.00000  0.12947
      12     H     0.45771  0.45771  0.00000  0.08458
      13     H     0.45556  0.45556  0.00000  0.08888
      14     H     0.44567  0.44567  0.00000  0.10865
      15     H     0.44832  0.44832  0.00000  0.10335

   Total alpha = 24.00000, Total beta = 24.00000, Total charge =  0.00000
