  ==> Input File <==

--------------------------------------------------------------------------
set {
	reference rhf
	basis 6-31G*
}

set_num_threads( 4 )
memory 2 gb

molecule MOL {
0 1

H	 3.195410	 0.251276	 0.640534
N	 2.335192	 -0.261696	 0.660507
C	 1.267428	 0.496480	 0.024474
H	 2.120387	 -0.429133	 1.625254
C	 -0.016086	 -0.325158	 -0.029487
H	 1.586203	 0.730180	 -0.986863
H	 1.066150	 1.450770	 0.517624
C	 -1.282277	 0.529072	 0.046735
H	 -0.012495	 -0.908639	 -0.945788
H	 -0.015903	 -1.041248	 0.791956
C	 -2.563920	 -0.301775	 -0.006060
H	 -1.284084	 1.244622	 -0.773004
H	 -1.271387	 1.115393	 0.963286
H	 -2.621848	 -0.873522	 -0.927727
H	 -3.445135	 0.329952	 0.047812
H	 -2.609542	 -1.004582	 0.821105

	symmetry c1
}
set optking {
	frozen_dihedral = ("
		6 3 5 9
	")
}

ee = optimize('scf')
oeprop('DIPOLE', 'QUADRUPOLE', 'MULLIKEN_CHARGES')
f=open( 'psi4out.xyz', 'w' )
f.write( "16  " )
f.write( str(ee) + "\n" )
f.write( MOL.save_string_xyz() )
f.close()
--------------------------------------------------------------------------

    Molecular point group: c1
  Charge       = 0
  Multiplicity = 1
  Basis Set: 6-31G*
  Basis Set:
  @DF-RHF Final Energy:  -212.31346889445652
    Total Energy =                       -212.3134688944563777
    Molecular point group: c1
  Basis Set: 6-31G*
  Basis Set:
  Basis Set: 6-31G*
  Basis Set:
  @DF-RHF Final Energy:  -212.31376601626741
    Total Energy =                       -212.3137660162674933
  Basis Set: 6-31G*
  Basis Set:
  Basis Set: 6-31G*
  Basis Set:
  @DF-RHF Final Energy:  -212.31385992595352
    Total Energy =                       -212.3138599259536363
  Basis Set: 6-31G*
  Basis Set:
  Basis Set: 6-31G*
  Basis Set:
  @DF-RHF Final Energy:  -212.31386232292164
    Total Energy =                       -212.3138623229215796
  Basis Set: 6-31G*
  Basis Set:
  Charge       = 0
  Multiplicity = 1
  Basis Set: 6-31G*
  Basis Set:

    Orbital Energies (a.u.)
    -----------------------

    Doubly Occupied:

       1A    -15.532233     2A    -11.240192     3A    -11.214863
       4A    -11.209913     5A    -11.207822     6A     -1.175676
       7A     -1.058909     8A     -0.957299     9A     -0.844579
      10A     -0.791192    11A     -0.668198    12A     -0.626257
      13A     -0.613748    14A     -0.574713    15A     -0.558166
      16A     -0.529785    17A     -0.502565    18A     -0.471482
      19A     -0.465292    20A     -0.456461    21A     -0.380544

  @DF-RHF Final Energy:  -212.31386252982620

   => Energetics <=

    Nuclear Repulsion Energy =            186.2350677946691633
    One-Electron Energy =                -654.9380774447110980
    Two-Electron Energy =                 256.3891471202158527
    DFT Exchange-Correlation Energy =       0.0000000000000000
    Empirical Dispersion Energy =           0.0000000000000000
    PCM Polarization Energy =               0.0000000000000000
    EFP Energy =                            0.0000000000000000
    Total Energy =                       -212.3138625298261104
    Molecular point group: c1
  Basis Set: 6-31G*
  Basis Set:

  -Total Gradient:
     Atom            X                  Y                   Z
    ------   -----------------  -----------------  -----------------
       1       -0.000003189043    -0.000007429350     0.000001518393
       2       -0.000013083551     0.000025879980    -0.000006628423
       3       -0.003654146027     0.005658807907    -0.000354494318
       4       -0.000002255461     0.000003794035    -0.000013702789
       5        0.003313340964    -0.005210638147     0.002728907421
       6        0.002560576399    -0.003946166848    -0.000107434987
       7       -0.000000991692    -0.000003915227    -0.000002841346
       8        0.000014483163     0.000000235039    -0.000014857653
       9       -0.002216620451     0.003479022138    -0.002240185295
      10        0.000005754377     0.000004233828    -0.000001503932
      11       -0.000005098508    -0.000006414140     0.000013611263
      12        0.000000851484     0.000012749575    -0.000004441750
      13        0.000001086404    -0.000008771558    -0.000001339651
      14        0.000007672026     0.000000305558     0.000003977708
      15        0.000000112865     0.000000513039    -0.000003285463
      16       -0.000008492949    -0.000002205828     0.000002700823

  **** Optimization is complete! (in 5 steps) ****
    Final optimized geometry and variables:
    Molecular point group: c1

    Geometry (in Angstrom), charge = 0, multiplicity = 1:

    H            3.243946915760     0.217498677081     0.405554023109
    N            2.381319860304    -0.287870047033     0.470848753226
    C            1.287428213212     0.477619929477    -0.115472893854
    H            2.213806393274    -0.451712792191     1.445444844499
    C            0.001844905060    -0.358095585041    -0.139249712969
    H            1.589222748201     0.704285505445    -1.132489767671
    H            1.108505307960     1.425434189550     0.395705001282
    C           -1.266909582362     0.498379428409    -0.101172171732
    H           -0.017358505852    -0.955895325687    -1.045911917799
    H           -0.000107755858    -1.047690918095     0.700992868513
    C           -2.547973504376    -0.329246084978    -0.194543608945
    H           -1.242608388675     1.216892919126    -0.918597228554
    H           -1.281300992775     1.083398506946     0.816224311688
    H           -2.582907626882    -0.894586937521    -1.121451821644
    H           -3.429524063423     0.303445803338    -0.159446022479
    H           -2.616561055377    -1.038300000403     0.625813789208

  Mulliken Charges: (a.u.)
   Center  Symbol    Alpha    Beta     Spin     Total
       1     H     0.33325  0.33325  0.00000  0.33349
       2     N     3.92208  3.92208  0.00000 -0.84416
       3     C     3.06274  3.06274  0.00000 -0.12548
       4     H     0.33584  0.33584  0.00000  0.32832
       5     C     3.14957  3.14957  0.00000 -0.29913
       6     H     0.41903  0.41903  0.00000  0.16194
       7     H     0.43243  0.43243  0.00000  0.13514
       8     C     3.15712  3.15712  0.00000 -0.31425
       9     H     0.41708  0.41708  0.00000  0.16585
      10     H     0.42184  0.42184  0.00000  0.15632
      11     C     3.23895  3.23895  0.00000 -0.47789
      12     H     0.42342  0.42342  0.00000  0.15316
      13     H     0.42416  0.42416  0.00000  0.15168
      14     H     0.42109  0.42109  0.00000  0.15782
      15     H     0.41969  0.41969  0.00000  0.16062
      16     H     0.42172  0.42172  0.00000  0.15657

   Total alpha = 21.00000, Total beta = 21.00000, Total charge = -0.00000
