                              Psi4 1.0.54 Driver

  ==> Input File <==

--------------------------------------------------------------------------
set {
	reference rhf
	basis cc-pvtz
}

set_num_threads( 4 )
memory 2 gb

molecule MOL {
0 1

H	 -2.084003	 -0.274204	 -2.041576
C	 -2.730455	 0.558988	 -1.733717
C	 -2.653809	 0.914422	 -0.273689
O	 -3.423020	 1.094846	 -2.527768
C	 -1.216901	 1.136108	 0.207794
H	 -3.272283	 1.785074	 -0.098222
H	 -3.088740	 0.079934	 0.271993
C	 -0.247837	 0.040196	 -0.230469
H	 -0.872882	 2.093195	 -0.169002
H	 -1.209325	 1.218376	 1.291938
C	 1.181757	 0.280428	 0.247371
H	 -0.259600	 -0.030819	 -1.314870
H	 -0.591284	 -0.923375	 0.136958
C	 2.151032	 -0.811012	 -0.202643
H	 1.515939	 1.247397	 -0.115449
H	 1.191514	 0.341223	 1.333422
C	 3.580021	 -0.656538	 0.320835
H	 2.170545	 -0.847575	 -1.289412
H	 1.766632	 -1.772905	 0.124928
C	 4.327657	 0.562694	 -0.213579
H	 4.138806	 -1.549270	 0.057813
H	 3.561991	 -0.620783	 1.406976
H	 4.355973	 0.557257	 -1.298551
H	 3.867136	 1.491650	 0.100501
H	 5.351524	 0.571613	 0.142204

	symmetry c1
}
set optking {
	frozen_dihedral = ("
		6 3 5 8
	")
}

ee,wfn = optimize('scf', return_wfn=True)
oeprop( wfn, 'DIPOLE', 'QUADRUPOLE', 'MULLIKEN_CHARGES')
f=open( 'psi4out.xyz', 'w' )
f.write( "25  " )
f.write( str(ee) + "\n" )
f.write( MOL.save_string_xyz() )
f.close()
--------------------------------------------------------------------------

    Molecular point group: c1
  Charge       = 0
  Multiplicity = 1
  Basis Set: CC-PVTZ
  Basis Set:
  @DF-RHF Final Energy:  -387.25521541266056
    Total Energy =                       -387.2552154126613004
    Molecular point group: c1
  Basis Set: CC-PVTZ
  Basis Set:
  Basis Set: CC-PVTZ
  Basis Set:
  @DF-RHF Final Energy:  -387.25485049657806
    Total Energy =                       -387.2548504965781149
  Basis Set: CC-PVTZ
  Basis Set:
  Basis Set: CC-PVTZ
  Basis Set:
  @DF-RHF Final Energy:  -387.25519446702884
    Total Energy =                       -387.2551944670292414
  Basis Set: CC-PVTZ
  Basis Set:
  Basis Set: CC-PVTZ
  Basis Set:
  @DF-RHF Final Energy:  -387.25753386558830
    Total Energy =                       -387.2575338655879023
  Basis Set: CC-PVTZ
  Basis Set:
  @DF-RHF Final Energy:  -387.25682843786774
    Total Energy =                       -387.2568284378678527
  @DF-RHF Final Energy:  -387.25772142517832
    Total Energy =                       -387.2577214251780333
  @DF-RHF Final Energy:  -387.25784830718305
    Total Energy =                       -387.2578483071827122
  @DF-RHF Final Energy:  -387.25788693182625
    Total Energy =                       -387.2578869318263060
  @DF-RHF Final Energy:  -387.25792965568610
    Total Energy =                       -387.2579296556865529
  Basis Set: CC-PVTZ
  Basis Set:
  @DF-RHF Final Energy:  -387.25793102674243
    Total Energy =                       -387.2579310267421988
  Basis Set: CC-PVTZ
  Basis Set:
  Basis Set: CC-PVTZ
  Basis Set:
  @DF-RHF Final Energy:  -387.25793960967081
    Total Energy =                       -387.2579396096707569
  Basis Set: CC-PVTZ
  Basis Set:
  Basis Set: CC-PVTZ
  Basis Set:
  @DF-RHF Final Energy:  -387.25793881198905
    Total Energy =                       -387.2579388119893338
  Basis Set: CC-PVTZ
  Basis Set:
  Charge       = 0
  Multiplicity = 1
  Basis Set: CC-PVTZ
  Basis Set:

    Orbital Energies (a.u.)
    -----------------------

    Doubly Occupied:

       1A    -20.550926     2A    -11.319549     3A    -11.233169
       4A    -11.232587     5A    -11.224883     6A    -11.219000
       7A    -11.217417     8A    -11.216685     9A    -11.209170
      10A     -1.405359    11A     -1.105350    12A     -1.070210
      13A     -1.014378    14A     -0.943669    15A     -0.877828
      16A     -0.830057    17A     -0.783805    18A     -0.773670
      19A     -0.684646    20A     -0.657376    21A     -0.633420
      22A     -0.619042    23A     -0.613849    24A     -0.584070
      25A     -0.574157    26A     -0.565087    27A     -0.534220
      28A     -0.522541    29A     -0.516113    30A     -0.500188
      31A     -0.488731    32A     -0.479458    33A     -0.466720
      34A     -0.460600    35A     -0.444225    36A     -0.409532

  @DF-RHF Final Energy:  -387.25794028508801

   => Energetics <=

    Nuclear Repulsion Energy =            440.2405427559812097
    One-Electron Energy =               -1397.0335881880330362
    Two-Electron Energy =                 569.5351051469640424
    DFT Exchange-Correlation Energy =       0.0000000000000000
    Empirical Dispersion Energy =           0.0000000000000000
    PCM Polarization Energy =               0.0000000000000000
    EFP Energy =                            0.0000000000000000
    Total Energy =                       -387.2579402850877841
    Molecular point group: c1
  Basis Set: CC-PVTZ
  Basis Set:

  -Total Gradient:
     Atom            X                  Y                   Z
    ------   -----------------  -----------------  -----------------
       1        0.000005529651    -0.000004329923     0.000001424380
       2       -0.000003000952    -0.000011137634     0.000026288269
       3       -0.000758197917    -0.001418561903     0.002043026662
       4       -0.000003679075     0.000024749062    -0.000022120474
       5       -0.000415135153    -0.001738134854     0.001450267779
       6        0.000744414074     0.001658362314    -0.002135168996
       7        0.000002431449    -0.000002993613     0.000004349287
       8        0.000423515704     0.001490010607    -0.001364103500
       9       -0.000001330392     0.000001489250    -0.000000574162
      10       -0.000003065427    -0.000000632342     0.000002824858
      11        0.000003794377     0.000007203474    -0.000009191840
      12        0.000000855464     0.000000753591    -0.000000732305
      13        0.000000311318    -0.000005668597    -0.000001185918
      14       -0.000004830849    -0.000000644295     0.000007049446
      15        0.000002239181     0.000005442290     0.000000600931
      16        0.000000954552    -0.000000562350    -0.000002496925
      17       -0.000001476934    -0.000003550424    -0.000001460835
      18        0.000000132877     0.000002576683    -0.000002810946
      19       -0.000004580305    -0.000004907075    -0.000001629737
      20        0.000002134749     0.000001711450    -0.000000302584
      21        0.000008072470    -0.000006644131    -0.000003883613
      22       -0.000000089131    -0.000005263054     0.000009173307
      23        0.000003044195     0.000001843179    -0.000004922257
      24       -0.000005286059     0.000008335389     0.000003525731
      25        0.000003242130     0.000000552909     0.000002053441

  **** Optimization is complete! (in 13 steps) ****
    Final optimized geometry and variables:
    Molecular point group: c1

    Geometry (in Angstrom), charge = 0, multiplicity = 1:

    H           -2.526030727883    -0.440470770809    -1.988682645846
    C           -2.853393350429     0.442143100582    -1.428220286489
    C           -2.845444509332     0.317655411370     0.073947974428
    O           -3.182816005037     1.419009962030    -2.009097375733
    C           -1.440376669071     0.472887323999     0.679839086856
    H           -3.492939912176     1.096470757736     0.454196258782
    H           -3.258131539949    -0.651395018531     0.339097405897
    C           -0.357738499779    -0.407539424626     0.056571876448
    H           -1.143232118867     1.512750444907     0.589148816662
    H           -1.509870004127     0.264581400609     1.742065655966
    C            0.981811477946    -0.291085229836     0.779738415501
    H           -0.217494310229    -0.138189999896    -0.986198226742
    H           -0.680267503505    -1.446500962704     0.064680713467
    C            2.076287678955    -1.149562593156     0.148703052117
    H            1.285345776693     0.750843351185     0.789504241818
    H            0.853087872440    -0.582595038676     1.819550591165
    C            3.413526219943    -1.132141053484     0.891300838646
    H            2.234567469259    -0.831056676265    -0.879087670707
    H            1.725255883709    -2.176667257486     0.096551809506
    C            4.129728692982     0.216211405006     0.884477931904
    H            4.064997089104    -1.873933096502     0.439837751097
    H            3.257295246383    -1.452327305127     1.918125034523
    H            4.292868517408     0.565294266500    -0.130124439921
    H            3.566613490590     0.978192947621     1.409694705115
    H            5.097963120516     0.138772383897     1.365555449239

  Mulliken Charges: (a.u.)
   Center  Symbol    Alpha    Beta     Spin     Total
       1     H     0.45994  0.45994  0.00000  0.08012
       2     C     2.90699  2.90699  0.00000  0.18603
       3     C     3.09071  3.09071  0.00000 -0.18142
       4     O     4.16720  4.16720  0.00000 -0.33440
       5     C     3.10108  3.10108  0.00000 -0.20216
       6     H     0.43841  0.43841  0.00000  0.12318
       7     H     0.44882  0.44882  0.00000  0.10236
       8     C     3.10059  3.10059  0.00000 -0.20118
       9     H     0.44503  0.44503  0.00000  0.10993
      10     H     0.44731  0.44731  0.00000  0.10537
      11     C     3.09244  3.09244  0.00000 -0.18488
      12     H     0.44849  0.44849  0.00000  0.10302
      13     H     0.45208  0.45208  0.00000  0.09584
      14     C     3.09536  3.09536  0.00000 -0.19072
      15     H     0.45018  0.45018  0.00000  0.09965
      16     H     0.45305  0.45305  0.00000  0.09390
      17     C     3.09088  3.09088  0.00000 -0.18176
      18     H     0.45277  0.45277  0.00000  0.09446
      19     H     0.44975  0.44975  0.00000  0.10050
      20     C     3.15250  3.15250  0.00000 -0.30499
      21     H     0.44787  0.44787  0.00000  0.10426
      22     H     0.45466  0.45466  0.00000  0.09067
      23     H     0.45416  0.45416  0.00000  0.09168
      24     H     0.45378  0.45378  0.00000  0.09245
      25     H     0.44594  0.44594  0.00000  0.10811

   Total alpha = 36.00000, Total beta = 36.00000, Total charge = -0.00000

*** Psi4 exiting successfully. Buy a developer a beer!
