                              Psi4 1.0.54 Driver

  ==> Input File <==

--------------------------------------------------------------------------
set {
	reference rhf
	basis cc-pvtz
}

set_num_threads( 4 )
memory 2 gb

molecule MOL {
0 1

H	 2.702020	 -0.925669	 0.327934
N	 2.326826	 -0.066186	 0.000000
C	 0.934676	 -0.005420	 0.000000
H	 2.773396	 0.709567	 0.431051
C	 0.226436	 -0.001077	 -1.195129
C	 0.226436	 -0.001077	 1.195129
H	 0.759091	 -0.011439	 -2.128123
C	 -1.153391	 0.009141	 -1.189028
H	 0.759091	 -0.011439	 2.128123
C	 -1.153391	 0.009141	 1.189028
H	 -1.680905	 0.012964	 -2.124348
C	 -1.857876	 0.014675	 0.000000
H	 -1.680905	 0.012964	 2.124348
H	 -2.930222	 0.022904	 0.000000

	symmetry c1
}
set optking {
	frozen_dihedral = ("
		1 2 3 5
	")
}

ee,wfn = optimize('scf', return_wfn=True)
oeprop( wfn, 'DIPOLE', 'QUADRUPOLE', 'MULLIKEN_CHARGES')
f=open( 'psi4out.xyz', 'w' )
f.write( "14  " )
f.write( str(ee) + "\n" )
f.write( MOL.save_string_xyz() )
f.close()
--------------------------------------------------------------------------

    Molecular point group: c1
  Charge       = 0
  Multiplicity = 1
  Basis Set: CC-PVTZ
  Basis Set:
  @DF-RHF Final Energy:  -285.82508760037865
    Total Energy =                       -285.8250876003787653
    Molecular point group: c1
  Basis Set: CC-PVTZ
  Basis Set:
  Basis Set: CC-PVTZ
  Basis Set:
  @DF-RHF Final Energy:  -285.82685969194165
    Total Energy =                       -285.8268596919421611
  Basis Set: CC-PVTZ
  Basis Set:
  Basis Set: CC-PVTZ
  Basis Set:
  @DF-RHF Final Energy:  -285.82726020295632
    Total Energy =                       -285.8272602029563245
  Basis Set: CC-PVTZ
  Basis Set:
  Basis Set: CC-PVTZ
  Basis Set:
  @DF-RHF Final Energy:  -285.82730212538269
    Total Energy =                       -285.8273021253826300
  Basis Set: CC-PVTZ
  Basis Set:
  Charge       = 0
  Multiplicity = 1
  Basis Set: CC-PVTZ
  Basis Set:

    Orbital Energies (a.u.)
    -----------------------

    Doubly Occupied:

       1A    -15.542835     2A    -11.259736     3A    -11.228690
       4A    -11.227048     5A    -11.224199     6A    -11.223920
       7A    -11.219628     8A     -1.210038     9A     -1.131967
      10A     -1.016092    11A     -0.990449    12A     -0.830872
      13A     -0.810889    14A     -0.705976    15A     -0.663683
      16A     -0.648781    17A     -0.630699    18A     -0.593965
      19A     -0.585922    20A     -0.509294    21A     -0.500215
      22A     -0.496595    23A     -0.414028    24A     -0.336498
      25A     -0.328438

  @DF-RHF Final Energy:  -285.82730302029887

   => Energetics <=

    Nuclear Repulsion Energy =            272.9477811295323022
    One-Electron Energy =                -926.8892502251364931
    Two-Electron Energy =                 368.1141660753053202
    DFT Exchange-Correlation Energy =       0.0000000000000000
    Empirical Dispersion Energy =           0.0000000000000000
    PCM Polarization Energy =               0.0000000000000000
    EFP Energy =                            0.0000000000000000
    Total Energy =                       -285.8273030202988139
    Molecular point group: c1
  Basis Set: CC-PVTZ
  Basis Set:

  -Total Gradient:
     Atom            X                  Y                   Z
    ------   -----------------  -----------------  -----------------
       1        0.000055421040     0.000414811808     0.001167003169
       2        0.000081128417    -0.000016512747    -0.001392185239
       3       -0.000095414557    -0.001186216575     0.000185216392
       4       -0.000071187584    -0.000107631802    -0.000077390399
       5        0.000106755080     0.000938786979     0.000017475920
       6       -0.000059896005    -0.000029126368     0.000064504405
       7        0.000005598619     0.000010652200     0.000007636327
       8       -0.000048365774    -0.000087291942     0.000052633781
       9       -0.000005045875     0.000007459473    -0.000021136745
      10        0.000048861618    -0.000039442211     0.000031134611
      11        0.000004230283     0.000008362678     0.000000719283
      12        0.000001185641     0.000096883859    -0.000055009941
      13       -0.000024370295     0.000000349896     0.000002112482
      14        0.000001099390    -0.000011085248     0.000017285955

  **** Optimization is complete! (in 5 steps) ****
    Final optimized geometry and variables:
    Molecular point group: c1

    Geometry (in Angstrom), charge = 0, multiplicity = 1:

    H            2.714192179219    -0.920270985890     0.261473917288
    N            2.355284884918    -0.040181674825    -0.045253571075
    C            0.925356353967    -0.021365873277    -0.000324626113
    H            2.740896046637     0.659155485756     0.553067414834
    C            0.226326294050    -0.011713173489    -1.193646276965
    C            0.218294880392     0.005508717600     1.192392080348
    H            0.777910727306    -0.020035734905    -2.113182247147
    C           -1.156584316769     0.011278192433    -1.197061363848
    H            0.753068440536     0.001259141425     2.124282845903
    C           -1.162700614015     0.037426648304     1.189969029517
    H           -1.685652375121     0.016022439091    -2.131085681257
    C           -1.855833917003     0.037800199882    -0.006284409023
    H           -1.696533570973     0.059850516774     2.121091436223
    H           -2.928697496987     0.060591889337    -0.008805355216

  Mulliken Charges: (a.u.)
   Center  Symbol    Alpha    Beta     Spin     Total
       1     H     0.42344  0.42344  0.00000  0.15312
       2     N     3.69913  3.69913  0.00000 -0.39826
       3     C     2.90777  2.90777  0.00000  0.18446
       4     H     0.42274  0.42274  0.00000  0.15451
       5     C     3.09558  3.09558  0.00000 -0.19117
       6     C     3.11417  3.11417  0.00000 -0.22834
       7     H     0.41695  0.41695  0.00000  0.16609
       8     C     3.06597  3.06597  0.00000 -0.13195
       9     H     0.42621  0.42621  0.00000  0.14759
      10     C     3.07298  3.07298  0.00000 -0.14595
      11     H     0.42306  0.42306  0.00000  0.15388
      12     C     3.08477  3.08477  0.00000 -0.16953
      13     H     0.42357  0.42357  0.00000  0.15286
      14     H     0.42366  0.42366  0.00000  0.15268

   Total alpha = 25.00000, Total beta = 25.00000, Total charge =  0.00000

*** Psi4 exiting successfully. Buy a developer a beer!
