  ==> Input File <==

--------------------------------------------------------------------------
set {
	reference rhf
	basis 6-31G*
}

set_num_threads( 1 )
memory 2 gb

molecule MOL {
0 1

O	 -3.409387	 0.117009	 0.930044
C	 -2.668563	 0.129746	 -0.000350
C	 -2.975445	 0.811644	 -1.308824
O	 -1.481751	 -0.454642	 0.000584
H	 -3.160643	 1.862080	 -1.118695
H	 -2.168559	 0.703535	 -2.018533
H	 -3.884763	 0.387289	 -1.717412
C	 -0.334255	 0.388708	 0.000906
C	 0.891947	 -0.504646	 0.000751
H	 -0.365390	 1.025305	 -0.873475
H	 -0.365484	 1.024911	 0.875569
C	 2.191998	 0.301789	 0.000897
H	 0.855148	 -1.151283	 -0.871571
H	 0.855132	 -1.151660	 0.872805
C	 3.441114	 -0.581407	 0.000108
H	 2.215074	 0.954890	 -0.869742
H	 2.215465	 0.953923	 0.872248
C	 4.739576	 0.224112	 -0.001102
H	 3.419457	 -1.233487	 -0.870178
H	 3.420834	 -1.233096	 0.870717
H	 4.804918	 0.861552	 -0.878265
H	 5.606527	 -0.429058	 -0.001824
H	 4.806469	 0.861674	 0.875853

	symmetry c1
}
set optking {
	frozen_dihedral = ("
		13 9 8 10,
		2 4 8 10,
		16 12 9 13,
		19 15 12 16
	")
}

ee = energy('scf')
oeprop('DIPOLE', 'QUADRUPOLE', 'MULLIKEN_CHARGES')
f=open( 'psi4out.xyz', 'w' )
f.write( "23  " )
f.write( str(ee) + "\n" )
f.write( MOL.save_string_xyz() )
f.close()
--------------------------------------------------------------------------

    Molecular point group: c1

    Geometry (in Angstrom), charge = 0, multiplicity = 1:

       Center              X                  Y                   Z               Mass
    ------------   -----------------  -----------------  -----------------  -----------------
           O         -3.437059337018     0.060879544815     0.973829962721    15.994914619560
           C         -2.696235337018     0.073616544815     0.043435962721    12.000000000000
           C         -3.003117337018     0.755514544815    -1.265038037279    12.000000000000
           O         -1.509423337018    -0.510771455185     0.044369962721    15.994914619560
           H         -3.188315337018     1.805950544815    -1.074909037279     1.007825032070
           H         -2.196231337018     0.647405544815    -1.974747037279     1.007825032070
           H         -3.912435337018     0.331159544815    -1.673626037279     1.007825032070
           C         -0.361927337018     0.332578544815     0.044691962721    12.000000000000
           C          0.864274662982    -0.560775455185     0.044536962721    12.000000000000
           H         -0.393062337018     0.969175544815    -0.829689037279     1.007825032070
           H         -0.393156337018     0.968781544815     0.919354962721     1.007825032070
           C          2.164325662982     0.245659544815     0.044682962721    12.000000000000
           H          0.827475662982    -1.207412455185    -0.827785037279     1.007825032070
           H          0.827459662982    -1.207789455185     0.916590962721     1.007825032070
           C          3.413441662982    -0.637536455185     0.043893962721    12.000000000000
           H          2.187401662982     0.898760544815    -0.825956037279     1.007825032070
           H          2.187792662982     0.897793544815     0.916033962721     1.007825032070
           C          4.711903662982     0.167982544815     0.042683962721    12.000000000000
           H          3.391784662982    -1.289616455185    -0.826392037279     1.007825032070
           H          3.393161662982    -1.289225455185     0.914502962721     1.007825032070
           H          4.777245662982     0.805422544815    -0.834479037279     1.007825032070
           H          5.578854662982    -0.485187455185     0.041961962721     1.007825032070
           H          4.778796662982     0.805544544815     0.919638962721     1.007825032070

  Charge       = 0
  Multiplicity = 1
  Basis Set: 6-31G*
  Basis Set:

    Orbital Energies (a.u.)
    -----------------------

    Doubly Occupied:

       1A    -20.586945     2A    -20.549191     3A    -11.375230
       4A    -11.297643     5A    -11.233862     6A    -11.230467
       7A    -11.229158     8A    -11.225345     9A    -11.216138
      10A     -1.461952    11A     -1.365956    12A     -1.098240
      13A     -1.038331    14A     -1.009977    15A     -0.941155
      16A     -0.847692    17A     -0.808343    18A     -0.778371
      19A     -0.700986    20A     -0.687912    21A     -0.656987
      22A     -0.651450    23A     -0.620898    24A     -0.593353
      25A     -0.581091    26A     -0.579427    27A     -0.562733
      28A     -0.547755    29A     -0.520455    30A     -0.503206
      31A     -0.484880    32A     -0.480192    33A     -0.475602
      34A     -0.474054    35A     -0.455904    36A     -0.432568

  @DF-RHF Final Energy:  -422.95694784508095

   => Energetics <=

    Nuclear Repulsion Energy =            450.6544200586333204
    One-Electron Energy =               -1468.6158947205494769
    Two-Electron Energy =                 595.0045268168345274
    DFT Exchange-Correlation Energy =       0.0000000000000000
    Empirical Dispersion Energy =           0.0000000000000000
    PCM Polarization Energy =               0.0000000000000000
    EFP Energy =                            0.0000000000000000
    Total Energy =                       -422.9569478450815723

  Mulliken Charges: (a.u.)
   Center  Symbol    Alpha    Beta     Spin     Total
       1     O     4.25601  4.25601  0.00000 -0.51202
       2     C     2.62396  2.62396  0.00000  0.75209
       3     C     3.29806  3.29806  0.00000 -0.59612
       4     O     4.31407  4.31407  0.00000 -0.62814
       5     H     0.39863  0.39863  0.00000  0.20274
       6     H     0.40679  0.40679  0.00000  0.18641
       7     H     0.39321  0.39321  0.00000  0.21357
       8     C     2.99838  2.99838  0.00000  0.00325
       9     C     3.16283  3.16283  0.00000 -0.32567
      10     H     0.42157  0.42157  0.00000  0.15686
      11     H     0.41167  0.41167  0.00000  0.17665
      12     C     3.16150  3.16150  0.00000 -0.32301
      13     H     0.41213  0.41213  0.00000  0.17574
      14     H     0.40702  0.40702  0.00000  0.18596
      15     C     3.15189  3.15189  0.00000 -0.30379
      16     H     0.42249  0.42249  0.00000  0.15503
      17     H     0.42040  0.42040  0.00000  0.15920
      18     C     3.24004  3.24004  0.00000 -0.48009
      19     H     0.42084  0.42084  0.00000  0.15833
      20     H     0.41963  0.41963  0.00000  0.16074
      21     H     0.42130  0.42130  0.00000  0.15739
      22     H     0.41701  0.41701  0.00000  0.16598
      23     H     0.42055  0.42055  0.00000  0.15889

   Total alpha = 36.00000, Total beta = 36.00000, Total charge =  0.00000
