  ==> Input File <==

--------------------------------------------------------------------------
set {
	reference rhf
	basis 6-31G*
}

set_num_threads( 4 )
memory 2 gb

molecule MOL {
0 1

O	 1.134899	 1.433755	 -0.351197
C	 0.885300	 0.498106	 -1.040620
C	 -0.402378	 -0.288896	 -1.020466
O	 1.731054	 0.012896	 -1.940756
C	 -1.412532	 0.227344	 -0.000452
H	 -0.812313	 -0.266501	 -2.026551
H	 -0.145360	 -1.327232	 -0.829274
C	 -2.706999	 -0.587347	 -0.000541
H	 -1.633376	 1.269274	 -0.210487
H	 -0.965258	 0.207473	 0.988514
C	 -3.956778	 0.291888	 0.000910
H	 -2.726114	 -1.239230	 -0.871609
H	 -2.725217	 -1.240844	 0.869333
H	 -3.985213	 0.933254	 -0.875158
H	 -4.860123	 -0.309979	 0.000519
H	 -3.984618	 0.931166	 0.878514
C	 2.983084	 0.663124	 -2.062277
H	 2.848460	 1.696706	 -2.347010
H	 3.519030	 0.129966	 -2.831986
H	 3.526054	 0.619601	 -1.129112

	symmetry c1
}
set optking {
	frozen_dihedral = ("
		9 5 8 12
	")
}

ee = optimize('scf')
oeprop('DIPOLE', 'QUADRUPOLE', 'MULLIKEN_CHARGES')
f=open( 'psi4out.xyz', 'w' )
f.write( "20  " )
f.write( str(ee) + "\n" )
f.write( MOL.save_string_xyz() )
f.close()
--------------------------------------------------------------------------

    Molecular point group: c1
  Charge       = 0
  Multiplicity = 1
  Basis Set: 6-31G*
  Basis Set:
  @DF-RHF Final Energy:  -383.93634923707663
    Total Energy =                       -383.9363492370765698
    Molecular point group: c1
  Basis Set: 6-31G*
  Basis Set:
  Basis Set: 6-31G*
  Basis Set:
  @DF-RHF Final Energy:  -383.93663526995880
    Total Energy =                       -383.9366352699582876
  Basis Set: 6-31G*
  Basis Set:
  Basis Set: 6-31G*
  Basis Set:
  @DF-RHF Final Energy:  -383.93655965862354
    Total Energy =                       -383.9365596586235370
  Basis Set: 6-31G*
  Basis Set:
  Basis Set: 6-31G*
  Basis Set:
  @DF-RHF Final Energy:  -383.93671382668094
    Total Energy =                       -383.9367138266804886
  Basis Set: 6-31G*
  Basis Set:
  Charge       = 0
  Multiplicity = 1
  Basis Set: 6-31G*
  Basis Set:

    Orbital Energies (a.u.)
    -----------------------

    Doubly Occupied:

       1A    -20.603757     2A    -20.545665     3A    -11.372317
       4A    -11.280952     5A    -11.236238     6A    -11.219872
       7A    -11.218876     8A    -11.211381     9A     -1.469461
      10A     -1.362919    11A     -1.086669    12A     -1.023849
      13A     -0.969241    14A     -0.886142    15A     -0.804760
      16A     -0.767731    17A     -0.698876    18A     -0.682830
      19A     -0.672366    20A     -0.637488    21A     -0.599740
      22A     -0.596800    23A     -0.576879    24A     -0.542866
      25A     -0.530694    26A     -0.522688    27A     -0.508198
      28A     -0.477728    29A     -0.472827    30A     -0.464280
      31A     -0.455063    32A     -0.436511

  @DF-RHF Final Energy:  -383.93671431761049

   => Energetics <=

    Nuclear Repulsion Energy =            381.1989538158904907
    One-Electron Energy =               -1278.4000086547487172
    Two-Electron Energy =                 513.2643405212473908
    DFT Exchange-Correlation Energy =       0.0000000000000000
    Empirical Dispersion Energy =           0.0000000000000000
    PCM Polarization Energy =               0.0000000000000000
    EFP Energy =                            0.0000000000000000
    Total Energy =                       -383.9367143176108357
    Molecular point group: c1
  Basis Set: 6-31G*
  Basis Set:

  -Total Gradient:
     Atom            X                  Y                   Z
    ------   -----------------  -----------------  -----------------
       1        0.000055370622    -0.000025300589    -0.000025165888
       2       -0.000063137219     0.000038154701    -0.000022433677
       3       -0.000094612865    -0.000019998101     0.000008454644
       4        0.000035459117     0.000037637497     0.000037884904
       5        0.000627118077    -0.001374099683    -0.003469887891
       6       -0.000010791368    -0.000009168296     0.000017622306
       7       -0.000020729647     0.000012428058     0.000017654830
       8       -0.001813528228     0.003136171596    -0.001403337695
       9       -0.000347647617     0.000571671944     0.003140258412
      10        0.000011691024    -0.000072188433     0.000023067075
      11        0.000045739139     0.000008688349    -0.000002666719
      12        0.001527010904    -0.002265302593     0.001621983556
      13       -0.000015840346     0.000023189248     0.000075077465
      14        0.000006505637    -0.000056462075     0.000000309647
      15       -0.000001274063    -0.000016711315     0.000027666520
      16        0.000030444066     0.000012300746    -0.000026439030
      17        0.000014337508    -0.000005578081    -0.000022979217
      18        0.000001217509    -0.000001415604     0.000001003157
      19        0.000013588660     0.000006480467     0.000000439031
      20       -0.000000920913    -0.000000497836     0.000001488567

  **** Optimization is complete! (in 5 steps) ****
    Final optimized geometry and variables:
    Molecular point group: c1

    Geometry (in Angstrom), charge = 0, multiplicity = 1:

    O            1.323531546303     1.142779178581     0.458624038382
    C            1.078026555204     0.205725503910    -0.230428688254
    C           -0.214224440516    -0.574185249185    -0.224761310416
    O            1.933029271137    -0.287022354007    -1.117701930345
    C           -1.235338015186    -0.050528111240     0.779513688344
    H           -0.611775418207    -0.553083176791    -1.235747106428
    H            0.033408780297    -1.613534360944    -0.026344143942
    C           -2.537950900061    -0.877063833718     0.799241582161
    H           -1.453358768745     0.991758991195     0.570849043109
    H           -0.786212935485    -0.048218579528     1.766869485219
    C           -3.800254831767    -0.018860432325     0.855249540330
    H           -2.578172655331    -1.535274517590    -0.065690650974
    H           -2.525230483773    -1.543150797860     1.658185581770
    H           -3.882413952455     0.613035727690    -0.024436507735
    H           -4.692947755672    -0.634344216683     0.908110285721
    H           -3.791856716650     0.629446669487     1.726692862231
    C            3.189695984904     0.356642733045    -1.225549518667
    H            3.063808391120     1.389856656130    -1.515600336043
    H            3.732840921781    -0.181839170655    -1.986463606441
    H            3.720507675021     0.313814415897    -0.285381283054

  Mulliken Charges: (a.u.)
   Center  Symbol    Alpha    Beta     Spin     Total
       1     O     4.28587  4.28587  0.00000 -0.57174
       2     C     2.60579  2.60579  0.00000  0.78843
       3     C     3.20951  3.20951  0.00000 -0.41903
       4     O     4.30721  4.30721  0.00000 -0.61442
       5     C     3.15559  3.15559  0.00000 -0.31118
       6     H     0.40044  0.40044  0.00000  0.19911
       7     H     0.40026  0.40026  0.00000  0.19948
       8     C     3.15717  3.15717  0.00000 -0.31435
       9     H     0.40967  0.40967  0.00000  0.18066
      10     H     0.40941  0.40941  0.00000  0.18117
      11     C     3.23979  3.23979  0.00000 -0.47959
      12     H     0.42162  0.42162  0.00000  0.15677
      13     H     0.41893  0.41893  0.00000  0.16214
      14     H     0.42110  0.42110  0.00000  0.15781
      15     H     0.41962  0.41962  0.00000  0.16076
      16     H     0.41904  0.41904  0.00000  0.16193
      17     C     3.09244  3.09244  0.00000 -0.18489
      18     H     0.40905  0.40905  0.00000  0.18189
      19     H     0.40843  0.40843  0.00000  0.18315
      20     H     0.40905  0.40905  0.00000  0.18190

   Total alpha = 32.00000, Total beta = 32.00000, Total charge =  0.00000
