  ==> Input File <==

--------------------------------------------------------------------------
set {
	reference rhf
	basis 6-31G*
}

set_num_threads( 4 )
memory 2 gb

molecule MOL {
0 1

H	 -1.984402	 0.349910	 -2.669165
N	 -1.030100	 0.204138	 -2.402645
C	 -0.878802	 -1.058037	 -1.700414
H	 -0.771183	 0.957448	 -1.795524
C	 0.562120	 -1.242211	 -1.272678
H	 -1.513632	 -1.148180	 -0.817880
H	 -1.144296	 -1.865131	 -2.376353
O	 0.874168	 -0.245412	 -0.342030
H	 0.699643	 -2.227013	 -0.826706
H	 1.213772	 -1.165701	 -2.140278
C	 2.202317	 -0.244239	 0.074611
H	 2.711377	 -1.041390	 -0.449894
H	 2.692099	 0.699270	 -0.159667
H	 2.283185	 -0.418429	 1.145558

	symmetry c1
}
set optking {
	frozen_dihedral = ("
		5 8 11 13
	")
}

ee = optimize('scf')
oeprop('DIPOLE', 'QUADRUPOLE', 'MULLIKEN_CHARGES')
f=open( 'psi4out.xyz', 'w' )
f.write( "14  " )
f.write( str(ee) + "\n" )
f.write( MOL.save_string_xyz() )
f.close()
--------------------------------------------------------------------------

    Molecular point group: c1
  Charge       = 0
  Multiplicity = 1
  Basis Set: 6-31G*
  Basis Set:
  @DF-RHF Final Energy:  -248.12021782333531
    Total Energy =                       -248.1202178233350537
    Molecular point group: c1
  Basis Set: 6-31G*
  Basis Set:
  Basis Set: 6-31G*
  Basis Set:
  @DF-RHF Final Energy:  -248.12107992319446
    Total Energy =                       -248.1210799231944293
  Basis Set: 6-31G*
  Basis Set:
  Basis Set: 6-31G*
  Basis Set:
  @DF-RHF Final Energy:  -248.12139093068521
    Total Energy =                       -248.1213909306850383
  Basis Set: 6-31G*
  Basis Set:
  Charge       = 0
  Multiplicity = 1
  Basis Set: 6-31G*
  Basis Set:

    Orbital Energies (a.u.)
    -----------------------

    Doubly Occupied:

       1A    -20.553510     2A    -15.527887     3A    -11.266114
       4A    -11.265773     5A    -11.240169     6A     -1.376216
       7A     -1.173007     8A     -0.998870     9A     -0.907468
      10A     -0.814684    11A     -0.682216    12A     -0.671235
      13A     -0.642688    14A     -0.609561    15A     -0.605119
      16A     -0.538703    17A     -0.535835    18A     -0.496321
      19A     -0.471414    20A     -0.411785    21A     -0.379606

  @DF-RHF Final Energy:  -248.12139361517694

   => Energetics <=

    Nuclear Repulsion Energy =            194.3894949244398731
    One-Electron Energy =                -722.6854187925082442
    Two-Electron Energy =                 280.1745302528914863
    DFT Exchange-Correlation Energy =       0.0000000000000000
    Empirical Dispersion Energy =           0.0000000000000000
    PCM Polarization Energy =               0.0000000000000000
    EFP Energy =                            0.0000000000000000
    Total Energy =                       -248.1213936151768849
    Molecular point group: c1
  Basis Set: 6-31G*
  Basis Set:

  -Total Gradient:
     Atom            X                  Y                   Z
    ------   -----------------  -----------------  -----------------
       1        0.000003384061    -0.000015238124     0.000005289688
       2        0.000006737680    -0.000010173676     0.000007431458
       3       -0.000024704162     0.000020782975     0.000001559867
       4        0.000005358799    -0.000010921050     0.000000869579
       5       -0.000007382022    -0.000017191545    -0.000001027153
       6        0.000011150402     0.000005473507    -0.000007502495
       7       -0.000014972127    -0.000005556099    -0.000016651374
       8        0.000167776176     0.000113172531     0.000039690846
       9        0.000006310323     0.000029723893     0.000007382035
      10        0.000009359267     0.000010998980     0.000019709569
      11       -0.000104690278    -0.000160252283    -0.000068747692
      12        0.000050797577    -0.000014929647    -0.000010521873
      13       -0.000105914109     0.000021851424     0.000005152006
      14       -0.000003211587     0.000032259115     0.000017365539

  **** Optimization is complete! (in 4 steps) ****
    Final optimized geometry and variables:
    Molecular point group: c1

    Geometry (in Angstrom), charge = 0, multiplicity = 1:

    H           -2.338232247717     0.876090471060    -1.526468648348
    N           -1.383249899118     0.717450486492    -1.270059701991
    C           -1.240027685393    -0.551262507084    -0.578029856440
    H           -1.110166012258     1.462886939284    -0.659501173880
    C            0.202372231962    -0.755977382093    -0.165228529999
    H           -1.867545127620    -0.640113066123     0.309791974184
    H           -1.521097421922    -1.350671611933    -1.256931087260
    O            0.531294032420     0.236151997576     0.766393662888
    H            0.328733962413    -1.744410844245     0.274631043793
    H            0.844209611933    -0.683997327075    -1.039550670593
    C            1.860429775740     0.260920274869     1.198497322308
    H            2.451875475847    -0.522216702897     0.734581271430
    H            2.306457025472     1.218426686473     0.952176352625
    H            1.896468594667     0.125941919075     2.274249691460

  Mulliken Charges: (a.u.)
   Center  Symbol    Alpha    Beta     Spin     Total
       1     H     0.33296  0.33296  0.00000  0.33408
       2     N     3.92530  3.92530  0.00000 -0.85061
       3     C     3.06899  3.06899  0.00000 -0.13798
       4     H     0.32360  0.32360  0.00000  0.35279
       5     C     2.98973  2.98973  0.00000  0.02054
       6     H     0.42670  0.42670  0.00000  0.14661
       7     H     0.42072  0.42072  0.00000  0.15857
       8     O     4.31478  4.31478  0.00000 -0.62957
       9     H     0.43099  0.43099  0.00000  0.13802
      10     H     0.42222  0.42222  0.00000  0.15556
      11     C     3.07537  3.07537  0.00000 -0.15074
      12     H     0.42821  0.42821  0.00000  0.14357
      13     H     0.41977  0.41977  0.00000  0.16046
      14     H     0.42066  0.42066  0.00000  0.15869

   Total alpha = 21.00000, Total beta = 21.00000, Total charge =  0.00000
