                              Psi4 1.0.54 Driver

  ==> Input File <==

--------------------------------------------------------------------------
set {
	reference rhf
	basis cc-pvtz
}

set_num_threads( 4 )
memory 2 gb

molecule MOL {
0 1

H	 -3.395817	 -0.424643	 -1.537334
O	 -3.458596	 0.315260	 -0.960865
C	 -3.176635	 -0.080824	 0.355601
C	 -1.763371	 0.265266	 0.799691
H	 -3.321825	 -1.153438	 0.379502
H	 -3.895468	 0.357385	 1.043382
C	 -0.673390	 -0.426948	 -0.013392
H	 -1.631049	 1.344913	 0.747560
H	 -1.664587	 -0.001624	 1.849167
C	 0.737842	 -0.043159	 0.423759
H	 -0.806103	 -0.190518	 -1.063345
H	 -0.797221	 -1.503753	 0.074146
C	 1.824000	 -0.743224	 -0.390623
H	 0.850588	 1.033777	 0.343840
H	 0.868587	 -0.286314	 1.476203
C	 3.255957	 -0.453067	 0.062319
H	 1.718250	 -0.470599	 -1.438164
H	 1.658105	 -1.815850	 -0.339904
C	 3.707029	 0.992337	 -0.133857
H	 3.928201	 -1.104096	 -0.488158
H	 3.362667	 -0.724561	 1.109374
H	 3.605811	 1.294044	 -1.171549
H	 4.748333	 1.111029	 0.143343
H	 3.129882	 1.683078	 0.468956

	symmetry c1
}
set optking {
	frozen_dihedral = ("
		1 2 3 5
	")
}

ee,wfn = optimize('scf', return_wfn=True)
oeprop( wfn, 'DIPOLE', 'QUADRUPOLE', 'MULLIKEN_CHARGES')
f=open( 'psi4out.xyz', 'w' )
f.write( "24  " )
f.write( str(ee) + "\n" )
f.write( MOL.save_string_xyz() )
f.close()
--------------------------------------------------------------------------

    Molecular point group: c1
  Charge       = 0
  Multiplicity = 1
  Basis Set: CC-PVTZ
  Basis Set:
  @DF-RHF Final Energy:  -349.37811018585376
    Total Energy =                       -349.3781101858539273
    Molecular point group: c1
  Basis Set: CC-PVTZ
  Basis Set:
  Basis Set: CC-PVTZ
  Basis Set:
  @DF-RHF Final Energy:  -349.37910862069987
    Total Energy =                       -349.3791086206992418
  Basis Set: CC-PVTZ
  Basis Set:
  Basis Set: CC-PVTZ
  Basis Set:
  @DF-RHF Final Energy:  -349.37945859077172
    Total Energy =                       -349.3794585907718329
  Basis Set: CC-PVTZ
  Basis Set:
  Basis Set: CC-PVTZ
  Basis Set:
  @DF-RHF Final Energy:  -349.37946537799536
    Total Energy =                       -349.3794653779950181
  Basis Set: CC-PVTZ
  Basis Set:
  Basis Set: CC-PVTZ
  Basis Set:
  @DF-RHF Final Energy:  -349.37946676498200
    Total Energy =                       -349.3794667649817711
  Basis Set: CC-PVTZ
  Basis Set:
  Charge       = 0
  Multiplicity = 1
  Basis Set: CC-PVTZ
  Basis Set:

    Orbital Energies (a.u.)
    -----------------------

    Doubly Occupied:

       1A    -20.545249     2A    -11.265871     3A    -11.212613
       4A    -11.211748     5A    -11.210819     6A    -11.210506
       7A    -11.210152     8A    -11.205143     9A     -1.362665
      10A     -1.090404    11A     -1.049438    12A     -0.987298
      13A     -0.917155    14A     -0.849724    15A     -0.793158
      16A     -0.777411    17A     -0.705190    18A     -0.647145
      19A     -0.630170    20A     -0.608952    21A     -0.599511
      22A     -0.582270    23A     -0.561116    24A     -0.539396
      25A     -0.517039    26A     -0.510204    27A     -0.497258
      28A     -0.474078    29A     -0.471579    30A     -0.459840
      31A     -0.457628    32A     -0.450777    33A     -0.420788

  @DF-RHF Final Energy:  -349.37946685325568

   => Energetics <=

    Nuclear Repulsion Energy =            384.8671477794788984
    One-Electron Energy =               -1236.4286388224234088
    Two-Electron Energy =                 502.1820241896891730
    DFT Exchange-Correlation Energy =       0.0000000000000000
    Empirical Dispersion Energy =           0.0000000000000000
    PCM Polarization Energy =               0.0000000000000000
    EFP Energy =                            0.0000000000000000
    Total Energy =                       -349.3794668532552805
    Molecular point group: c1
  Basis Set: CC-PVTZ
  Basis Set:

  -Total Gradient:
     Atom            X                  Y                   Z
    ------   -----------------  -----------------  -----------------
       1       -0.000783870752    -0.000136380193     0.000142331722
       2        0.001137839592     0.000142876609    -0.000241005230
       3       -0.001035131545     0.000080196507     0.000251198626
       4       -0.000026575556    -0.000001406031     0.000020123607
       5        0.000672497686    -0.000076956050    -0.000183291017
       6        0.000018377979    -0.000005705862     0.000010429983
       7       -0.000009891798     0.000001643928    -0.000018237886
       8       -0.000003476434    -0.000003033785     0.000001903193
       9        0.000014023007     0.000008978244    -0.000000617475
      10        0.000005526803    -0.000005474613     0.000009133803
      11        0.000001087666    -0.000004995614     0.000009751450
      12        0.000006172515     0.000009469180    -0.000001502420
      13        0.000003467429    -0.000010991336     0.000007132420
      14        0.000007356757     0.000009338911     0.000002712501
      15       -0.000001501792    -0.000000513581    -0.000003682090
      16        0.000008993377    -0.000004507446    -0.000017639145
      17        0.000001008110    -0.000007955981     0.000003207267
      18       -0.000000085896     0.000002202808     0.000004424887
      19       -0.000007182897    -0.000000897831     0.000004233707
      20        0.000003303538     0.000004058199    -0.000002532953
      21        0.000000347131    -0.000002931986    -0.000005474178
      22        0.000001866688    -0.000003351455     0.000003432489
      23       -0.000001186327     0.000001953927     0.000002788097
      24       -0.000012965283     0.000004383452     0.000001178642

  **** Optimization is complete! (in 6 steps) ****
    Final optimized geometry and variables:
    Molecular point group: c1

    Geometry (in Angstrom), charge = 0, multiplicity = 1:

    H           -3.398795965066    -0.490472268349    -1.573120395870
    O           -3.462124928655     0.242343716226    -0.991637994289
    C           -3.177079994994    -0.147721891361     0.329343249076
    C           -1.779101751871     0.266610600726     0.759382279623
    H           -3.295147593694    -1.222297404123     0.442408620087
    H           -3.910569778706     0.326834704198     0.969399734041
    C           -0.662207757430    -0.430788447102    -0.011154629259
    H           -1.689802719636     1.342262368171     0.640711300529
    H           -1.676313146738     0.057345761958     1.821786943263
    C            0.734233973346    -0.003150020518     0.433218159867
    H           -0.777092424901    -0.224852630276    -1.070727863129
    H           -0.761568731549    -1.508098446696     0.109075292384
    C            1.848050704237    -0.701858209390    -0.344095333229
    H            0.822269810629     1.072874691049     0.322433703750
    H            0.853756373599    -0.212292006548     1.494082546851
    C            3.266059559957    -0.363822497007     0.119620398909
    H            1.751726090215    -0.463383506721    -1.400947539358
    H            1.707057394073    -1.776369964231    -0.262705901348
    C            3.684158546436     1.086345559822    -0.111248647098
    H            3.961770230722    -1.013187545684    -0.403032396545
    H            3.364322203038    -0.603297578428     1.175259902643
    H            3.589539113852     1.356675525986    -1.158132710667
    H            4.718415001624     1.238342746749     0.175824752421
    H            3.082192892706     1.778935540802     0.464395256921

  Mulliken Charges: (a.u.)
   Center  Symbol    Alpha    Beta     Spin     Total
       1     H     0.39042  0.39042  0.00000  0.21916
       2     O     4.20878  4.20878  0.00000 -0.41756
       3     C     2.98418  2.98418  0.00000  0.03164
       4     C     3.08039  3.08039  0.00000 -0.16077
       5     H     0.46915  0.46915  0.00000  0.06170
       6     H     0.45107  0.45107  0.00000  0.09785
       7     C     3.09898  3.09898  0.00000 -0.19795
       8     H     0.45255  0.45255  0.00000  0.09491
       9     H     0.45597  0.45597  0.00000  0.08806
      10     C     3.09185  3.09185  0.00000 -0.18371
      11     H     0.45158  0.45158  0.00000  0.09685
      12     H     0.45752  0.45752  0.00000  0.08496
      13     C     3.09455  3.09455  0.00000 -0.18910
      14     H     0.45094  0.45094  0.00000  0.09811
      15     H     0.45560  0.45560  0.00000  0.08880
      16     C     3.09022  3.09022  0.00000 -0.18044
      17     H     0.45419  0.45419  0.00000  0.09162
      18     H     0.45076  0.45076  0.00000  0.09848
      19     C     3.15233  3.15233  0.00000 -0.30467
      20     H     0.44886  0.44886  0.00000  0.10229
      21     H     0.45511  0.45511  0.00000  0.08978
      22     H     0.45475  0.45475  0.00000  0.09049
      23     H     0.44673  0.44673  0.00000  0.10655
      24     H     0.45352  0.45352  0.00000  0.09295

   Total alpha = 33.00000, Total beta = 33.00000, Total charge = -0.00000

*** Psi4 exiting successfully. Buy a developer a beer!
