  ==> Input File <==

--------------------------------------------------------------------------
set {
	reference rhf
	basis 6-31G*
}

set_num_threads( 4 )
memory 2 gb

molecule MOL {
0 1

H	 2.245016	 -0.539991	 -0.029154
O	 1.397751	 -0.416646	 0.373892
C	 0.702312	 0.627605	 -0.264544
C	 -0.714990	 0.596302	 0.266387
H	 0.689653	 0.479350	 -1.340980
H	 1.162863	 1.589998	 -0.051904
O	 -1.405996	 -0.526611	 -0.195820
H	 -1.257453	 1.468809	 -0.075599
H	 -0.688972	 0.618407	 1.353696
H	 -0.890587	 -1.292708	 0.022039

	symmetry c1
}
set optking {
	frozen_dihedral = ("
		5 3 4 7
	")
}

ee = optimize('scf')
oeprop('DIPOLE', 'QUADRUPOLE', 'MULLIKEN_CHARGES')
f=open( 'psi4out.xyz', 'w' )
f.write( "10  " )
f.write( str(ee) + "\n" )
f.write( MOL.save_string_xyz() )
f.close()
--------------------------------------------------------------------------

    Molecular point group: c1
  Charge       = 0
  Multiplicity = 1
  Basis Set: 6-31G*
  Basis Set:
  @DF-RHF Final Energy:  -228.92492778461693
    Total Energy =                       -228.9249277846168980
    Molecular point group: c1
  Basis Set: 6-31G*
  Basis Set:
  Basis Set: 6-31G*
  Basis Set:
  @DF-RHF Final Energy:  -228.92503419161869
    Total Energy =                       -228.9250341916186926
  Basis Set: 6-31G*
  Basis Set:
  Basis Set: 6-31G*
  Basis Set:
  @DF-RHF Final Energy:  -228.92507738135529
    Total Energy =                       -228.9250773813553792
  Basis Set: 6-31G*
  Basis Set:
  Charge       = 0
  Multiplicity = 1
  Basis Set: 6-31G*
  Basis Set:

    Orbital Energies (a.u.)
    -----------------------

    Doubly Occupied:

       1A    -20.567354     2A    -20.550162     3A    -11.275067
       4A    -11.268068     5A     -1.379932     6A     -1.351745
       7A     -1.001603     8A     -0.843107     9A     -0.727675
      10A     -0.677797    11A     -0.647797    12A     -0.604548
      13A     -0.573500    14A     -0.528914    15A     -0.490086
      16A     -0.454305    17A     -0.433111

  @DF-RHF Final Energy:  -228.92507794771785

   => Energetics <=

    Nuclear Repulsion Energy =            134.2074344371113170
    One-Electron Energy =                -579.5154858946222021
    Two-Electron Energy =                 216.3829735097930609
    DFT Exchange-Correlation Energy =       0.0000000000000000
    Empirical Dispersion Energy =           0.0000000000000000
    PCM Polarization Energy =               0.0000000000000000
    EFP Energy =                            0.0000000000000000
    Total Energy =                       -228.9250779477178241
    Molecular point group: c1
  Basis Set: 6-31G*
  Basis Set:

  -Total Gradient:
     Atom            X                  Y                   Z
    ------   -----------------  -----------------  -----------------
       1       -0.000015453853     0.000014298179    -0.000003614746
       2       -0.000060319775     0.000064881129    -0.000044769555
       3       -0.000455452593     0.004145112195    -0.001081561831
       4        0.001082440465    -0.002448481056     0.002650733258
       5        0.000223939424    -0.003064010806     0.000416915979
       6        0.000010667167     0.000029771342    -0.000007087462
       7       -0.000769930279     0.001245411346    -0.001913473961
       8        0.000004398204     0.000000890261     0.000002822054
       9       -0.000000003862    -0.000004811111    -0.000007364598
      10       -0.000020284897     0.000016938522    -0.000012599139

  **** Optimization is complete! (in 4 steps) ****
    Final optimized geometry and variables:
    Molecular point group: c1

    Geometry (in Angstrom), charge = 0, multiplicity = 1:

    H            2.226320777223    -0.569338539772    -0.082024094926
    O            1.377715655984    -0.453871089689     0.320906472234
    C            0.687585929633     0.608422094237    -0.297084020499
    C           -0.732122207835     0.564363123447     0.224117307195
    H            0.674305930018     0.464512410560    -1.373727584364
    H            1.153240417894     1.563653640526    -0.066012301432
    O           -1.415170500742    -0.561401185573    -0.246589182961
    H           -1.280619191426     1.429534254766    -0.127227969878
    H           -0.714662284454     0.592126364430     1.310809299779
    H           -0.933864247864    -1.331533026897     0.027515494244

  Mulliken Charges: (a.u.)
   Center  Symbol    Alpha    Beta     Spin     Total
       1     H     0.27732  0.27732  0.00000  0.44536
       2     O     4.37739  4.37739  0.00000 -0.75478
       3     C     3.01291  3.01291  0.00000 -0.02582
       4     C     2.99769  2.99769  0.00000  0.00461
       5     H     0.42172  0.42172  0.00000  0.15656
       6     H     0.42803  0.42803  0.00000  0.14395
       7     O     4.37170  4.37170  0.00000 -0.74339
       8     H     0.41679  0.41679  0.00000  0.16642
       9     H     0.42168  0.42168  0.00000  0.15663
      10     H     0.27477  0.27477  0.00000  0.45046

   Total alpha = 17.00000, Total beta = 17.00000, Total charge = -0.00000
