  ==> Input File <==

--------------------------------------------------------------------------
set {
	reference rhf
	basis 6-31G*
}

set_num_threads( 4 )
memory 2 gb

molecule MOL {
0 1

H	 2.332609	 0.878551	 -1.051851
C	 2.357710	 0.000000	 -0.417167
C	 1.175432	 0.000000	 0.532082
H	 3.291263	 0.000000	 0.136880
H	 2.332609	 -0.878551	 -1.051851
O	 0.000000	 0.000000	 -0.221444
H	 1.206604	 0.877321	 1.177902
H	 1.206604	 -0.877321	 1.177902
C	 -1.175432	 0.000000	 0.532082
C	 -1.182739	 -1.232094	 1.415680
H	 -2.043250	 -0.000000	 -0.127190
H	 -1.231434	 0.903358	 1.139170
H	 -1.138364	 -2.130857	 0.811063
H	 -2.085720	 -1.264152	 2.017416
H	 -0.325409	 -1.226232	 2.079198

	symmetry c1
}
set optking {
	frozen_dihedral = ("
		11 9 6 3
	")
}

ee = optimize('scf')
oeprop('DIPOLE', 'QUADRUPOLE', 'MULLIKEN_CHARGES')
f=open( 'psi4out.xyz', 'w' )
f.write( "15  " )
f.write( str(ee) + "\n" )
f.write( MOL.save_string_xyz() )
f.close()
--------------------------------------------------------------------------

    Molecular point group: c1
  Charge       = 0
  Multiplicity = 1
  Basis Set: 6-31G*
  Basis Set:
  @DF-RHF Final Energy:  -232.13486288610653
    Total Energy =                       -232.1348628861065890
    Molecular point group: c1
  Basis Set: 6-31G*
  Basis Set:
  Basis Set: 6-31G*
  Basis Set:
  @DF-RHF Final Energy:  -232.13620161489428
    Total Energy =                       -232.1362016148943326
  Basis Set: 6-31G*
  Basis Set:
  Basis Set: 6-31G*
  Basis Set:
  @DF-RHF Final Energy:  -232.14075689448171
    Total Energy =                       -232.1407568944816262
  Basis Set: 6-31G*
  Basis Set:
  Basis Set: 6-31G*
  Basis Set:
  @DF-RHF Final Energy:  -232.14131827263114
    Total Energy =                       -232.1413182726311106
  Basis Set: 6-31G*
  Basis Set:
  Basis Set: 6-31G*
  Basis Set:
  @DF-RHF Final Energy:  -232.14139363118429
    Total Energy =                       -232.1413936311842008
  Basis Set: 6-31G*
  Basis Set:
  Basis Set: 6-31G*
  Basis Set:
  @DF-RHF Final Energy:  -232.14140182222866
    Total Energy =                       -232.1414018222287154
  Basis Set: 6-31G*
  Basis Set:
  Charge       = 0
  Multiplicity = 1
  Basis Set: 6-31G*
  Basis Set:

    Orbital Energies (a.u.)
    -----------------------

    Doubly Occupied:

       1A    -20.549825     2A    -11.268538     3A    -11.267219
       4A    -11.212687     5A    -11.207963     6A     -1.374314
       7A     -1.040047     8A     -0.987929     9A     -0.866808
      10A     -0.806315    11A     -0.674082    12A     -0.654383
      13A     -0.633495    14A     -0.584911    15A     -0.547080
      16A     -0.540159    17A     -0.524667    18A     -0.503469
      19A     -0.489033    20A     -0.453735    21A     -0.408181

  @DF-RHF Final Energy:  -232.14140233917783

   => Energetics <=

    Nuclear Repulsion Energy =            193.0501984119615599
    One-Electron Energy =                -697.1935238023972943
    Two-Electron Energy =                 272.0019230512580179
    DFT Exchange-Correlation Energy =       0.0000000000000000
    Empirical Dispersion Energy =           0.0000000000000000
    PCM Polarization Energy =               0.0000000000000000
    EFP Energy =                            0.0000000000000000
    Total Energy =                       -232.1414023391777164
    Molecular point group: c1
  Basis Set: 6-31G*
  Basis Set:

  -Total Gradient:
     Atom            X                  Y                   Z
    ------   -----------------  -----------------  -----------------
       1       -0.000000679745    -0.000002046074     0.000001180970
       2       -0.000023591991    -0.000004321179    -0.000007628490
       3       -0.000046425165    -0.001996499383     0.000139494611
       4       -0.000005563245    -0.000001922791     0.000007742916
       5        0.000001496017    -0.000000342826    -0.000003386155
       6       -0.000015168790     0.002465355710    -0.000159776218
       7        0.000006636082    -0.000000785079     0.000000663543
       8        0.000000392930    -0.000004831710    -0.000001924653
       9        0.000070965299     0.001948685458    -0.000106754665
      10       -0.000013307026    -0.000012112729     0.000030082888
      11        0.000006365221    -0.002391847231     0.000106927033
      12        0.000019024428     0.000002152241    -0.000019874506
      13        0.000001751110     0.000010204873    -0.000002815443
      14       -0.000008333078    -0.000006830823     0.000013344944
      15        0.000006437954    -0.000004858459     0.000002723226

  **** Optimization is complete! (in 7 steps) ****
    Final optimized geometry and variables:
    Molecular point group: c1

    Geometry (in Angstrom), charge = 0, multiplicity = 1:

    H            2.022063238768     1.312709797938    -1.388623299194
    C            2.138012314324     0.377058919133    -0.853542979837
    C            1.000464641107     0.184804165431     0.130992113806
    H            3.092627537651     0.388417938182    -0.336302896428
    H            2.148253715133    -0.429393751703    -1.578181908112
    O           -0.198499027319     0.161732483234    -0.587652021743
    H            0.987724105981     0.997448870533     0.857777689744
    H            1.138186460865    -0.741755243697     0.682193988308
    C           -1.379830986024     0.221876390481     0.159151720190
    C           -1.568572098883    -0.933426124432     1.136759034466
    H           -2.179059337822     0.192232064142    -0.570316224108
    H           -1.437998490584     1.172902300002     0.687610838417
    H           -1.457439824370    -1.883654570729     0.624697216639
    H           -2.566486901818    -0.890719901045     1.562922375818
    H           -0.860723906626    -0.902706088422     1.957788284582

  Mulliken Charges: (a.u.)
   Center  Symbol    Alpha    Beta     Spin     Total
       1     H     0.41411  0.41411  0.00000  0.17179
       2     C     3.24304  3.24304  0.00000 -0.48608
       3     C     2.99002  2.99002  0.00000  0.01997
       4     H     0.42319  0.42319  0.00000  0.15361
       5     H     0.41324  0.41324  0.00000  0.17353
       6     O     4.31022  4.31022  0.00000 -0.62044
       7     H     0.43385  0.43385  0.00000  0.13231
       8     H     0.42916  0.42916  0.00000  0.14167
       9     C     2.98792  2.98792  0.00000  0.02415
      10     C     3.25855  3.25855  0.00000 -0.51709
      11     H     0.41506  0.41506  0.00000  0.16987
      12     H     0.43107  0.43107  0.00000  0.13786
      13     H     0.41314  0.41314  0.00000  0.17372
      14     H     0.41884  0.41884  0.00000  0.16231
      15     H     0.41859  0.41859  0.00000  0.16282

   Total alpha = 21.00000, Total beta = 21.00000, Total charge = -0.00000
