  ==> Input File <==

--------------------------------------------------------------------------
set {
	reference rhf
	basis 6-31G*
}

set_num_threads( 1 )
memory 2 gb

molecule MOL {
0 1

O	 2.630767	 -0.132622	 -0.701376
C	 1.705091	 0.115954	 0.001797
C	 0.381791	 -0.609817	 0.001258
O	 1.719700	 1.088147	 0.904994
C	 -0.823008	 0.326187	 0.001381
H	 0.371250	 -1.265087	 -0.865474
H	 0.370908	 -1.265746	 0.867490
C	 -2.149452	 -0.435131	 -0.000098
H	 -0.770201	 0.977095	 -0.865636
H	 -0.771220	 0.975655	 0.869608
C	 -3.368779	 0.488503	 -0.000883
H	 -2.193746	 -1.087250	 -0.871175
H	 -2.195311	 -1.087803	 0.870418
C	 -4.693822	 -0.272754	 -0.001129
H	 -3.325798	 1.139422	 -0.871284
H	 -3.326423	 1.139959	 0.869145
H	 -4.781274	 -0.907928	 -0.878124
H	 -5.538651	 0.408946	 -0.001420
H	 -4.781694	 -0.907783	 0.875984
C	 2.908916	 1.849447	 1.010553
H	 3.742477	 1.216834	 1.279821
H	 2.725773	 2.576925	 1.785865
H	 3.126987	 2.345355	 0.075659

	symmetry c1
}
set optking {
	frozen_dihedral = ("
		15 11 8 12,
		9 5 8 12,
		9 5 3 6,
		1 2 4 20
	")
}

ee = energy('scf')
oeprop('DIPOLE', 'QUADRUPOLE', 'MULLIKEN_CHARGES')
f=open( 'psi4out.xyz', 'w' )
f.write( "23  " )
f.write( str(ee) + "\n" )
f.write( MOL.save_string_xyz() )
f.close()
--------------------------------------------------------------------------

    Molecular point group: c1

    Geometry (in Angstrom), charge = 0, multiplicity = 1:

       Center              X                  Y                   Z               Mass
    ------------   -----------------  -----------------  -----------------  -----------------
           O          2.787327861838    -0.417974063288    -0.844165727613    15.994914619560
           C          1.861651861838    -0.169398063288    -0.140992727613    12.000000000000
           C          0.538351861838    -0.895169063288    -0.141531727613    12.000000000000
           O          1.876260861838     0.802794936712     0.762204272387    15.994914619560
           C         -0.666447138162     0.040834936712    -0.141408727613    12.000000000000
           H          0.527810861838    -1.550439063288    -1.008263727613     1.007825032070
           H          0.527468861838    -1.551098063288     0.724700272387     1.007825032070
           C         -1.992891138162    -0.720483063288    -0.142887727613    12.000000000000
           H         -0.613640138162     0.691742936712    -1.008425727613     1.007825032070
           H         -0.614659138162     0.690302936712     0.726818272387     1.007825032070
           C         -3.212218138162     0.203150936712    -0.143672727613    12.000000000000
           H         -2.037185138162    -1.372602063288    -1.013964727613     1.007825032070
           H         -2.038750138162    -1.373155063288     0.727628272387     1.007825032070
           C         -4.537261138162    -0.558106063288    -0.143918727613    12.000000000000
           H         -3.169237138162     0.854069936712    -1.014073727613     1.007825032070
           H         -3.169862138162     0.854606936712     0.726355272387     1.007825032070
           H         -4.624713138162    -1.193280063288    -1.020913727613     1.007825032070
           H         -5.382090138162     0.123593936712    -0.144209727613     1.007825032070
           H         -4.625133138162    -1.193135063288     0.733194272387     1.007825032070
           C          3.065476861838     1.564094936712     0.867763272387    12.000000000000
           H          3.899037861838     0.931481936712     1.137031272387     1.007825032070
           H          2.882333861838     2.291572936712     1.643075272387     1.007825032070
           H          3.283547861838     2.060002936712    -0.067130727613     1.007825032070

  Charge       = 0
  Multiplicity = 1
  Basis Set: 6-31G*
  Basis Set:

    Orbital Energies (a.u.)
    -----------------------

    Doubly Occupied:

       1A    -20.604511     2A    -20.544011     3A    -11.371579
       4A    -11.281158     5A    -11.234434     6A    -11.225221
       7A    -11.220834     8A    -11.219403     9A    -11.211755
      10A     -1.469432    11A     -1.361876    12A     -1.097231
      13A     -1.046060    14A     -0.983250    15A     -0.934906
      16A     -0.847873    17A     -0.798162    18A     -0.774041
      19A     -0.693919    20A     -0.681710    21A     -0.672412
      22A     -0.652751    23A     -0.608742    24A     -0.591991
      25A     -0.578507    26A     -0.569055    27A     -0.548322
      28A     -0.527379    29A     -0.524254    30A     -0.508669
      31A     -0.487518    32A     -0.478425    33A     -0.470450
      34A     -0.468050    35A     -0.454873    36A     -0.426329

  @DF-RHF Final Energy:  -422.97434632667938

   => Energetics <=

    Nuclear Repulsion Energy =            456.0587742159607956
    One-Electron Energy =               -1479.7279726908352586
    Two-Electron Energy =                 600.6948521481956504
    DFT Exchange-Correlation Energy =       0.0000000000000000
    Empirical Dispersion Energy =           0.0000000000000000
    PCM Polarization Energy =               0.0000000000000000
    EFP Energy =                            0.0000000000000000
    Total Energy =                       -422.9743463266788694

  Mulliken Charges: (a.u.)
   Center  Symbol    Alpha    Beta     Spin     Total
       1     O     4.28672  4.28672  0.00000 -0.57344
       2     C     2.61047  2.61047  0.00000  0.77907
       3     C     3.20278  3.20278  0.00000 -0.40556
       4     O     4.30226  4.30226  0.00000 -0.60451
       5     C     3.16118  3.16118  0.00000 -0.32235
       6     H     0.39898  0.39898  0.00000  0.20203
       7     H     0.40268  0.40268  0.00000  0.19464
       8     C     3.15286  3.15286  0.00000 -0.30571
       9     H     0.41664  0.41664  0.00000  0.16672
      10     H     0.40616  0.40616  0.00000  0.18768
      11     C     3.15201  3.15201  0.00000 -0.30403
      12     H     0.42185  0.42185  0.00000  0.15630
      13     H     0.42245  0.42245  0.00000  0.15511
      14     C     3.23975  3.23975  0.00000 -0.47951
      15     H     0.42181  0.42181  0.00000  0.15637
      16     H     0.42183  0.42183  0.00000  0.15633
      17     H     0.42106  0.42106  0.00000  0.15788
      18     H     0.41834  0.41834  0.00000  0.16331
      19     H     0.42139  0.42139  0.00000  0.15723
      20     C     3.09234  3.09234  0.00000 -0.18469
      21     H     0.40878  0.40878  0.00000  0.18243
      22     H     0.40888  0.40888  0.00000  0.18223
      23     H     0.40877  0.40877  0.00000  0.18246

   Total alpha = 36.00000, Total beta = 36.00000, Total charge =  0.00000
