  ==> Input File <==

--------------------------------------------------------------------------
set {
	reference rhf
	basis cc-pvtz
}

set_num_threads( 4 )
memory 2 gb

molecule MOL {
0 1

H	 -2.698799	 -0.000846	 0.036018
C	 -1.694291	 -0.000483	 0.434279
O	 -0.828718	 -0.000608	 -0.655022
H	 -1.576855	 0.881100	 1.056504
H	 -1.576401	 -0.881658	 1.057001
C	 -0.239308	 1.212456	 -1.053704
C	 -1.264947	 2.229300	 -1.541929
C	 0.687979	 1.790315	 0.009530
H	 0.369656	 0.924765	 -1.901652
H	 -1.929838	 1.775825	 -2.266732
H	 -0.759444	 3.061572	 -2.017888
H	 -1.862155	 2.630660	 -0.731474
H	 1.377486	 1.032442	 0.360603
H	 1.264413	 2.606714	 -0.409983
H	 0.142598	 2.179919	 0.861181

	symmetry c1
}
set optking {
	frozen_dihedral = ("
		6 3 2 1
	")
}

ee = optimize('scf')
oeprop('DIPOLE', 'QUADRUPOLE', 'MULLIKEN_CHARGES')
f=open( 'psi4out.xyz', 'w' )
f.write( "15  " )
f.write( str(ee) + "\n" )
f.write( MOL.save_string_xyz() )
f.close()
--------------------------------------------------------------------------

    Molecular point group: c1
  Charge       = 0
  Multiplicity = 1
  Basis Set: CC-PVTZ
  Basis Set:
  @DF-RHF Final Energy:  -232.22302567470308
    Total Energy =                       -232.2230256747031376
    Molecular point group: c1
  Basis Set: CC-PVTZ
  Basis Set:
  Basis Set: CC-PVTZ
  Basis Set:
  @DF-RHF Final Energy:  -232.22420402877535
    Total Energy =                       -232.2242040287753184
  Basis Set: CC-PVTZ
  Basis Set:
  Basis Set: CC-PVTZ
  Basis Set:
  @DF-RHF Final Energy:  -232.22450938187944
    Total Energy =                       -232.2245093818795567
  Basis Set: CC-PVTZ
  Basis Set:
  Basis Set: CC-PVTZ
  Basis Set:
  @DF-RHF Final Energy:  -232.22456839716304
    Total Energy =                       -232.2245683971627841
  Basis Set: CC-PVTZ
  Basis Set:
  Basis Set: CC-PVTZ
  Basis Set:
  @DF-RHF Final Energy:  -232.22458867247559
    Total Energy =                       -232.2245886724753063
  Basis Set: CC-PVTZ
  Basis Set:
  Basis Set: CC-PVTZ
  Basis Set:
  @DF-RHF Final Energy:  -232.22459292344683
    Total Energy =                       -232.2245929234469486
  Basis Set: CC-PVTZ
  Basis Set:
  Charge       = 0
  Multiplicity = 1
  Basis Set: CC-PVTZ
  Basis Set:

    Orbital Energies (a.u.)
    -----------------------

    Doubly Occupied:

       1A    -20.540106     2A    -11.273051     3A    -11.258889
       4A    -11.209068     5A    -11.208197     6A     -1.371855
       7A     -1.051100     8A     -0.940504     9A     -0.931546
      10A     -0.781690    11A     -0.677116    12A     -0.640758
      13A     -0.633868    14A     -0.571099    15A     -0.563666
      16A     -0.552773    17A     -0.537174    18A     -0.501054
      19A     -0.498165    20A     -0.443990    21A     -0.406652

  @DF-RHF Final Energy:  -232.22459314828035

   => Energetics <=

    Nuclear Repulsion Energy =            198.9538984402559549
    One-Electron Energy =                -709.1723372353360446
    Two-Electron Energy =                 277.9938456467996843
    DFT Exchange-Correlation Energy =       0.0000000000000000
    Empirical Dispersion Energy =           0.0000000000000000
    PCM Polarization Energy =               0.0000000000000000
    EFP Energy =                            0.0000000000000000
    Total Energy =                       -232.2245931482804053
    Molecular point group: c1
  Basis Set: CC-PVTZ
  Basis Set:

  -Total Gradient:
     Atom            X                  Y                   Z
    ------   -----------------  -----------------  -----------------
       1        0.000056234779    -0.001903765814     0.000094861520
       2        0.000490654598     0.002327294965     0.000370055186
       3       -0.001716471566    -0.000221838153    -0.001509071538
       4        0.000013690272     0.000013810571    -0.000005031269
       5        0.000000762297    -0.000000261002     0.000006530416
       6        0.001175019996    -0.000200676131     0.001021214002
       7        0.000003787217    -0.000009323057     0.000014492746
       8       -0.000009387436     0.000001208738    -0.000004708254
       9        0.000002671078     0.000000018920    -0.000002605950
      10        0.000002309523     0.000000937121     0.000002013468
      11        0.000003597670     0.000005917512     0.000002574280
      12       -0.000009577672    -0.000005113909     0.000006044238
      13       -0.000000518838    -0.000003886219    -0.000001009552
      14       -0.000005999483    -0.000007818914     0.000000357807
      15       -0.000006772436     0.000003495369     0.000004282900

  **** Optimization is complete! (in 7 steps) ****
    Final optimized geometry and variables:
    Molecular point group: c1

    Geometry (in Angstrom), charge = 0, multiplicity = 1:

    H           -2.070431511309    -1.070191475131     0.565598385942
    C           -1.058016139954    -1.020298091510     0.954276185249
    O           -0.125350627628    -1.041525204876    -0.082351225218
    H           -0.971638163897    -0.146226413830     1.587465976604
    H           -0.894403682856    -1.895843121197     1.569422200950
    C            0.453632765719     0.167244910882    -0.507002073157
    C           -0.585228202239     1.172236169881    -0.990769259802
    C            1.397602756962     0.753636112248     0.536735220848
    H            1.051482233690    -0.127598780997    -1.360444435429
    H           -1.230570628576     0.718331463354    -1.732886571882
    H           -0.095106683249     2.026758567493    -1.442815251086
    H           -1.203598961709     1.539161083773    -0.179323073838
    H            2.106650410103     0.002501960232     0.861748557439
    H            1.950255326264     1.583576220286     0.111212255452
    H            0.870251732911     1.125418063438     1.407484951923

  Mulliken Charges: (a.u.)
   Center  Symbol    Alpha    Beta     Spin     Total
       1     H     0.46029  0.46029  0.00000  0.07941
       2     C     3.03987  3.03987  0.00000 -0.07975
       3     O     4.18643  4.18643  0.00000 -0.37287
       4     H     0.46935  0.46935  0.00000  0.06129
       5     H     0.44722  0.44722  0.00000  0.10556
       6     C     2.93896  2.93896  0.00000  0.12208
       7     C     3.15619  3.15619  0.00000 -0.31237
       8     C     3.15424  3.15424  0.00000 -0.30848
       9     H     0.44633  0.44633  0.00000  0.10735
      10     H     0.44478  0.44478  0.00000  0.11045
      11     H     0.44935  0.44935  0.00000  0.10129
      12     H     0.45555  0.45555  0.00000  0.08889
      13     H     0.44474  0.44474  0.00000  0.11051
      14     H     0.45106  0.45106  0.00000  0.09789
      15     H     0.45563  0.45563  0.00000  0.08874

   Total alpha = 21.00000, Total beta = 21.00000, Total charge =  0.00000
