                              Psi4 1.0.54 Driver

  ==> Input File <==

--------------------------------------------------------------------------
set {
	reference rhf
	basis cc-pvtz
}

set_num_threads( 4 )
memory 2 gb

molecule MOL {
0 1

H	 0.497191	 1.299808	 -0.989213
O	 0.057669	 1.301365	 -0.158528
C	 0.004145	 -0.005141	 0.363049
C	 1.199168	 -0.827145	 -0.096690
C	 -1.316386	 -0.602081	 -0.083515
H	 0.012026	 0.043363	 1.450619
H	 1.216685	 -0.896776	 -1.178167
H	 2.129940	 -0.372354	 0.228035
H	 1.160783	 -1.829622	 0.314294
H	 -1.357882	 -0.655920	 -1.165207
H	 -2.140147	 0.011735	 0.257253
H	 -1.440790	 -1.601175	 0.317669

	symmetry c1
}
set optking {
	frozen_dihedral = ("
		1 2 3 4
	")
}

ee,wfn = optimize('scf', return_wfn=True)
oeprop( wfn, 'DIPOLE', 'QUADRUPOLE', 'MULLIKEN_CHARGES')
f=open( 'psi4out.xyz', 'w' )
f.write( "12  " )
f.write( str(ee) + "\n" )
f.write( MOL.save_string_xyz() )
f.close()
--------------------------------------------------------------------------

    Molecular point group: c1
  Charge       = 0
  Multiplicity = 1
  Basis Set: CC-PVTZ
  Basis Set:
  @DF-RHF Final Energy:  -193.19330764055033
    Total Energy =                       -193.1933076405502447
    Molecular point group: c1
  Basis Set: CC-PVTZ
  Basis Set:
  Basis Set: CC-PVTZ
  Basis Set:
  @DF-RHF Final Energy:  -193.19193437295968
    Total Energy =                       -193.1919343729595937
  Basis Set: CC-PVTZ
  Basis Set:
  Basis Set: CC-PVTZ
  Basis Set:
  @DF-RHF Final Energy:  -193.19449371025550
    Total Energy =                       -193.1944937102556992
  Basis Set: CC-PVTZ
  Basis Set:
  Basis Set: CC-PVTZ
  Basis Set:
  @DF-RHF Final Energy:  -193.19457881442708
    Total Energy =                       -193.1945788144270750
  Basis Set: CC-PVTZ
  Basis Set:
  Basis Set: CC-PVTZ
  Basis Set:
  @DF-RHF Final Energy:  -193.19458037855222
    Total Energy =                       -193.1945803785523310
  Basis Set: CC-PVTZ
  Basis Set:
  Charge       = 0
  Multiplicity = 1
  Basis Set: CC-PVTZ
  Basis Set:

    Orbital Energies (a.u.)
    -----------------------

    Doubly Occupied:

       1A    -20.542850     2A    -11.274096     3A    -11.216122
       4A    -11.206244     5A     -1.363554     6A     -1.043591
       7A     -0.942497     8A     -0.818557     9A     -0.663445
      10A     -0.650064    11A     -0.606171    12A     -0.568368
      13A     -0.545597    14A     -0.517335    15A     -0.513243
      16A     -0.467217    17A     -0.432523

  @DF-RHF Final Energy:  -193.19458063442806

   => Energetics <=

    Nuclear Repulsion Energy =            135.6151476890018444
    One-Electron Energy =                -530.8765039889652826
    Two-Electron Energy =                 202.0667756655352036
    DFT Exchange-Correlation Energy =       0.0000000000000000
    Empirical Dispersion Energy =           0.0000000000000000
    PCM Polarization Energy =               0.0000000000000000
    EFP Energy =                            0.0000000000000000
    Total Energy =                       -193.1945806344282346
    Molecular point group: c1
  Basis Set: CC-PVTZ
  Basis Set:

  -Total Gradient:
     Atom            X                  Y                   Z
    ------   -----------------  -----------------  -----------------
       1        0.001239754177     0.000204856348     0.000931162459
       2       -0.001684096253    -0.000362014394    -0.001488940265
       3        0.000832470125     0.000466325608     0.001377169219
       4       -0.000397972239    -0.000303503454    -0.000831477172
       5        0.000005455263     0.000018515331    -0.000005311165
       6        0.000008303741    -0.000012494189    -0.000008234409
       7       -0.000007218310     0.000009376717     0.000013380945
       8       -0.000001984302    -0.000002044858     0.000002302960
       9       -0.000002701162    -0.000010367058     0.000002625059
      10       -0.000000194856     0.000000200032     0.000003030698
      11        0.000006336873    -0.000001027687     0.000003110120
      12        0.000001846944    -0.000007822392     0.000001181551

  **** Optimization is complete! (in 6 steps) ****
    Final optimized geometry and variables:
    Molecular point group: c1

    Geometry (in Angstrom), charge = 0, multiplicity = 1:

    H            0.749005891628     1.207937079287    -0.991266297354
    O            0.183695369459     1.300210415867    -0.246549975428
    C           -0.044777354005     0.045650141922     0.353276399548
    C            1.144438508142    -0.882163870716     0.160884895189
    C           -1.338515944604    -0.558895785139    -0.171508625507
    H           -0.161220642079     0.247951879076     1.411755347034
    H            1.294396844436    -1.100310606700    -0.893347763040
    H            2.049313854181    -0.429516214772     0.548713187337
    H            0.988431520492    -1.823808807407     0.673268969846
    H           -1.257055395500    -0.779058757064    -1.231301899756
    H           -2.156711779356     0.136277151962    -0.034187922117
    H           -1.577536041191    -1.479852537642     0.349386774474

  Mulliken Charges: (a.u.)
   Center  Symbol    Alpha    Beta     Spin     Total
       1     H     0.39360  0.39360  0.00000  0.21281
       2     O     4.21041  4.21041  0.00000 -0.42082
       3     C     2.92388  2.92388  0.00000  0.15224
       4     C     3.15480  3.15480  0.00000 -0.30960
       5     C     3.13962  3.13962  0.00000 -0.27924
       6     H     0.45449  0.45449  0.00000  0.09101
       7     H     0.45996  0.45996  0.00000  0.08007
       8     H     0.44443  0.44443  0.00000  0.11114
       9     H     0.45255  0.45255  0.00000  0.09490
      10     H     0.46097  0.46097  0.00000  0.07805
      11     H     0.44625  0.44625  0.00000  0.10750
      12     H     0.45902  0.45902  0.00000  0.08196

   Total alpha = 17.00000, Total beta = 17.00000, Total charge = -0.00000

*** Psi4 exiting successfully. Buy a developer a beer!
