  ==> Input File <==

--------------------------------------------------------------------------
set {
	reference rhf
	basis 6-31G*
}

set_num_threads( 1 )
memory 2 gb

molecule MOL {
0 1

O	 2.862325	 1.357334	 0.000267
C	 2.843464	 0.164689	 -0.000222
C	 1.546494	 -0.624492	 -0.000609
C	 4.124123	 -0.644674	 -0.000428
C	 0.291004	 0.242674	 0.000989
H	 1.557904	 -1.283758	 -0.867573
H	 1.558622	 -1.285963	 0.864672
C	 0.258582	 1.225202	 1.172889
H	 -0.584188	 -0.398559	 0.032440
H	 0.232072	 0.785073	 -0.937349
C	 -0.996675	 2.099217	 1.185472
H	 0.321516	 0.674835	 2.110536
H	 1.139825	 1.864053	 1.136190
C	 -1.036550	 3.084597	 2.354852
H	 -1.878223	 1.461649	 1.222863
H	 -1.060167	 2.650523	 0.248975
C	 -2.293496	 3.953929	 2.360715
H	 -0.974351	 2.534590	 3.291573
H	 -0.156599	 3.723474	 2.317686
H	 -3.190610	 3.345386	 2.431502
H	 -2.293062	 4.641215	 3.201154
H	 -2.366486	 4.543571	 1.451243
H	 4.165367	 -1.288615	 -0.874074
H	 4.976217	 0.020734	 -0.001915
H	 4.166763	 -1.286207	 0.874930

	symmetry c1
}
set optking {
	frozen_dihedral = ("
		9 5 8 12,
		15 11 8 12,
		15 11 14 18,
		1 2 3 6
	")
}

ee = energy('scf')
oeprop('DIPOLE', 'QUADRUPOLE', 'MULLIKEN_CHARGES')
f=open( 'psi4out.xyz', 'w' )
f.write( "25  " )
f.write( str(ee) + "\n" )
f.write( MOL.save_string_xyz() )
f.close()
--------------------------------------------------------------------------

    Molecular point group: c1

    Geometry (in Angstrom), charge = 0, multiplicity = 1:

       Center              X                  Y                   Z               Mass
    ------------   -----------------  -----------------  -----------------  -----------------
           O          2.017145222403     0.135136064104    -0.792115639455    15.994914619560
           C          1.998284222403    -1.057508935896    -0.792604639455    12.000000000000
           C          0.701314222403    -1.846689935896    -0.792991639455    12.000000000000
           C          3.278943222403    -1.866871935896    -0.792810639455    12.000000000000
           C         -0.554175777597    -0.979523935896    -0.791393639455    12.000000000000
           H          0.712724222403    -2.505955935896    -1.659955639455     1.007825032070
           H          0.713442222403    -2.508160935896     0.072289360545     1.007825032070
           C         -0.586597777597     0.003004064104     0.380506360545    12.000000000000
           H         -1.429367777597    -1.620756935896    -0.759942639455     1.007825032070
           H         -0.613107777597    -0.437124935896    -1.729731639455     1.007825032070
           C         -1.841854777597     0.877019064104     0.393089360545    12.000000000000
           H         -0.523663777597    -0.547362935896     1.318153360545     1.007825032070
           H          0.294645222403     0.641855064104     0.343807360545     1.007825032070
           C         -1.881729777597     1.862399064104     1.562469360545    12.000000000000
           H         -2.723402777597     0.239451064104     0.430480360545     1.007825032070
           H         -1.905346777597     1.428325064104    -0.543407639455     1.007825032070
           C         -3.138675777597     2.731731064104     1.568332360545    12.000000000000
           H         -1.819530777597     1.312392064104     2.499190360545     1.007825032070
           H         -1.001778777597     2.501276064104     1.525303360545     1.007825032070
           H         -4.035789777597     2.123188064104     1.639119360545     1.007825032070
           H         -3.138241777597     3.419017064104     2.408771360545     1.007825032070
           H         -3.211665777597     3.321373064104     0.658860360545     1.007825032070
           H          3.320187222403    -2.510812935896    -1.666456639455     1.007825032070
           H          4.131037222403    -1.201463935896    -0.794297639455     1.007825032070
           H          3.321583222403    -2.508404935896     0.082547360545     1.007825032070

  Charge       = 0
  Multiplicity = 1
  Basis Set: 6-31G*
  Basis Set:

    Orbital Energies (a.u.)
    -----------------------

    Doubly Occupied:

       1A    -20.552246     2A    -11.329046     3A    -11.232870
       4A    -11.229874     5A    -11.216984     6A    -11.207794
       7A    -11.204745     8A    -11.202716     9A    -11.199651
      10A     -1.400012    11A     -1.087607    12A     -1.053024
      13A     -1.013643    14A     -0.964296    15A     -0.886180
      16A     -0.812969    17A     -0.783258    18A     -0.729805
      19A     -0.670316    20A     -0.637972    21A     -0.629804
      22A     -0.622018    23A     -0.589912    24A     -0.583248
      25A     -0.569768    26A     -0.553046    27A     -0.531921
      28A     -0.523630    29A     -0.512848    30A     -0.504205
      31A     -0.479744    32A     -0.472034    33A     -0.455704
      34A     -0.453683    35A     -0.435839    36A     -0.395944

  @DF-RHF Final Energy:  -387.13119964757090

   => Energetics <=

    Nuclear Repulsion Energy =            452.5104482168343907
    One-Electron Energy =               -1421.8266805755513360
    Two-Electron Energy =                 582.1850327111484376
    DFT Exchange-Correlation Energy =       0.0000000000000000
    Empirical Dispersion Energy =           0.0000000000000000
    PCM Polarization Energy =               0.0000000000000000
    EFP Energy =                            0.0000000000000000
    Total Energy =                       -387.1311996475684509

  Mulliken Charges: (a.u.)
   Center  Symbol    Alpha    Beta     Spin     Total
       1     O     4.26186  4.26186  0.00000 -0.52371
       2     C     2.73570  2.73570  0.00000  0.52860
       3     C     3.21209  3.21209  0.00000 -0.42419
       4     C     3.28663  3.28663  0.00000 -0.57326
       5     C     3.14940  3.14940  0.00000 -0.29880
       6     H     0.40709  0.40709  0.00000  0.18582
       7     H     0.40921  0.40921  0.00000  0.18157
       8     C     3.16498  3.16498  0.00000 -0.32996
       9     H     0.41995  0.41995  0.00000  0.16010
      10     H     0.41510  0.41510  0.00000  0.16980
      11     C     3.15000  3.15000  0.00000 -0.30000
      12     H     0.43158  0.43158  0.00000  0.13684
      13     H     0.38999  0.38999  0.00000  0.22001
      14     C     3.15126  3.15126  0.00000 -0.30253
      15     H     0.42856  0.42856  0.00000  0.14287
      16     H     0.42358  0.42358  0.00000  0.15283
      17     C     3.23900  3.23900  0.00000 -0.47800
      18     H     0.42491  0.42491  0.00000  0.15018
      19     H     0.42084  0.42084  0.00000  0.15831
      20     H     0.42315  0.42315  0.00000  0.15370
      21     H     0.42045  0.42045  0.00000  0.15911
      22     H     0.42191  0.42191  0.00000  0.15618
      23     H     0.40823  0.40823  0.00000  0.18354
      24     H     0.39638  0.39638  0.00000  0.20724
      25     H     0.40813  0.40813  0.00000  0.18374

   Total alpha = 36.00000, Total beta = 36.00000, Total charge =  0.00000
