  ==> Input File <==

--------------------------------------------------------------------------
set {
	reference rhf
	basis 6-31G*
}

set_num_threads( 4 )
memory 2 gb

molecule MOL {
0 1

H	 1.948703	 -1.807183	 2.741472
O	 1.759917	 -1.683838	 1.816323
C	 0.975921	 -0.612993	 1.693623
C	 0.624473	 -0.343591	 0.253101
O	 0.622114	 0.021498	 2.633441
C	 -0.265902	 0.883932	 0.072916
H	 1.559674	 -0.252756	 -0.289597
H	 0.142691	 -1.238258	 -0.133174
C	 -1.728698	 0.646073	 0.462102
H	 -0.209144	 1.219470	 -0.958188
H	 0.135059	 1.692851	 0.673903
C	 -2.482460	 -0.343073	 -0.431425
H	 -2.245265	 1.602650	 0.432430
H	 -1.779332	 0.308348	 1.496285
C	 -3.960546	 -0.461025	 -0.060175
H	 -2.395034	 -0.026811	 -1.468912
H	 -2.024850	 -1.327147	 -0.371646
H	 -4.472726	 -1.168004	 -0.705284
H	 -4.465146	 0.496508	 -0.151489
H	 -4.081218	 -0.800940	 0.964585

	symmetry c1
}
set optking {
	frozen_dihedral = ("
		7 4 6 10
	")
}

ee = optimize('scf')
oeprop('DIPOLE', 'QUADRUPOLE', 'MULLIKEN_CHARGES')
f=open( 'psi4out.xyz', 'w' )
f.write( "20  " )
f.write( str(ee) + "\n" )
f.write( MOL.save_string_xyz() )
f.close()
--------------------------------------------------------------------------

    Molecular point group: c1
  Charge       = 0
  Multiplicity = 1
  Basis Set: 6-31G*
  Basis Set:
  @DF-RHF Final Energy:  -383.94742180780747
    Total Energy =                       -383.9474218078070180
    Molecular point group: c1
  Basis Set: 6-31G*
  Basis Set:
  Basis Set: 6-31G*
  Basis Set:
  @DF-RHF Final Energy:  -383.94751105789953
    Total Energy =                       -383.9475110578998738
  Basis Set: 6-31G*
  Basis Set:
  Basis Set: 6-31G*
  Basis Set:
  @DF-RHF Final Energy:  -383.94756400516434
    Total Energy =                       -383.9475640051647360
  Basis Set: 6-31G*
  Basis Set:
  Basis Set: 6-31G*
  Basis Set:
  @DF-RHF Final Energy:  -383.94766727457608
    Total Energy =                       -383.9476672745759060
  Basis Set: 6-31G*
  Basis Set:
  @DF-RHF Final Energy:  -383.94785147158274
    Total Energy =                       -383.9478514715826805
  Basis Set: 6-31G*
  Basis Set:
  @DF-RHF Final Energy:  -383.94788483803745
    Total Energy =                       -383.9478848380374529
  Basis Set: 6-31G*
  Basis Set:
  Basis Set: 6-31G*
  Basis Set:
  @DF-RHF Final Energy:  -383.94789247909517
    Total Energy =                       -383.9478924790948895
  Basis Set: 6-31G*
  Basis Set:
  Basis Set: 6-31G*
  Basis Set:
  @DF-RHF Final Energy:  -383.94789570891885
    Total Energy =                       -383.9478957089186224
  Basis Set: 6-31G*
  Basis Set:
  Charge       = 0
  Multiplicity = 1
  Basis Set: 6-31G*
  Basis Set:

    Orbital Energies (a.u.)
    -----------------------

    Doubly Occupied:

       1A    -20.613503     2A    -20.552565     3A    -11.382045
       4A    -11.240249     5A    -11.223111     6A    -11.217677
       7A    -11.214628     8A    -11.209777     9A     -1.475614
      10A     -1.366453    11A     -1.093619    12A     -1.039046
      13A     -0.958453    14A     -0.870303    15A     -0.815446
      16A     -0.773894    17A     -0.701854    18A     -0.689014
      19A     -0.662422    20A     -0.633198    21A     -0.601162
      22A     -0.592772    23A     -0.574060    24A     -0.556363
      25A     -0.534145    26A     -0.511161    27A     -0.500438
      28A     -0.481986    29A     -0.466762    30A     -0.463545
      31A     -0.453215    32A     -0.442778

  @DF-RHF Final Energy:  -383.94789649017599

   => Energetics <=

    Nuclear Repulsion Energy =            383.5975808066708055
    One-Electron Energy =               -1283.2684422765378258
    Two-Electron Energy =                 515.7229649796913691
    DFT Exchange-Correlation Energy =       0.0000000000000000
    Empirical Dispersion Energy =           0.0000000000000000
    PCM Polarization Energy =               0.0000000000000000
    EFP Energy =                            0.0000000000000000
    Total Energy =                       -383.9478964901757081
    Molecular point group: c1
  Basis Set: 6-31G*
  Basis Set:

  -Total Gradient:
     Atom            X                  Y                   Z
    ------   -----------------  -----------------  -----------------
       1       -0.000009228631     0.000013793112    -0.000007972956
       2       -0.000000374117    -0.000023942587    -0.000027942307
       3        0.000028656360     0.000020118675     0.000014178587
       4        0.001103238610     0.001151450732     0.001744158781
       5       -0.000021998366     0.000013481469    -0.000013077338
       6       -0.001688964257    -0.001402069139    -0.000754440501
       7       -0.000685777911    -0.000737903171    -0.001302103021
       8       -0.000008721117    -0.000025852509    -0.000012914035
       9       -0.000006441033     0.000013965283    -0.000031956731
      10        0.001226009073     0.000986750516     0.000366638168
      11        0.000004712250     0.000006787734     0.000003161490
      12        0.000018792257    -0.000027511386     0.000006468414
      13        0.000014302244     0.000017186208     0.000001545243
      14        0.000008117546    -0.000021180107    -0.000014380947
      15       -0.000006828647     0.000010235350     0.000005736024
      16        0.000016030026     0.000012861283     0.000023906048
      17        0.000017283800    -0.000011972567    -0.000003813461
      18        0.000006708585     0.000001781947     0.000000229401
      19       -0.000011391555     0.000002119612    -0.000000704752
      20       -0.000004125121    -0.000000100453     0.000003283883

  **** Optimization is complete! (in 9 steps) ****
    Final optimized geometry and variables:
    Molecular point group: c1

    Geometry (in Angstrom), charge = 0, multiplicity = 1:

    H            2.463666202984    -1.551247662979     1.937131366535
    O            2.235810510628    -1.460661415329     1.016972810708
    C            1.544112433733    -0.331197279045     0.871518180563
    C            1.163067823527    -0.095620742292    -0.568175302317
    O            1.294391413461     0.378035586080     1.791639842055
    C            0.244586254725     1.110108731390    -0.775466008125
    H            2.089374249333     0.025022477208    -1.123718510247
    H            0.726012344111    -1.014081967129    -0.944691650558
    C           -1.220602343156     0.884450136796    -0.384959071762
    H            0.304162518081     1.410797307861    -1.818353417608
    H            0.638196439620     1.938285330017    -0.197065308679
    C           -1.991244024178    -0.062259116489    -1.309554755502
    H           -1.721818248392     1.849605065590    -0.385524331968
    H           -1.269277981122     0.521883648870     0.638278807131
    C           -3.459488372672    -0.206274507297    -0.908930522406
    H           -1.930954614888     0.306519078396    -2.331577656653
    H           -1.530042494056    -1.046757269589    -1.313489796387
    H           -3.986003030534    -0.879016264463    -1.578800230369
    H           -3.968571244690     0.752926100817    -0.935230121116
    H           -3.553348811791    -0.601316121833     0.098574974738

  Mulliken Charges: (a.u.)
   Center  Symbol    Alpha    Beta     Spin     Total
       1     H     0.26780  0.26780  0.00000  0.46441
       2     O     4.35056  4.35056  0.00000 -0.70112
       3     C     2.62371  2.62371  0.00000  0.75258
       4     C     3.21370  3.21370  0.00000 -0.42739
       5     O     4.28009  4.28009  0.00000 -0.56018
       6     C     3.15868  3.15868  0.00000 -0.31736
       7     H     0.39558  0.39558  0.00000  0.20885
       8     H     0.39703  0.39703  0.00000  0.20594
       9     C     3.15727  3.15727  0.00000 -0.31453
      10     H     0.41858  0.41858  0.00000  0.16283
      11     H     0.40398  0.40398  0.00000  0.19204
      12     C     3.15406  3.15406  0.00000 -0.30813
      13     H     0.41940  0.41940  0.00000  0.16120
      14     H     0.41188  0.41188  0.00000  0.17624
      15     C     3.23897  3.23897  0.00000 -0.47794
      16     H     0.42341  0.42341  0.00000  0.15319
      17     H     0.42464  0.42464  0.00000  0.15072
      18     H     0.41931  0.41931  0.00000  0.16139
      19     H     0.42090  0.42090  0.00000  0.15819
      20     H     0.42047  0.42047  0.00000  0.15907

   Total alpha = 32.00000, Total beta = 32.00000, Total charge = -0.00000
