  ==> Input File <==

--------------------------------------------------------------------------
set {
	reference rhf
	basis 6-31G*
}

set_num_threads( 1 )
memory 2 gb

molecule MOL {
0 1

H	 -0.207343	 -0.483377	 -2.035835
C	 -0.601317	 -1.070158	 -1.208422
O	 -1.392607	 -0.295399	 -0.366433
H	 -1.223687	 -1.860477	 -1.604898
H	 0.235497	 -1.516864	 -0.673048
C	 -0.719715	 0.768384	 0.229244
C	 0.719720	 0.768376	 -0.229267
H	 -1.185038	 1.714362	 -0.050570
H	 -0.750528	 0.687237	 1.313896
O	 1.392611	 -0.295398	 0.366430
H	 0.750534	 0.687200	 -1.313918
H	 1.185043	 1.714359	 0.050526
C	 2.706965	 -0.449871	 -0.062409
H	 2.756559	 -0.644779	 -1.131878
H	 3.305899	 0.433456	 0.155466
H	 3.125548	 -1.294566	 0.467107

	symmetry c1
}
set optking {
	frozen_dihedral = ("
		3 6 7 11,
		7 10 13 14
	")
}

ee = energy('scf')
oeprop('DIPOLE', 'QUADRUPOLE', 'MULLIKEN_CHARGES')
f=open( 'psi4out.xyz', 'w' )
f.write( "16  " )
f.write( str(ee) + "\n" )
f.write( MOL.save_string_xyz() )
f.close()
--------------------------------------------------------------------------

    Molecular point group: c1

    Geometry (in Angstrom), charge = 0, multiplicity = 1:

       Center              X                  Y                   Z               Mass
    ------------   -----------------  -----------------  -----------------  -----------------
           H         -0.577317863305    -0.374383518325    -1.812546245514     1.007825032070
           C         -0.971291863305    -0.961164518325    -0.985133245514    12.000000000000
           O         -1.762581863305    -0.186405518325    -0.143144245514    15.994914619560
           H         -1.593661863305    -1.751483518325    -1.381609245514     1.007825032070
           H         -0.134477863305    -1.407870518325    -0.449759245514     1.007825032070
           C         -1.089689863305     0.877377481675     0.452532754486    12.000000000000
           C          0.349745136695     0.877369481675    -0.005978245514    12.000000000000
           H         -1.555012863305     1.823355481675     0.172718754486     1.007825032070
           H         -1.120502863305     0.796230481675     1.537184754486     1.007825032070
           O          1.022636136695    -0.186404518325     0.589718754486    15.994914619560
           H          0.380559136695     0.796193481675    -1.090629245514     1.007825032070
           H          0.815068136695     1.823352481675     0.273814754486     1.007825032070
           C          2.336990136695    -0.340877518325     0.160879754486    12.000000000000
           H          2.386584136695    -0.535785518325    -0.908589245514     1.007825032070
           H          2.935924136695     0.542449481675     0.378754754486     1.007825032070
           H          2.755573136695    -1.185572518325     0.690395754486     1.007825032070

  Charge       = 0
  Multiplicity = 1
  Basis Set: 6-31G*
  Basis Set:

    Orbital Energies (a.u.)
    -----------------------

    Doubly Occupied:

       1A    -20.567186     2A    -20.546359     3A    -11.275345
       4A    -11.273415     5A    -11.267898     6A    -11.247079
       7A     -1.402736     8A     -1.369916     9A     -1.028019
      10A     -0.954249    11A     -0.904012    12A     -0.809538
      13A     -0.712664    14A     -0.691800    15A     -0.658049
      16A     -0.635579    17A     -0.617890    18A     -0.592111
      19A     -0.557012    20A     -0.542404    21A     -0.521439
      22A     -0.498933    23A     -0.447236    24A     -0.428973
      25A     -0.394126

  @DF-RHF Final Energy:  -306.94664562860311

   => Energetics <=

    Nuclear Repulsion Energy =            272.9602013586899716
    One-Electron Energy =                -959.9257331248645642
    Two-Electron Energy =                 380.0188861375714851
    DFT Exchange-Correlation Energy =       0.0000000000000000
    Empirical Dispersion Energy =           0.0000000000000000
    PCM Polarization Energy =               0.0000000000000000
    EFP Energy =                            0.0000000000000000
    Total Energy =                       -306.9466456286030507

  Mulliken Charges: (a.u.)
   Center  Symbol    Alpha    Beta     Spin     Total
       1     H     0.43509  0.43509  0.00000  0.12983
       2     C     3.10003  3.10003  0.00000 -0.20006
       3     O     4.31027  4.31027  0.00000 -0.62053
       4     H     0.41255  0.41255  0.00000  0.17489
       5     H     0.39865  0.39865  0.00000  0.20270
       6     C     2.97298  2.97298  0.00000  0.05404
       7     C     3.03987  3.03987  0.00000 -0.07974
       8     H     0.42521  0.42521  0.00000  0.14957
       9     H     0.41624  0.41624  0.00000  0.16753
      10     O     4.30170  4.30170  0.00000 -0.60340
      11     H     0.42044  0.42044  0.00000  0.15912
      12     H     0.41990  0.41990  0.00000  0.16020
      13     C     3.08327  3.08327  0.00000 -0.16655
      14     H     0.42936  0.42936  0.00000  0.14128
      15     H     0.42568  0.42568  0.00000  0.14865
      16     H     0.40876  0.40876  0.00000  0.18248

   Total alpha = 25.00000, Total beta = 25.00000, Total charge = -0.00000
