  ==> Input File <==

--------------------------------------------------------------------------
set {
	reference rhf
	basis 6-31G*
}

set_num_threads( 4 )
memory 2 gb

molecule MOL {
0 1

H	 2.591676	 2.013956	 0.335017
O	 3.341076	 1.666752	 -0.126416
C	 3.569581	 0.339145	 0.272707
C	 3.847065	 0.199498	 1.765433
H	 2.669478	 -0.204463	 0.015844
H	 4.385547	 -0.096663	 -0.302663
C	 5.129679	 0.895199	 2.227783
H	 2.997418	 0.599076	 2.312977
H	 3.905997	 -0.861711	 2.001504
C	 5.408339	 0.691023	 3.719587
H	 5.056216	 1.957976	 2.014537
H	 5.974438	 0.517291	 1.651668
C	 6.726283	 1.295841	 4.217141
H	 4.582776	 1.102409	 4.297560
H	 5.419982	 -0.377045	 3.926460
C	 6.789971	 2.825110	 4.175217
H	 6.885904	 0.970257	 5.242973
H	 7.551733	 0.884394	 3.638193
C	 8.079995	 3.384776	 4.778582
H	 5.935911	 3.234858	 4.712618
H	 6.701265	 3.175436	 3.149690
C	 8.148965	 4.910802	 4.732174
H	 8.169178	 3.051066	 5.810169
H	 8.934792	 2.968930	 4.249169
H	 7.324649	 5.357381	 5.281076
H	 9.073278	 5.276636	 5.168576
H	 8.099472	 5.275014	 3.709792

	symmetry c1
}
set optking {
	frozen_dihedral = ("
		4 3 2 1
	")
}

ee = optimize('scf')
oeprop('DIPOLE', 'QUADRUPOLE', 'MULLIKEN_CHARGES')
f=open( 'psi4out.xyz', 'w' )
f.write( "27  " )
f.write( str(ee) + "\n" )
f.write( MOL.save_string_xyz() )
f.close()
--------------------------------------------------------------------------

    Molecular point group: c1
  Charge       = 0
  Multiplicity = 1
  Basis Set: 6-31G*
  Basis Set:
  @DF-RHF Final Energy:  -388.28032951973262
    Total Energy =                       -388.2803295197325042
    Molecular point group: c1
  Basis Set: 6-31G*
  Basis Set:
  Basis Set: 6-31G*
  Basis Set:
  @DF-RHF Final Energy:  -388.28181502901145
    Total Energy =                       -388.2818150290113408
  Basis Set: 6-31G*
  Basis Set:
  Basis Set: 6-31G*
  Basis Set:
  @DF-RHF Final Energy:  -388.28228359600149
    Total Energy =                       -388.2822835960014345
  Basis Set: 6-31G*
  Basis Set:
  Charge       = 0
  Multiplicity = 1
  Basis Set: 6-31G*
  Basis Set:

    Orbital Energies (a.u.)
    -----------------------

    Doubly Occupied:

       1A    -20.553584     2A    -11.267589     3A    -11.218254
       4A    -11.213496     5A    -11.212873     6A    -11.212027
       7A    -11.211377     8A    -11.210336     9A    -11.206508
      10A     -1.360272    11A     -1.091474    12A     -1.058909
      13A     -1.009621    14A     -0.944991    15A     -0.883898
      16A     -0.821212    17A     -0.801205    18A     -0.775283
      19A     -0.677998    20A     -0.651188    21A     -0.640470
      22A     -0.614353    23A     -0.604470    24A     -0.584566
      25A     -0.570061    26A     -0.558069    27A     -0.536236
      28A     -0.518925    29A     -0.512581    30A     -0.488240
      31A     -0.477920    32A     -0.473199    33A     -0.465337
      34A     -0.457145    35A     -0.453150    36A     -0.440887
      37A     -0.420016

  @DF-RHF Final Energy:  -388.28228389819435

   => Energetics <=

    Nuclear Repulsion Energy =            459.8591840855515329
    One-Electron Energy =               -1437.8874974726697928
    Two-Electron Energy =                 589.7460294889243642
    DFT Exchange-Correlation Energy =       0.0000000000000000
    Empirical Dispersion Energy =           0.0000000000000000
    PCM Polarization Energy =               0.0000000000000000
    EFP Energy =                            0.0000000000000000
    Total Energy =                       -388.2822838981938958
    Molecular point group: c1
  Basis Set: 6-31G*
  Basis Set:

  -Total Gradient:
     Atom            X                  Y                   Z
    ------   -----------------  -----------------  -----------------
       1        0.000286771506     0.000154669792     0.000440974802
       2       -0.000292823568    -0.000393433288    -0.000456552004
       3        0.000463029791    -0.000010268070     0.000132952118
       4       -0.000113705419    -0.000111469993    -0.000048555744
       5       -0.000101420496     0.000010073715    -0.000047582374
       6       -0.000038269581     0.000149186388     0.000004787284
       7       -0.000132091385     0.000191079677     0.000097362480
       8        0.000002619820     0.000010040031    -0.000057025483
       9       -0.000069237190    -0.000035476496    -0.000007593195
      10        0.000037952884    -0.000011363334    -0.000055390203
      11       -0.000127501306    -0.000031767505    -0.000024215004
      12       -0.000000720733     0.000031395128     0.000043757770
      13        0.000065894299    -0.000053339368    -0.000054684928
      14        0.000017232577     0.000079631914    -0.000041741859
      15       -0.000087099916    -0.000014364236    -0.000005892073
      16        0.000005724359     0.000014487535    -0.000008467268
      17        0.000020478232    -0.000015248529    -0.000002347051
      18        0.000028160420     0.000017287839    -0.000004741983
      19        0.000000854049    -0.000011211991     0.000013023346
      20       -0.000005310413     0.000012760708     0.000002346417
      21        0.000040445543     0.000018921556     0.000079510903
      22       -0.000003829375    -0.000002160662    -0.000004211334
      23        0.000003917179     0.000000144324     0.000000615961
      24       -0.000000129011     0.000000491094    -0.000000884880
      25       -0.000000188328     0.000002003183     0.000001061505
      26        0.000000995069    -0.000000942233     0.000001446833
      27       -0.000001749008    -0.000001127176     0.000002045966

  **** Optimization is complete! (in 4 steps) ****
    Final optimized geometry and variables:
    Molecular point group: c1

    Geometry (in Angstrom), charge = 0, multiplicity = 1:

    H           -2.999707077968     0.231648602452    -2.407245387627
    O           -2.263827954463    -0.113329163626    -2.894231376587
    C           -2.064923940002    -1.458640795469    -2.542327411321
    C           -1.771763007884    -1.652568269340    -1.058956114257
    H           -2.928155282759    -2.056522516217    -2.830415938181
    H           -1.225447379325    -1.795430534897    -3.137652711907
    C           -0.508977877146    -0.930490591674    -0.585905111484
    H           -2.629885619349    -1.308531972505    -0.480419260788
    H           -1.684890030111    -2.719979220255    -0.863962975028
    C           -0.243979735608    -1.120844357711     0.909897033257
    H           -0.597273995676     0.123149370973    -0.825225274296
    H            0.344036161992    -1.302924466201    -1.151380469333
    C            1.076403056008    -0.521506391130     1.408028531068
    H           -1.068418985320    -0.694390818996     1.479711940868
    H           -0.243370820385    -2.186297033979     1.132144701565
    C            1.150242581829     1.006740300280     1.351468003066
    H            1.230938878181    -0.838844179363     2.437386366701
    H            1.900471241540    -0.943475834997     0.834911506197
    C            2.445181367669     1.563364366319     1.947048742546
    H            0.300247596386     1.426966458996     1.887723338414
    H            1.061062859711     1.347311031112     0.323111101299
    C            2.522453446458     3.088618892364     1.889354296338
    H            2.536282364258     1.236508895238     2.980788207157
    H            3.295808610794     1.139297663775     1.417513927250
    H            1.702975052926     3.543707749939     2.438681050070
    H            3.450654136511     3.452577502279     2.319194108845
    H            2.470311404007     3.445407791065     0.864591449431

  Mulliken Charges: (a.u.)
   Center  Symbol    Alpha    Beta     Spin     Total
       1     H     0.28352  0.28352  0.00000  0.43296
       2     O     4.36851  4.36851  0.00000 -0.73703
       3     C     2.99434  2.99434  0.00000  0.01131
       4     C     3.17103  3.17103  0.00000 -0.34205
       5     H     0.42817  0.42817  0.00000  0.14366
       6     H     0.41644  0.41644  0.00000  0.16711
       7     C     3.15399  3.15399  0.00000 -0.30798
       8     H     0.42820  0.42820  0.00000  0.14360
       9     H     0.42174  0.42174  0.00000  0.15652
      10     C     3.15300  3.15300  0.00000 -0.30600
      11     H     0.41039  0.41039  0.00000  0.17922
      12     H     0.42379  0.42379  0.00000  0.15243
      13     C     3.15291  3.15291  0.00000 -0.30581
      14     H     0.42520  0.42520  0.00000  0.14961
      15     H     0.42330  0.42330  0.00000  0.15341
      16     C     3.15306  3.15306  0.00000 -0.30612
      17     H     0.42255  0.42255  0.00000  0.15491
      18     H     0.42377  0.42377  0.00000  0.15245
      19     C     3.15110  3.15110  0.00000 -0.30221
      20     H     0.42553  0.42553  0.00000  0.14893
      21     H     0.42009  0.42009  0.00000  0.15982
      22     C     3.23917  3.23917  0.00000 -0.47834
      23     H     0.42373  0.42373  0.00000  0.15253
      24     H     0.42306  0.42306  0.00000  0.15388
      25     H     0.42231  0.42231  0.00000  0.15538
      26     H     0.41979  0.41979  0.00000  0.16042
      27     H     0.42132  0.42132  0.00000  0.15736

   Total alpha = 37.00000, Total beta = 37.00000, Total charge = -0.00000
