                              Psi4 1.0.54 Driver

  ==> Input File <==

--------------------------------------------------------------------------
set {
	reference rhf
	basis cc-pvtz
}

set_num_threads( 4 )
memory 2 gb

molecule MOL {
0 1

H	 -3.200572	 0.694503	 1.840928
O	 -2.352571	 0.973894	 1.549599
C	 -2.021813	 0.336996	 0.342658
C	 -0.669613	 0.837286	 -0.127252
H	 -1.981719	 -0.740113	 0.483910
H	 -2.776327	 0.542185	 -0.414302
C	 0.490865	 -0.082543	 0.241244
H	 -0.708709	 0.967192	 -1.204587
H	 -0.507562	 1.822272	 0.303070
C	 1.839800	 0.429565	 -0.255472
H	 0.305636	 -1.070211	 -0.165276
H	 0.527397	 -0.195943	 1.322876
C	 3.001144	 -0.485193	 0.119072
H	 1.804373	 0.541073	 -1.335756
H	 2.020437	 1.423114	 0.146921
H	 2.866892	 -1.477297	 -0.298806
H	 3.943543	 -0.095749	 -0.249061
H	 3.085064	 -0.590459	 1.195790

	symmetry c1
}
set optking {
	frozen_dihedral = ("
		2 3 4 8
	")
}

ee,wfn = optimize('scf', return_wfn=True)
oeprop( wfn, 'DIPOLE', 'QUADRUPOLE', 'MULLIKEN_CHARGES')
f=open( 'psi4out.xyz', 'w' )
f.write( "18  " )
f.write( str(ee) + "\n" )
f.write( MOL.save_string_xyz() )
f.close()
--------------------------------------------------------------------------

    Molecular point group: c1
  Charge       = 0
  Multiplicity = 1
  Basis Set: CC-PVTZ
  Basis Set:
  @DF-RHF Final Energy:  -271.28290638348500
    Total Energy =                       -271.2829063834848284
    Molecular point group: c1
  Basis Set: CC-PVTZ
  Basis Set:
  Basis Set: CC-PVTZ
  Basis Set:
  @DF-RHF Final Energy:  -271.28329132810813
    Total Energy =                       -271.2832913281081346
  Basis Set: CC-PVTZ
  Basis Set:
  Basis Set: CC-PVTZ
  Basis Set:
  @DF-RHF Final Energy:  -271.28339041771676
    Total Energy =                       -271.2833904177166460
  Basis Set: CC-PVTZ
  Basis Set:
  Basis Set: CC-PVTZ
  Basis Set:
  @DF-RHF Final Energy:  -271.28339833191944
    Total Energy =                       -271.2833983319194431
  Basis Set: CC-PVTZ
  Basis Set:
  Charge       = 0
  Multiplicity = 1
  Basis Set: CC-PVTZ
  Basis Set:

    Orbital Energies (a.u.)
    -----------------------

    Doubly Occupied:

       1A    -20.545575     2A    -11.265580     3A    -11.210961
       4A    -11.209697     5A    -11.209061     6A    -11.204652
       7A     -1.362708     8A     -1.078199     9A     -1.009837
      10A     -0.914446    11A     -0.820320    12A     -0.789093
      13A     -0.706696    14A     -0.639026    15A     -0.632089
      16A     -0.580782    17A     -0.572828    18A     -0.560604
      19A     -0.527606    20A     -0.498780    21A     -0.488950
      22A     -0.470881    23A     -0.461879    24A     -0.454542
      25A     -0.428103

  @DF-RHF Final Energy:  -271.28339885119260

   => Energetics <=

    Nuclear Repulsion Energy =            247.4522387359515960
    One-Electron Energy =                -858.1854784926381399
    Two-Electron Energy =                 339.4498409054939430
    DFT Exchange-Correlation Energy =       0.0000000000000000
    Empirical Dispersion Energy =           0.0000000000000000
    PCM Polarization Energy =               0.0000000000000000
    EFP Energy =                            0.0000000000000000
    Total Energy =                       -271.2833988511926009
    Molecular point group: c1
  Basis Set: CC-PVTZ
  Basis Set:

  -Total Gradient:
     Atom            X                  Y                   Z
    ------   -----------------  -----------------  -----------------
       1        0.000075691749     0.000050580605    -0.000006879493
       2       -0.001712635651     0.002534683470    -0.001753543186
       3        0.001778603970    -0.002343030499     0.002389249783
       4        0.001166074050    -0.004733346475    -0.001233709104
       5       -0.000010639843     0.000014928179     0.000007702410
       6       -0.000013926398     0.000007424052     0.000031170660
       7       -0.000024482908     0.000039484992    -0.000010959252
       8       -0.001285422729     0.004376794692     0.000552790637
       9        0.000021124879     0.000018368972     0.000007817487
      10        0.000013235035     0.000009024532     0.000039010049
      11       -0.000019742647     0.000022374830     0.000014319253
      12       -0.000005173245     0.000013615725    -0.000011733670
      13        0.000012032356    -0.000006764645    -0.000037092149
      14        0.000003548211     0.000000539566     0.000011611875
      15        0.000004930425    -0.000001565848     0.000006143177
      16        0.000000513223    -0.000006524254     0.000007839864
      17        0.000001906462    -0.000009842462    -0.000008106386
      18       -0.000005636931     0.000013254567    -0.000005631952

  **** Optimization is complete! (in 5 steps) ****
    Final optimized geometry and variables:
    Molecular point group: c1

    Geometry (in Angstrom), charge = 0, multiplicity = 1:

    H           -3.090840906113     0.328605891652     1.596274699140
    O           -2.302061224942     0.664270464149     1.212217943433
    C           -2.033932931122     0.000380644395     0.002049649565
    C           -0.678454134660     0.465292556988    -0.521227701033
    H           -2.037519734593    -1.076930098849     0.147457186740
    H           -2.811014972599     0.234347829558    -0.720400084034
    C            0.485375627448    -0.437848025728    -0.128453576965
    H           -0.726853769714     0.590393335961    -1.598625843408
    H           -0.514922404231     1.461246208574    -0.122939539919
    C            1.842334479926     0.095953055066    -0.576513403116
    H            0.332842297658    -1.428023744131    -0.552075515369
    H            0.485208787328    -0.562159118114     0.951147071592
    C            3.002123265353    -0.816596091997    -0.192095688032
    H            1.835541358763     0.234721666251    -1.654489709376
    H            1.999521865751     1.080108163337    -0.144223142686
    H            2.891268327591    -1.799795569568    -0.637533533971
    H            3.950065468096    -0.408812479111    -0.524018990041
    H            3.056601120988    -0.946892817589     0.883584577094

  Mulliken Charges: (a.u.)
   Center  Symbol    Alpha    Beta     Spin     Total
       1     H     0.39516  0.39516  0.00000  0.20967
       2     O     4.19962  4.19962  0.00000 -0.39923
       3     C     2.96802  2.96802  0.00000  0.06397
       4     C     3.09092  3.09092  0.00000 -0.18184
       5     H     0.47559  0.47559  0.00000  0.04882
       6     H     0.46917  0.46917  0.00000  0.06166
       7     C     3.08978  3.08978  0.00000 -0.17957
       8     H     0.45195  0.45195  0.00000  0.09611
       9     H     0.44917  0.44917  0.00000  0.10165
      10     C     3.08496  3.08496  0.00000 -0.16993
      11     H     0.45786  0.45786  0.00000  0.08427
      12     H     0.44980  0.44980  0.00000  0.10039
      13     C     3.14988  3.14988  0.00000 -0.29976
      14     H     0.45580  0.45580  0.00000  0.08841
      15     H     0.45284  0.45284  0.00000  0.09432
      16     H     0.45601  0.45601  0.00000  0.08798
      17     H     0.44875  0.44875  0.00000  0.10250
      18     H     0.45470  0.45470  0.00000  0.09060

   Total alpha = 25.00000, Total beta = 25.00000, Total charge = -0.00000

*** Psi4 exiting successfully. Buy a developer a beer!
