  ==> Input File <==

--------------------------------------------------------------------------
set {
	reference rhf
	basis cc-pvtz
}

set_num_threads( 4 )
memory 2 gb

molecule MOL {
0 1

H	 -0.925999	 2.310268	 0.777449
C	 -0.795425	 1.301327	 0.447412
C	 -1.902502	 0.495240	 0.030571
C	 0.419707	 0.748889	 0.411360
H	 -2.892895	 0.909948	 0.047798
C	 -1.711464	 -0.763157	 -0.377495
H	 1.297086	 1.288781	 0.707776
N	 0.640204	 -0.530428	 -0.000115
H	 -2.515141	 -1.394534	 -0.695975
C	 -0.385191	 -1.362137	 -0.415631
C	 2.006991	 -1.033007	 -0.000020
O	 -0.173325	 -2.488077	 -0.775652
H	 2.182444	 -1.636914	 -0.880881
H	 2.678769	 -0.195442	 -0.002236
H	 2.183828	 -1.633244	 0.883082

	symmetry c1
}
set optking {
	frozen_dihedral = ("
		10 8 11 13
	")
}

ee = optimize('scf')
oeprop('DIPOLE', 'QUADRUPOLE', 'MULLIKEN_CHARGES')
f=open( 'psi4out.xyz', 'w' )
f.write( "15  " )
f.write( str(ee) + "\n" )
f.write( MOL.save_string_xyz() )
f.close()
--------------------------------------------------------------------------

    Molecular point group: c1
  Charge       = 0
  Multiplicity = 1
  Basis Set: CC-PVTZ
  Basis Set:
  @DF-RHF Final Energy:  -360.72281057604710
    Total Energy =                       -360.7228105760468679
    Molecular point group: c1
  Basis Set: CC-PVTZ
  Basis Set:
  Basis Set: CC-PVTZ
  Basis Set:
  @DF-RHF Final Energy:  -360.72324853381195
    Total Energy =                       -360.7232485338117272
  Basis Set: CC-PVTZ
  Basis Set:
  Basis Set: CC-PVTZ
  Basis Set:
  @DF-RHF Final Energy:  -360.72328730279770
    Total Energy =                       -360.7232873027977007
  Basis Set: CC-PVTZ
  Basis Set:
  Basis Set: CC-PVTZ
  Basis Set:
  @DF-RHF Final Energy:  -360.72329662888200
    Total Energy =                       -360.7232966288817124
  Basis Set: CC-PVTZ
  Basis Set:
  Basis Set: CC-PVTZ
  Basis Set:
  @DF-RHF Final Energy:  -360.72330171181517
    Total Energy =                       -360.7233017118153384
  Basis Set: CC-PVTZ
  Basis Set:
  Charge       = 0
  Multiplicity = 1
  Basis Set: CC-PVTZ
  Basis Set:

    Orbital Energies (a.u.)
    -----------------------

    Doubly Occupied:

       1A    -20.501969     2A    -15.617597     3A    -11.338034
       4A    -11.294325     5A    -11.265463     6A    -11.258157
       7A    -11.229699     8A    -11.227868     9A     -1.391181
      10A     -1.285908    11A     -1.118820    12A     -1.029228
      13A     -0.972583    14A     -0.876420    15A     -0.838940
      16A     -0.719556    17A     -0.702272    18A     -0.663923
      19A     -0.653024    20A     -0.626074    21A     -0.611941
      22A     -0.575548    23A     -0.553260    24A     -0.550876
      25A     -0.530965    26A     -0.484424    27A     -0.420610
      28A     -0.410484    29A     -0.310200

  @DF-RHF Final Energy:  -360.72330218197067

   => Energetics <=

    Nuclear Repulsion Energy =            358.7884363789232793
    One-Electron Energy =               -1200.9047801544575123
    Two-Electron Energy =                 481.3930415935632823
    DFT Exchange-Correlation Energy =       0.0000000000000000
    Empirical Dispersion Energy =           0.0000000000000000
    PCM Polarization Energy =               0.0000000000000000
    EFP Energy =                            0.0000000000000000
    Total Energy =                       -360.7233021819709506
    Molecular point group: c1
  Basis Set: CC-PVTZ
  Basis Set:

  -Total Gradient:
     Atom            X                  Y                   Z
    ------   -----------------  -----------------  -----------------
       1       -0.000003817798    -0.000000187514     0.000007348971
       2        0.000054836298    -0.000015812959     0.000010662303
       3       -0.000026264951    -0.000036536136    -0.000016789944
       4       -0.000031627172     0.000075952989    -0.000018158034
       5        0.000005279088     0.000007837587     0.000002948919
       6       -0.000036623995     0.000023534255     0.000015652308
       7        0.000005879535    -0.000008662331     0.000008603137
       8       -0.000218575911    -0.000588046031     0.001097337972
       9        0.000008714486    -0.000004943289    -0.000006715175
      10        0.000164604590     0.000287657941    -0.000693158490
      11        0.000392629170     0.001032420731    -0.000868782696
      12       -0.000015213930    -0.000028703948    -0.000005009715
      13       -0.000293638684    -0.000735174116     0.000453838250
      14       -0.000018337358    -0.000002217428     0.000003878544
      15        0.000012156631    -0.000007119749     0.000008343650

  **** Optimization is complete! (in 6 steps) ****
    Final optimized geometry and variables:
    Molecular point group: c1

    Geometry (in Angstrom), charge = 0, multiplicity = 1:

    H           -0.765334023404     2.810539046994     0.875468191369
    C           -0.625503635524     1.803481879302     0.543541339627
    C           -1.723868996025     0.991217571797     0.118941679475
    C            0.596762044915     1.263633224350     0.507548382757
    H           -2.716896276165     1.399801133360     0.132170788470
    C           -1.523379534407    -0.265509008654    -0.292662916371
    H            1.466670436826     1.812646810403     0.806584281675
    N            0.825805613139    -0.010409183115     0.089979654097
    H           -2.321330315444    -0.901870958081    -0.615873896424
    C           -0.193536541157    -0.852627478163    -0.315757801055
    C            2.178866038734    -0.545530562406     0.082429867081
    O            0.042733130021    -1.981104090383    -0.652423415177
    H            2.317486883711    -1.155286093056    -0.793859251363
    H            2.883314978619     0.272238411622     0.078148351945
    H            2.351525021617    -1.164753315059     0.953105241916

  Mulliken Charges: (a.u.)
   Center  Symbol    Alpha    Beta     Spin     Total
       1     H     0.41392  0.41392  0.00000  0.17215
       2     C     3.10592  3.10592  0.00000 -0.21185
       3     C     3.06013  3.06013  0.00000 -0.12025
       4     C     3.03643  3.03643  0.00000 -0.07287
       5     H     0.41843  0.41843  0.00000  0.16314
       6     C     3.11837  3.11837  0.00000 -0.23674
       7     H     0.42036  0.42036  0.00000  0.15927
       8     N     3.50938  3.50938  0.00000 -0.01876
       9     H     0.40921  0.40921  0.00000  0.18158
      10     C     2.84532  2.84532  0.00000  0.30935
      11     C     3.09497  3.09497  0.00000 -0.18993
      12     O     4.23600  4.23600  0.00000 -0.47199
      13     H     0.43144  0.43144  0.00000  0.13711
      14     H     0.45510  0.45510  0.00000  0.08981
      15     H     0.44501  0.44501  0.00000  0.10998

   Total alpha = 29.00000, Total beta = 29.00000, Total charge =  0.00000
