                              Psi4 1.0.54 Driver

  ==> Input File <==

--------------------------------------------------------------------------
set {
	reference rhf
	basis cc-pvtz
}

set_num_threads( 4 )
memory 2 gb

molecule MOL {
0 1

H	 1.898698	 -1.004957	 1.084190
C	 1.948180	 -0.217873	 0.320185
C	 0.692262	 0.592428	 0.156232
O	 2.939606	 -0.061755	 -0.304583
C	 -0.554654	 -0.292621	 0.086567
H	 0.791858	 1.203694	 -0.731051
H	 0.617379	 1.254358	 1.016534
C	 -1.846385	 0.513195	 -0.016346
H	 -0.473986	 -0.956115	 -0.769708
H	 -0.597929	 -0.929215	 0.966651
C	 -3.089953	 -0.365049	 -0.098564
H	 -1.798267	 1.154820	 -0.891143
H	 -1.925398	 1.173265	 0.842889
H	 -3.055079	 -1.012299	 -0.968245
H	 -3.988403	 0.236438	 -0.170014
H	 -3.183055	 -0.995885	 0.779079

	symmetry c1
}
set optking {
	frozen_dihedral = ("
		4 2 3 6
	")
}

ee,wfn = optimize('scf', return_wfn=True)
oeprop( wfn, 'DIPOLE', 'QUADRUPOLE', 'MULLIKEN_CHARGES')
f=open( 'psi4out.xyz', 'w' )
f.write( "16  " )
f.write( str(ee) + "\n" )
f.write( MOL.save_string_xyz() )
f.close()
--------------------------------------------------------------------------

    Molecular point group: c1
  Charge       = 0
  Multiplicity = 1
  Basis Set: CC-PVTZ
  Basis Set:
  @DF-RHF Final Energy:  -270.11909152062515
    Total Energy =                       -270.1190915206252043
    Molecular point group: c1
  Basis Set: CC-PVTZ
  Basis Set:
  Basis Set: CC-PVTZ
  Basis Set:
  @DF-RHF Final Energy:  -270.11868449547126
    Total Energy =                       -270.1186844954711432
  Basis Set: CC-PVTZ
  Basis Set:
  Basis Set: CC-PVTZ
  Basis Set:
  @DF-RHF Final Energy:  -270.11911078740070
    Total Energy =                       -270.1191107874005297
  Basis Set: CC-PVTZ
  Basis Set:
  Basis Set: CC-PVTZ
  Basis Set:
  @DF-RHF Final Energy:  -270.11912119825604
    Total Energy =                       -270.1191211982562663
  Basis Set: CC-PVTZ
  Basis Set:
  Basis Set: CC-PVTZ
  Basis Set:
  @DF-RHF Final Energy:  -270.11912206809984
    Total Energy =                       -270.1191220680999550
  Basis Set: CC-PVTZ
  Basis Set:
  Basis Set: CC-PVTZ
  Basis Set:
  @DF-RHF Final Energy:  -270.11912347780850
    Total Energy =                       -270.1191234778086141
  Basis Set: CC-PVTZ
  Basis Set:
  Charge       = 0
  Multiplicity = 1
  Basis Set: CC-PVTZ
  Basis Set:

    Orbital Energies (a.u.)
    -----------------------

    Doubly Occupied:

       1A    -20.551937     2A    -11.321534     3A    -11.234524
       4A    -11.233857     5A    -11.227591     6A    -11.216855
       7A     -1.406878     8A     -1.098161     9A     -1.020270
      10A     -0.906679    11A     -0.812516    12A     -0.795132
      13A     -0.678782    14A     -0.650795    15A     -0.634589
      16A     -0.604510    17A     -0.585105    18A     -0.550676
      19A     -0.531860    20A     -0.507676    21A     -0.489005
      22A     -0.484242    23A     -0.479945    24A     -0.411714

  @DF-RHF Final Energy:  -270.11912348607137

   => Energetics <=

    Nuclear Repulsion Energy =            229.0617181605952624
    One-Electron Energy =                -819.4920228078256059
    Two-Electron Energy =                 320.3111811611590269
    DFT Exchange-Correlation Energy =       0.0000000000000000
    Empirical Dispersion Energy =           0.0000000000000000
    PCM Polarization Energy =               0.0000000000000000
    EFP Energy =                            0.0000000000000000
    Total Energy =                       -270.1191234860712598
    Molecular point group: c1
  Basis Set: CC-PVTZ
  Basis Set:

  -Total Gradient:
     Atom            X                  Y                   Z
    ------   -----------------  -----------------  -----------------
       1       -0.000000921616    -0.000008671442     0.000005905217
       2       -0.000363292957    -0.000726835341    -0.000763534121
       3        0.000404518321     0.000773109091     0.000641540826
       4        0.000214627730     0.000433275626     0.000469798772
       5       -0.000003299663    -0.000000309730    -0.000000723401
       6       -0.000253543209    -0.000468294389    -0.000355226656
       7        0.000000355786    -0.000002531533    -0.000001510911
       8        0.000000236822    -0.000000492590     0.000009414759
       9       -0.000000500766    -0.000001790146     0.000000181440
      10        0.000001129925     0.000002527243    -0.000000935005
      11        0.000000485719     0.000000024819    -0.000006687254
      12       -0.000000568783    -0.000000450734     0.000002243702
      13       -0.000000487366     0.000000056837     0.000001007106
      14       -0.000000870451    -0.000002203275     0.000000464643
      15        0.000001253185    -0.000000342851    -0.000001897582
      16        0.000000877327     0.000002928416    -0.000000041537

  **** Optimization is complete! (in 7 steps) ****
    Final optimized geometry and variables:
    Molecular point group: c1

    Geometry (in Angstrom), charge = 0, multiplicity = 1:

    H            1.906386565678    -1.023224162857     1.067587589365
    C            1.942141336977    -0.240845986288     0.298004866175
    C            0.678592192631     0.560341046406     0.139044561023
    O            2.931933697745    -0.069460688756    -0.325212175666
    C           -0.569830206193    -0.319974951360     0.069031742397
    H            0.776349302010     1.178792642088    -0.743594356962
    H            0.610467760160     1.219292380094     1.002588984861
    C           -1.859368584285     0.488838126929    -0.036852960712
    H           -0.491867709905    -0.986132264434    -0.785920937050
    H           -0.616064778785    -0.955064457121     0.949972920750
    C           -3.105477926196    -0.385852167928    -0.118166317170
    H           -1.809026857294     1.128684765127    -0.912864320615
    H           -1.937196041634     1.151107204419     0.820853093022
    H           -3.071528241176    -1.035713743647    -0.985980343321
    H           -4.002058598097     0.218053099611    -0.192459318271
    H           -3.201554513624    -1.013926114184     0.761136114711

  Mulliken Charges: (a.u.)
   Center  Symbol    Alpha    Beta     Spin     Total
       1     H     0.46582  0.46582  0.00000  0.06837
       2     C     2.90937  2.90937  0.00000  0.18127
       3     C     3.07745  3.07745  0.00000 -0.15491
       4     O     4.16357  4.16357  0.00000 -0.32714
       5     C     3.10235  3.10235  0.00000 -0.20469
       6     H     0.44171  0.44171  0.00000  0.11659
       7     H     0.44857  0.44857  0.00000  0.10286
       8     C     3.08468  3.08468  0.00000 -0.16935
       9     H     0.44702  0.44702  0.00000  0.10597
      10     H     0.45216  0.45216  0.00000  0.09569
      11     C     3.14900  3.14900  0.00000 -0.29799
      12     H     0.45067  0.45067  0.00000  0.09865
      13     H     0.45315  0.45315  0.00000  0.09370
      14     H     0.45342  0.45342  0.00000  0.09317
      15     H     0.44656  0.44656  0.00000  0.10688
      16     H     0.45452  0.45452  0.00000  0.09095

   Total alpha = 24.00000, Total beta = 24.00000, Total charge = -0.00000

*** Psi4 exiting successfully. Buy a developer a beer!
