  ==> Input File <==

--------------------------------------------------------------------------
set {
	reference rhf
	basis cc-pvtz
}

set_num_threads( 4 )
memory 2 gb

molecule MOL {
0 1

H	 -3.436473	 1.252944	 -1.023892
O	 -3.458596	 0.315260	 -0.960865
C	 -3.176635	 -0.080824	 0.355601
C	 -1.763371	 0.265266	 0.799691
H	 -3.321825	 -1.153438	 0.379502
H	 -3.895468	 0.357385	 1.043382
C	 -0.673390	 -0.426948	 -0.013392
H	 -1.631049	 1.344913	 0.747560
H	 -1.664587	 -0.001624	 1.849167
C	 0.737842	 -0.043159	 0.423759
H	 -0.806103	 -0.190518	 -1.063345
H	 -0.797221	 -1.503753	 0.074146
C	 1.824000	 -0.743224	 -0.390623
H	 0.850588	 1.033777	 0.343840
H	 0.868587	 -0.286314	 1.476203
C	 3.255957	 -0.453067	 0.062319
H	 1.718250	 -0.470599	 -1.438164
H	 1.658105	 -1.815850	 -0.339904
C	 3.366188	 0.321449	 1.373470
H	 3.754279	 0.113533	 -0.718331
H	 3.800723	 -1.389489	 0.150434
H	 2.825366	 1.260815	 1.317079
H	 4.401556	 0.550760	 1.598575
H	 2.968425	 -0.239160	 2.210791

	symmetry c1
}
set optking {
	frozen_dihedral = ("
		20 16 13 17
	")
}

ee = optimize('scf')
oeprop('DIPOLE', 'QUADRUPOLE', 'MULLIKEN_CHARGES')
f=open( 'psi4out.xyz', 'w' )
f.write( "24  " )
f.write( str(ee) + "\n" )
f.write( MOL.save_string_xyz() )
f.close()
--------------------------------------------------------------------------

    Molecular point group: c1
  Charge       = 0
  Multiplicity = 1
  Basis Set: CC-PVTZ
  Basis Set:
  @DF-RHF Final Energy:  -349.37044265769401
    Total Energy =                       -349.3704426576942410
    Molecular point group: c1
  Basis Set: CC-PVTZ
  Basis Set:
  Basis Set: CC-PVTZ
  Basis Set:
  @DF-RHF Final Energy:  -349.37109473194084
    Total Energy =                       -349.3710947319406159
  Basis Set: CC-PVTZ
  Basis Set:
  Basis Set: CC-PVTZ
  Basis Set:
  @DF-RHF Final Energy:  -349.37255736597439
    Total Energy =                       -349.3725573659746146
  Basis Set: CC-PVTZ
  Basis Set:
  Basis Set: CC-PVTZ
  Basis Set:
  @DF-RHF Final Energy:  -349.37265722942851
    Total Energy =                       -349.3726572294286825
  Basis Set: CC-PVTZ
  Basis Set:
  Basis Set: CC-PVTZ
  Basis Set:
  @DF-RHF Final Energy:  -349.37267034426469
    Total Energy =                       -349.3726703442648045
  Basis Set: CC-PVTZ
  Basis Set:
  Basis Set: CC-PVTZ
  Basis Set:
  @DF-RHF Final Energy:  -349.37267234156229
    Total Energy =                       -349.3726723415620654
  Basis Set: CC-PVTZ
  Basis Set:
  Charge       = 0
  Multiplicity = 1
  Basis Set: CC-PVTZ
  Basis Set:

    Orbital Energies (a.u.)
    -----------------------

    Doubly Occupied:

       1A    -20.546179     2A    -11.265383     3A    -11.214967
       4A    -11.212178     5A    -11.210031     6A    -11.209453
       7A    -11.208573     8A    -11.205588     9A     -1.364020
      10A     -1.087905    11A     -1.046677    12A     -0.986230
      13A     -0.916190    14A     -0.854863    15A     -0.802759
      16A     -0.768819    17A     -0.681677    18A     -0.657743
      19A     -0.629123    20A     -0.618576    21A     -0.591980
      22A     -0.587618    23A     -0.554031    24A     -0.546046
      25A     -0.517379    26A     -0.508393    27A     -0.503261
      28A     -0.471916    29A     -0.469727    30A     -0.460106
      31A     -0.452337    32A     -0.444795    33A     -0.420950

  @DF-RHF Final Energy:  -349.37267237576515

   => Energetics <=

    Nuclear Repulsion Energy =            385.4289999530797672
    One-Electron Energy =               -1237.5723992158395959
    Two-Electron Energy =                 502.7707268869953623
    DFT Exchange-Correlation Energy =       0.0000000000000000
    Empirical Dispersion Energy =           0.0000000000000000
    PCM Polarization Energy =               0.0000000000000000
    EFP Energy =                            0.0000000000000000
    Total Energy =                       -349.3726723757645232
    Molecular point group: c1
  Basis Set: CC-PVTZ
  Basis Set:

  -Total Gradient:
     Atom            X                  Y                   Z
    ------   -----------------  -----------------  -----------------
       1       -0.000000365900     0.000000311166    -0.000000081115
       2        0.000000543560     0.000000170241     0.000001952625
       3        0.000001854858    -0.000003104808    -0.000002245586
       4        0.000008426529    -0.000003091723     0.000003918874
       5       -0.000000122750    -0.000000081354    -0.000000623544
       6        0.000001413463     0.000000132095     0.000000263012
       7       -0.000000658661    -0.000007864007     0.000001608189
       8        0.000000659196    -0.000000792379    -0.000001316288
       9       -0.000001999210     0.000001974000     0.000001588021
      10       -0.000006997349     0.000022441472    -0.000002056732
      11        0.000000881485     0.000001685154    -0.000003055321
      12       -0.000005855521    -0.000002772368    -0.000001183618
      13        0.001716377734    -0.005423127960    -0.001748557130
      14       -0.000014291875    -0.000001039935    -0.000008513080
      15        0.000013023324     0.000001426403     0.000009265527
      16       -0.001820352460     0.005142045612     0.002416319151
      17       -0.001148437387     0.003781372362     0.001115459261
      18        0.000006649967    -0.000003219285    -0.000010776367
      19       -0.000008967497     0.000021470279     0.000000958388
      20        0.001260275239    -0.003503317232    -0.001774156277
      21       -0.000007920608    -0.000007627671    -0.000003945061
      22        0.000019473551    -0.000003378554     0.000003060793
      23       -0.000001539280    -0.000007702300    -0.000000906543
      24       -0.000012070411    -0.000005909207     0.000003022821

  **** Optimization is complete! (in 7 steps) ****
    Final optimized geometry and variables:
    Molecular point group: c1

    Geometry (in Angstrom), charge = 0, multiplicity = 1:

    H           -3.395709200385     1.327113860838    -1.269330976996
    O           -3.416580836365     0.389464537989    -1.205666885814
    C           -3.164422318952    -0.003937505400     0.117572033321
    C           -1.762937367400     0.346947004896     0.594169890050
    H           -3.307016558982    -1.076956315369     0.139235481337
    H           -3.900608316296     0.432894981440     0.787665368095
    C           -0.652107055761    -0.342203921741    -0.193018930830
    H           -1.632955747709     1.427005425787     0.544376249011
    H           -1.687925312540     0.081143863816     1.645858242498
    C            0.747277108580     0.045902168990     0.277883102794
    H           -0.761819814880    -0.107413369900    -1.245956723193
    H           -0.774834402893    -1.419423753904    -0.107313333649
    C            1.844835392521    -0.663202617393    -0.518637723721
    H            0.864414572704     1.122429713115     0.186285120187
    H            0.842266373793    -0.182451532743     1.334881142755
    C            3.309862654011    -0.320992077067    -0.144836962654
    H            1.688169079560    -0.405332630557    -1.560910799931
    H            1.690415447968    -1.733597477190    -0.434769696073
    C            3.549135915389     0.400209901615     1.179482948166
    H            3.758779362895     0.248150960287    -0.952028267122
    H            3.874891584015    -1.247717622163    -0.122514164940
    H            3.067740934523     1.369820307470     1.211823339080
    H            4.611576486701     0.558279683111     1.326191473630
    H            3.187226993953    -0.177765195782     2.022241676001

  Mulliken Charges: (a.u.)
   Center  Symbol    Alpha    Beta     Spin     Total
       1     H     0.39534  0.39534  0.00000  0.20933
       2     O     4.20376  4.20376  0.00000 -0.40753
       3     C     2.97770  2.97770  0.00000  0.04460
       4     C     3.10185  3.10185  0.00000 -0.20371
       5     H     0.45879  0.45879  0.00000  0.08242
       6     H     0.46033  0.46033  0.00000  0.07934
       7     C     3.08860  3.08860  0.00000 -0.17720
       8     H     0.45931  0.45931  0.00000  0.08139
       9     H     0.45348  0.45348  0.00000  0.09304
      10     C     3.08980  3.08980  0.00000 -0.17960
      11     H     0.44638  0.44638  0.00000  0.10724
      12     H     0.45567  0.45567  0.00000  0.08866
      13     C     3.09841  3.09841  0.00000 -0.19682
      14     H     0.45429  0.45429  0.00000  0.09141
      15     H     0.45353  0.45353  0.00000  0.09295
      16     C     3.08777  3.08777  0.00000 -0.17553
      17     H     0.45137  0.45137  0.00000  0.09725
      18     H     0.45138  0.45138  0.00000  0.09725
      19     C     3.15707  3.15707  0.00000 -0.31415
      20     H     0.45185  0.45185  0.00000  0.09630
      21     H     0.45225  0.45225  0.00000  0.09549
      22     H     0.45303  0.45303  0.00000  0.09393
      23     H     0.44461  0.44461  0.00000  0.11079
      24     H     0.45342  0.45342  0.00000  0.09315

   Total alpha = 33.00000, Total beta = 33.00000, Total charge = -0.00000
