  ==> Input File <==

--------------------------------------------------------------------------
set {
	reference rhf
	basis cc-pvtz
}

set_num_threads( 4 )
memory 2 gb

molecule MOL {
0 1

H	 -3.902701	 -1.538685	 0.923238
C	 -2.835947	 -1.425405	 0.960384
C	 -2.170000	 -1.553521	 2.166097
C	 -2.131675	 -1.151914	 -0.196848
H	 -2.717307	 -1.765808	 3.063922
C	 -0.799211	 -1.407823	 2.213033
H	 -2.649055	 -1.052748	 -1.131383
C	 -0.759059	 -1.005747	 -0.151475
H	 -0.267761	 -1.503789	 3.137917
C	 -0.088698	 -1.133445	 1.054684
H	 -0.210649	 -0.793917	 -1.045849
C	 1.391222	 -0.985042	 1.158282
O	 1.968286	 -0.725612	 -0.000027
O	 1.994833	 -1.088043	 2.173281
C	 3.373556	 -0.568203	 0.000011
H	 3.695416	 -0.031588	 -0.879663
H	 3.782700	 -1.565294	 -0.000152
H	 3.695405	 -0.031851	 0.879862

	symmetry c1
}
set optking {
	frozen_dihedral = ("
		12 13 15 16
	")
}

ee = optimize('scf')
oeprop('DIPOLE', 'QUADRUPOLE', 'MULLIKEN_CHARGES')
f=open( 'psi4out.xyz', 'w' )
f.write( "18  " )
f.write( str(ee) + "\n" )
f.write( MOL.save_string_xyz() )
f.close()
--------------------------------------------------------------------------

    Molecular point group: c1
  Charge       = 0
  Multiplicity = 1
  Basis Set: CC-PVTZ
  Basis Set:
  @DF-RHF Final Energy:  -457.50822417955044
    Total Energy =                       -457.5082241795503251
    Molecular point group: c1
  Basis Set: CC-PVTZ
  Basis Set:
  Basis Set: CC-PVTZ
  Basis Set:
  @DF-RHF Final Energy:  -457.50931809801921
    Total Energy =                       -457.5093180980193210
  Basis Set: CC-PVTZ
  Basis Set:
  Basis Set: CC-PVTZ
  Basis Set:
  @DF-RHF Final Energy:  -457.50842745726175
    Total Energy =                       -457.5084274572611776
  Basis Set: CC-PVTZ
  Basis Set:
  Basis Set: CC-PVTZ
  Basis Set:
  @DF-RHF Final Energy:  -457.50961813407372
    Total Energy =                       -457.5096181340738895
  Basis Set: CC-PVTZ
  Basis Set:
  Basis Set: CC-PVTZ
  Basis Set:
  @DF-RHF Final Energy:  -457.50963675127196
    Total Energy =                       -457.5096367512718416
  Basis Set: CC-PVTZ
  Basis Set:
  Charge       = 0
  Multiplicity = 1
  Basis Set: CC-PVTZ
  Basis Set:

    Orbital Energies (a.u.)
    -----------------------

    Doubly Occupied:

       1A    -20.600730     2A    -20.534271     3A    -11.372142
       4A    -11.280987     5A    -11.244852     6A    -11.243411
       7A    -11.242568     8A    -11.239933     9A    -11.235965
      10A    -11.235205    11A     -1.476282    12A     -1.368686
      13A     -1.170673    14A     -1.051776    15A     -1.028954
      16A     -0.980886    17A     -0.863128    18A     -0.838361
      19A     -0.781109    20A     -0.745001    21A     -0.688003
      22A     -0.681278    23A     -0.676279    24A     -0.634103
      25A     -0.629982    26A     -0.601213    27A     -0.587671
      28A     -0.566814    29A     -0.530077    30A     -0.520209
      31A     -0.509643    32A     -0.502041    33A     -0.463570
      34A     -0.449372    35A     -0.350147    36A     -0.346152

  @DF-RHF Final Energy:  -457.50963763450011

   => Energetics <=

    Nuclear Repulsion Energy =            493.9126714473107995
    One-Electron Energy =               -1602.3016734973220991
    Two-Electron Energy =                 650.8793644155105085
    DFT Exchange-Correlation Energy =       0.0000000000000000
    Empirical Dispersion Energy =           0.0000000000000000
    PCM Polarization Energy =               0.0000000000000000
    EFP Energy =                            0.0000000000000000
    Total Energy =                       -457.5096376345006774
    Molecular point group: c1
  Basis Set: CC-PVTZ
  Basis Set:

  -Total Gradient:
     Atom            X                  Y                   Z
    ------   -----------------  -----------------  -----------------
       1        0.000001082791    -0.000000291388    -0.000000414174
       2       -0.000000612049    -0.000004662336     0.000015643068
       3       -0.000008110537     0.000005258998    -0.000002384365
       4        0.000023364199     0.000003094504    -0.000006706379
       5        0.000003628402     0.000001417628     0.000002095820
       6        0.000024091966    -0.000003436970    -0.000006500415
       7        0.000004836879     0.000001169504    -0.000000777737
       8        0.000014094391    -0.000008466078     0.000003935832
       9        0.000002047143    -0.000000799843     0.000008432811
      10        0.000019180969     0.000017745072     0.000018123299
      11        0.000013191858     0.000006988869    -0.000013645623
      12       -0.000166400730     0.001340365192     0.000220902677
      13        0.000137127573    -0.001712846521    -0.000169778679
      14       -0.000087771093    -0.000032217118     0.000091078889
      15        0.000177525658    -0.000943917476    -0.000889034299
      16       -0.000107694266     0.001357869523     0.000722026296
      17       -0.000045996638     0.000010218189     0.000020384608
      18       -0.000003586507    -0.000037489751    -0.000013381627

  **** Optimization is complete! (in 6 steps) ****
    Final optimized geometry and variables:
    Molecular point group: c1

    Geometry (in Angstrom), charge = 0, multiplicity = 1:

    H           -4.027230348638    -0.420488711578    -0.015601266333
    C           -2.959659666696    -0.316098648040     0.025003682728
    C           -2.298514353050    -0.451495574414     1.232656664910
    C           -2.249392042585    -0.046928624370    -1.129541181339
    H           -2.850341015558    -0.660569734967     2.128533686218
    C           -0.926714054541    -0.317450731525     1.284040740811
    H           -2.762776346651     0.057826630598    -2.065706325487
    C           -0.875641960846     0.087826325259    -1.079651589947
    H           -0.399095841981    -0.419477924904     2.210518531165
    C           -0.210251148031    -0.047053103192     0.128344277361
    H           -0.322840132942     0.296193080026    -1.972177382370
    C            1.270957599948     0.089198646685     0.237683319818
    O            1.851857819968     0.340530942358    -0.920656401729
    O            1.867630777144    -0.018266956446     1.256141615522
    C            3.254150361787     0.523965383520    -0.931254237337
    H            3.481243147397     1.053026085020    -1.842769796698
    H            3.755601067352    -0.433156050053    -0.916918510965
    H            3.569842630945     1.103979947401    -0.079335530577

  Mulliken Charges: (a.u.)
   Center  Symbol    Alpha    Beta     Spin     Total
       1     H     0.42031  0.42031  0.00000  0.15939
       2     C     3.06976  3.06976  0.00000 -0.13951
       3     C     3.07552  3.07552  0.00000 -0.15105
       4     C     3.07494  3.07494  0.00000 -0.14987
       5     H     0.42041  0.42041  0.00000  0.15918
       6     C     3.07588  3.07588  0.00000 -0.15177
       7     H     0.42191  0.42191  0.00000  0.15618
       8     C     3.08211  3.08211  0.00000 -0.16422
       9     H     0.40658  0.40658  0.00000  0.18684
      10     C     3.01460  3.01460  0.00000 -0.02919
      11     H     0.41107  0.41107  0.00000  0.17786
      12     C     2.77977  2.77977  0.00000  0.44045
      13     O     4.14897  4.14897  0.00000 -0.29794
      14     O     4.21140  4.21140  0.00000 -0.42280
      15     C     3.03724  3.03724  0.00000 -0.07448
      16     H     0.44645  0.44645  0.00000  0.10711
      17     H     0.45500  0.45500  0.00000  0.09001
      18     H     0.44809  0.44809  0.00000  0.10382

   Total alpha = 36.00000, Total beta = 36.00000, Total charge = -0.00000
