                              Psi4 1.0.54 Driver

  ==> Input File <==

--------------------------------------------------------------------------
set {
	reference rhf
	basis cc-pvtz
}

set_num_threads( 4 )
memory 2 gb

molecule MOL {
0 1

H	 1.651458	 -0.822464	 0.000000
O	 0.730129	 -1.034363	 0.000000
C	 0.037441	 0.100062	 -0.000000
C	 -1.441828	 -0.144561	 0.000000
O	 0.559468	 1.160384	 0.000000
H	 -1.712380	 -0.722837	 -0.873995
H	 -1.963670	 0.797992	 0.000000
H	 -1.712380	 -0.722837	 0.873995

	symmetry c1
}
ee,wfn = energy('scf', return_wfn=True)
oeprop( wfn, 'DIPOLE', 'QUADRUPOLE', 'MULLIKEN_CHARGES')
oeprop( wfn, 'GRID_ESP')
f=open( 'psi4out.xyz', 'w' )
f.write( "8  " )
f.write( str(ee) + "\n" )
f.write( MOL.save_string_xyz() )
f.close()
--------------------------------------------------------------------------

    Molecular point group: c1

    Geometry (in Angstrom), charge = 0, multiplicity = 1:

       Center              X                  Y                   Z               Mass
    ------------   -----------------  -----------------  -----------------  -----------------
           H          1.651322448021    -0.822464952926     0.000000000000     1.007825032070
           O          0.729993448021    -1.034363952926     0.000000000000    15.994914619560
           C          0.037305448021     0.100061047074     0.000000000000    12.000000000000
           C         -1.441963551979    -0.144561952926     0.000000000000    12.000000000000
           O          0.559332448021     1.160383047074     0.000000000000    15.994914619560
           H         -1.712515551979    -0.722837952926    -0.873995000000     1.007825032070
           H         -1.963805551979     0.797991047074     0.000000000000     1.007825032070
           H         -1.712515551979    -0.722837952926     0.873995000000     1.007825032070

  Charge       = 0
  Multiplicity = 1
  Basis Set: CC-PVTZ
  Basis Set:

    Orbital Energies (a.u.)
    -----------------------

    Doubly Occupied:

       1A    -20.607075     2A    -20.542305     3A    -11.378408
       4A    -11.239248     5A     -1.480361     6A     -1.371694
       7A     -1.028539     8A     -0.834786     9A     -0.707025
      10A     -0.686383    11A     -0.657646    12A     -0.584765
      13A     -0.574064    14A     -0.563584    15A     -0.485937
      16A     -0.452484

  @DF-RHF Final Energy:  -227.90470987863597

   => Energetics <=

    Nuclear Repulsion Energy =            122.7987284805806354
    One-Electron Energy =                -555.0181260704082433
    Two-Electron Energy =                 204.3146877111915671
    DFT Exchange-Correlation Energy =       0.0000000000000000
    Empirical Dispersion Energy =           0.0000000000000000
    PCM Polarization Energy =               0.0000000000000000
    EFP Energy =                            0.0000000000000000
    Total Energy =                       -227.9047098786360550

  Mulliken Charges: (a.u.)
   Center  Symbol    Alpha    Beta     Spin     Total
       1     H     0.38080  0.38080  0.00000  0.23841
       2     O     4.16076  4.16076  0.00000 -0.32151
       3     C     2.80233  2.80233  0.00000  0.39534
       4     C     3.14019  3.14019  0.00000 -0.28038
       5     O     4.19099  4.19099  0.00000 -0.38197
       6     H     0.44393  0.44393  0.00000  0.11214
       7     H     0.43708  0.43708  0.00000  0.12585
       8     H     0.44393  0.44393  0.00000  0.11214

   Total alpha = 16.00000, Total beta = 16.00000, Total charge = -0.00000

*** Psi4 exiting successfully. Buy a developer a beer!
