  ==> Input File <==

--------------------------------------------------------------------------
set {
	reference rhf
	basis 6-31G*
}

set_num_threads( 4 )
memory 2 gb

molecule MOL {
0 1

O	 3.225979	 0.970355	 -0.599647
C	 2.701189	 0.057885	 -0.047330
C	 1.245376	 -0.013843	 0.345420
O	 3.347903	 -1.046386	 0.304773
C	 0.455112	 1.231400	 -0.050772
H	 0.838542	 -0.913825	 -0.103701
H	 1.208210	 -0.175333	 1.419774
C	 -0.998893	 1.219485	 0.433193
H	 0.482531	 1.345121	 -1.130325
H	 0.957290	 2.103070	 0.354729
C	 -1.883438	 0.145884	 -0.207175
H	 -1.431207	 2.195402	 0.224832
H	 -1.019646	 1.105716	 1.516076
C	 -3.100916	 0.729625	 -0.926892
H	 -1.290032	 -0.431148	 -0.914792
H	 -2.226174	 -0.557046	 0.548731
C	 -3.994900	 -0.334433	 -1.566192
H	 -2.765771	 1.424801	 -1.694775
H	 -3.689006	 1.315634	 -0.222305
C	 -5.206340	 0.257010	 -2.286130
H	 -3.408564	 -0.921594	 -2.269821
H	 -4.334426	 -1.027728	 -0.799482
H	 -5.820254	 -0.521453	 -2.728522
H	 -4.899447	 0.928828	 -3.082793
H	 -5.832036	 0.822358	 -1.601178
C	 4.728119	 -1.109107	 -0.004993
H	 4.882018	 -1.033965	 -1.071845
H	 5.068212	 -2.067527	 0.355250
H	 5.265056	 -0.311663	 0.488280

	symmetry c1
}
set optking {
	frozen_dihedral = ("
		15 11 8 5
	")
}

ee = optimize('scf')
oeprop('DIPOLE', 'QUADRUPOLE', 'MULLIKEN_CHARGES')
f=open( 'psi4out.xyz', 'w' )
f.write( "29  " )
f.write( str(ee) + "\n" )
f.write( MOL.save_string_xyz() )
f.close()
--------------------------------------------------------------------------

    Molecular point group: c1
  Charge       = 0
  Multiplicity = 1
  Basis Set: 6-31G*
  Basis Set:
  @DF-RHF Final Energy:  -501.03879525523780
    Total Energy =                       -501.0387952552379147
    Molecular point group: c1
  Basis Set: 6-31G*
  Basis Set:
  Basis Set: 6-31G*
  Basis Set:
  @DF-RHF Final Energy:  -501.03896183092729
    Total Energy =                       -501.0389618309268371
  Basis Set: 6-31G*
  Basis Set:
  Basis Set: 6-31G*
  Basis Set:
  @DF-RHF Final Energy:  -501.03900454057384
    Total Energy =                       -501.0390045405739556
  Basis Set: 6-31G*
  Basis Set:
  Basis Set: 6-31G*
  Basis Set:
  @DF-RHF Final Energy:  -501.03919056731092
    Total Energy =                       -501.0391905673102428
  Basis Set: 6-31G*
  Basis Set:
  Basis Set: 6-31G*
  Basis Set:
  @DF-RHF Final Energy:  -501.03917191407641
    Total Energy =                       -501.0391719140760642
  Basis Set: 6-31G*
  Basis Set:
  Basis Set: 6-31G*
  Basis Set:
  @DF-RHF Final Energy:  -501.03913070938813
    Total Energy =                       -501.0391307093882460
  Basis Set: 6-31G*
  Basis Set:
  Basis Set: 6-31G*
  Basis Set:
  @DF-RHF Final Energy:  -501.03921313218950
    Total Energy =                       -501.0392131321902980
  Basis Set: 6-31G*
  Basis Set:
  Charge       = 0
  Multiplicity = 1
  Basis Set: 6-31G*
  Basis Set:

    Orbital Energies (a.u.)
    -----------------------

    Doubly Occupied:

       1A    -20.603341     2A    -20.545138     3A    -11.371939
       4A    -11.280667     5A    -11.234627     6A    -11.219353
       7A    -11.217243     8A    -11.215871     9A    -11.215349
      10A    -11.214395    11A    -11.208676    12A     -1.469000
      13A     -1.362443    14A     -1.096855    15A     -1.066504
      16A     -1.017952    17A     -0.976723    18A     -0.927959
      19A     -0.861856    20A     -0.801317    21A     -0.789550
      22A     -0.763449    23A     -0.699966    24A     -0.682657
      25A     -0.671648    26A     -0.649879    27A     -0.627808
      28A     -0.606114    29A     -0.592640    30A     -0.577061
      31A     -0.565714    32A     -0.555401    33A     -0.532765
      34A     -0.526700    35A     -0.518689    36A     -0.511111
      37A     -0.493609    38A     -0.476933    39A     -0.473169
      40A     -0.459769    41A     -0.456265    42A     -0.455344
      43A     -0.441476    44A     -0.434460

  @DF-RHF Final Energy:  -501.03921323089116

   => Energetics <=

    Nuclear Repulsion Energy =            611.9771276613623741
    One-Electron Energy =               -1895.0939122957681775
    Two-Electron Energy =                 782.0775714035146393
    DFT Exchange-Correlation Energy =       0.0000000000000000
    Empirical Dispersion Energy =           0.0000000000000000
    PCM Polarization Energy =               0.0000000000000000
    EFP Energy =                            0.0000000000000000
    Total Energy =                       -501.0392132308911641
    Molecular point group: c1
  Basis Set: 6-31G*
  Basis Set:

  -Total Gradient:
     Atom            X                  Y                   Z
    ------   -----------------  -----------------  -----------------
       1        0.000021684396     0.000021325851     0.000056476271
       2       -0.000085908355    -0.000085899256    -0.000134035416
       3        0.000001400003     0.000035718785     0.000041552629
       4        0.000007490107     0.000057035171    -0.000000400155
       5       -0.000211366310     0.000626427785    -0.000593189124
       6        0.000017318191     0.000020514716     0.000018476760
       7        0.000013560120     0.000005296487     0.000025235963
       8        0.000357267623    -0.001092533585     0.001197255340
       9        0.000007382020     0.000022311918    -0.000058049601
      10       -0.000014772987    -0.000045521663     0.000000617252
      11       -0.000498531152     0.001295161388    -0.001423800735
      12       -0.000027191467    -0.000010879870    -0.000003949510
      13        0.000019573448     0.000020116574     0.000009787151
      14        0.000012695392    -0.000002115375    -0.000045513208
      15        0.000310934661    -0.000818380791     0.000896110282
      16        0.000016529370    -0.000013516829    -0.000003715673
      17       -0.000012650666     0.000001998134     0.000024971451
      18        0.000004094009    -0.000023681116    -0.000026030791
      19        0.000007445301     0.000035323705    -0.000012944612
      20       -0.000012847050     0.000000252275     0.000021271534
      21        0.000001914001     0.000014448809    -0.000005322377
      22        0.000006921277    -0.000017099305    -0.000000300753
      23       -0.000001910164    -0.000001178214     0.000003599581
      24        0.000003759668    -0.000003045295     0.000001269852
      25       -0.000007074229     0.000005430782    -0.000001480362
      26        0.000005498949    -0.000047637433     0.000028395621
      27        0.000005575348     0.000001062177    -0.000013383449
      28        0.000036986961    -0.000010036123    -0.000004540229
      29        0.000014221523     0.000009100299     0.000001636305

  **** Optimization is complete! (in 8 steps) ****
    Final optimized geometry and variables:
    Molecular point group: c1

    Geometry (in Angstrom), charge = 0, multiplicity = 1:

    O            3.100138656813     0.734330473976    -0.280628192865
    C            2.601729946498    -0.125322798704     0.371872344051
    C            1.170204669582    -0.147943590236     0.849697224566
    O            3.260468551604    -1.204435776833     0.775708414758
    C            0.368967338909     1.076933759719     0.414776985417
    H            0.725800794910    -1.071016954242     0.490222563453
    H            1.191619204646    -0.233468033924     1.932974396339
    C           -1.087091179431     1.041628534510     0.891850228966
    H            0.398696684579     1.163496092276    -0.667063817244
    H            0.855744390044     1.965782619754     0.802174941898
    C           -1.964232997977    -0.031403004241     0.205480426488
    H           -1.519176457766     2.021852402649     0.709648247522
    H           -1.107616487689     0.907735008479     1.970691792616
    C           -3.191483545600     0.548573586022    -0.501373508000
    H           -1.373042710517    -0.588923462237    -0.517673963759
    H           -2.294884251116    -0.764892293124     0.936781671285
    C           -4.064081230489    -0.513248585927    -1.171675219209
    H           -2.865903315750     1.271469796772    -1.247869596056
    H           -3.790106575792     1.104300593472     0.218620933453
    C           -5.289426547452     0.074641097785    -1.870870998304
    H           -3.467281147019    -1.065998416095    -1.894301848960
    H           -4.386954636070    -1.236994223983    -0.426134218260
    H           -5.887922426597    -0.702522127238    -2.336078681175
    H           -4.998590545897     0.777074272797    -2.646856086800
    H           -5.925189165769     0.605171354854    -1.167603679465
    C            4.620576737347    -1.307135496415     0.395495931577
    H            4.714441862096    -1.320084906084    -0.680886225346
    H            4.974535488928    -2.236962321600     0.812832316177
    H            5.189608079458    -0.478328188803     0.791555390165

  Mulliken Charges: (a.u.)
   Center  Symbol    Alpha    Beta     Spin     Total
       1     O     4.28598  4.28598  0.00000 -0.57196
       2     C     2.60547  2.60547  0.00000  0.78906
       3     C     3.20869  3.20869  0.00000 -0.41737
       4     O     4.30735  4.30735  0.00000 -0.61470
       5     C     3.15483  3.15483  0.00000 -0.30967
       6     H     0.39884  0.39884  0.00000  0.20233
       7     H     0.40106  0.40106  0.00000  0.19788
       8     C     3.16115  3.16115  0.00000 -0.32230
       9     H     0.41182  0.41182  0.00000  0.17637
      10     H     0.41106  0.41106  0.00000  0.17787
      11     C     3.15610  3.15610  0.00000 -0.31220
      12     H     0.41525  0.41525  0.00000  0.16950
      13     H     0.42127  0.42127  0.00000  0.15746
      14     C     3.15258  3.15258  0.00000 -0.30515
      15     H     0.42234  0.42234  0.00000  0.15533
      16     H     0.42088  0.42088  0.00000  0.15823
      17     C     3.15230  3.15230  0.00000 -0.30459
      18     H     0.42280  0.42280  0.00000  0.15439
      19     H     0.42311  0.42311  0.00000  0.15377
      20     C     3.23930  3.23930  0.00000 -0.47860
      21     H     0.42301  0.42301  0.00000  0.15397
      22     H     0.42323  0.42323  0.00000  0.15355
      23     H     0.41931  0.41931  0.00000  0.16139
      24     H     0.42140  0.42140  0.00000  0.15720
      25     H     0.42175  0.42175  0.00000  0.15649
      26     C     3.09237  3.09237  0.00000 -0.18473
      27     H     0.40915  0.40915  0.00000  0.18171
      28     H     0.40850  0.40850  0.00000  0.18299
      29     H     0.40911  0.40911  0.00000  0.18178

   Total alpha = 44.00000, Total beta = 44.00000, Total charge =  0.00000
