  ==> Input File <==

--------------------------------------------------------------------------
set {
	reference rhf
	basis cc-pvtz
}

set_num_threads( 4 )
memory 2 gb

molecule MOL {
0 1

H	 -2.738722	 0.667836	 -0.241970
O	 -2.313989	 -0.142475	 -0.025864
C	 -0.943808	 -0.065018	 -0.330000
H	 -0.812293	 -0.225641	 -1.398673
C	 -0.231030	 -1.182113	 0.407592
C	 -0.353797	 1.300461	 0.050970
H	 -0.312800	 -0.992012	 1.473041
H	 -0.738841	 -2.119564	 0.220514
C	 1.246176	 -1.268044	 -0.015480
H	 -0.539537	 2.008579	 -0.751815
H	 -0.889989	 1.662858	 0.920677
C	 1.153605	 1.231851	 0.356834
H	 1.823096	 -1.684665	 0.802361
H	 1.352335	 -1.958223	 -0.845114
C	 1.826409	 0.100723	 -0.416008
H	 1.622968	 2.181508	 0.128734
H	 1.301983	 1.066493	 1.419367
H	 2.897299	 0.112407	 -0.249665
H	 1.683458	 0.265621	 -1.480024

	symmetry c1
}
set optking {
	frozen_dihedral = ("
		1 2 3 4
	")
}

ee = optimize('scf')
oeprop('DIPOLE', 'QUADRUPOLE', 'MULLIKEN_CHARGES')
f=open( 'psi4out.xyz', 'w' )
f.write( "19  " )
f.write( str(ee) + "\n" )
f.write( MOL.save_string_xyz() )
f.close()
--------------------------------------------------------------------------

    Molecular point group: c1
  Charge       = 0
  Multiplicity = 1
  Basis Set: CC-PVTZ
  Basis Set:
  @DF-RHF Final Energy:  -309.16319564777990
    Total Energy =                       -309.1631956477799008
    Molecular point group: c1
  Basis Set: CC-PVTZ
  Basis Set:
  Basis Set: CC-PVTZ
  Basis Set:
  @DF-RHF Final Energy:  -309.16321022971113
    Total Energy =                       -309.1632102297110123
  Basis Set: CC-PVTZ
  Basis Set:
  Charge       = 0
  Multiplicity = 1
  Basis Set: CC-PVTZ
  Basis Set:

    Orbital Energies (a.u.)
    -----------------------

    Doubly Occupied:

       1A    -20.542861     2A    -11.267050     3A    -11.216651
       4A    -11.215164     5A    -11.214309     6A    -11.213339
       7A    -11.206501     8A     -1.363023     9A     -1.110873
      10A     -1.004379    11A     -0.989730    12A     -0.846068
      13A     -0.838151    14A     -0.737510    15A     -0.692058
      16A     -0.666777    17A     -0.628930    18A     -0.594803
      19A     -0.582168    20A     -0.549012    21A     -0.529457
      22A     -0.520085    23A     -0.500779    24A     -0.487631
      25A     -0.466119    26A     -0.449754    27A     -0.427283
      28A     -0.416113

  @DF-RHF Final Energy:  -309.16321492819537

   => Energetics <=

    Nuclear Repulsion Energy =            332.0812362179643173
    One-Electron Energy =               -1077.9357427021191143
    Two-Electron Energy =                 436.6912915559595376
    DFT Exchange-Correlation Energy =       0.0000000000000000
    Empirical Dispersion Energy =           0.0000000000000000
    PCM Polarization Energy =               0.0000000000000000
    EFP Energy =                            0.0000000000000000
    Total Energy =                       -309.1632149281953161
    Molecular point group: c1
  Basis Set: CC-PVTZ
  Basis Set:

  -Total Gradient:
     Atom            X                  Y                   Z
    ------   -----------------  -----------------  -----------------
       1        0.000228524825     0.000445907080     0.001246131128
       2       -0.000260780185    -0.000808003677    -0.001514903903
       3       -0.000064994298     0.001480315396    -0.000001002156
       4        0.000048700191    -0.001129764059     0.000199691491
       5        0.000015259086     0.000091980221     0.000022028543
       6        0.000045606278     0.000054423202     0.000013493796
       7       -0.000007798132    -0.000013846866     0.000019557054
       8        0.000000548013     0.000008902143    -0.000003949200
       9        0.000015781398     0.000019799857    -0.000059261107
      10       -0.000031878520    -0.000047482753    -0.000024977864
      11       -0.000020621025     0.000006496905     0.000038008199
      12       -0.000054648167    -0.000052171702     0.000035155902
      13        0.000008953807     0.000030913268     0.000007266411
      14        0.000032836481     0.000005907350    -0.000000964140
      15        0.000020762873    -0.000046188120     0.000022735488
      16       -0.000008699931    -0.000017372557    -0.000005855287
      17        0.000026876727     0.000000548007     0.000011269082
      18        0.000011911939    -0.000024047144    -0.000012090304
      19       -0.000006341359    -0.000006316550     0.000007666866

  **** Optimization is complete! (in 3 steps) ****
    Final optimized geometry and variables:
    Molecular point group: c1

    Geometry (in Angstrom), charge = 0, multiplicity = 1:

    H           -2.743432098249     0.661005360499    -0.260461643079
    O           -2.315766700603    -0.145639883471    -0.037526957367
    C           -0.943045615693    -0.064435481226    -0.329376922307
    H           -0.805879212746    -0.229941152171    -1.396494523359
    C           -0.230632636215    -1.181294712707     0.409883054693
    C           -0.354210211364     1.299668638596     0.053536003308
    H           -0.309114332082    -0.989584242380     1.475337107089
    H           -0.740558055938    -2.118313477292     0.225715618962
    C            1.244740433152    -1.269988184867    -0.018440051557
    H           -0.543316918858     2.009216427027    -0.747001357088
    H           -0.884655179536     1.660924385768     0.928335302837
    C            1.154124665663     1.230252505326     0.355122667299
    H            1.823925823732    -1.688332127466     0.796909004076
    H            1.347308370411    -1.958941557307    -0.849489318288
    C            1.825227560550     0.098782934848    -0.418978908058
    H            1.622575187751     2.179830173135     0.125145670466
    H            1.305155154385     1.065410736636     1.417264595984
    H            2.896190276763     0.110511647349    -0.253192324260
    H            1.681457574281     0.264323091896    -1.482616979495

  Mulliken Charges: (a.u.)
   Center  Symbol    Alpha    Beta     Spin     Total
       1     H     0.39534  0.39534  0.00000  0.20932
       2     O     4.20179  4.20179  0.00000 -0.40357
       3     C     2.92247  2.92247  0.00000  0.15505
       4     H     0.46216  0.46216  0.00000  0.07569
       5     C     3.09738  3.09738  0.00000 -0.19477
       6     C     3.12544  3.12544  0.00000 -0.25088
       7     H     0.45544  0.45544  0.00000  0.08912
       8     H     0.44034  0.44034  0.00000  0.11932
       9     C     3.11391  3.11391  0.00000 -0.22781
      10     H     0.44857  0.44857  0.00000  0.10286
      11     H     0.44791  0.44791  0.00000  0.10419
      12     C     3.10089  3.10089  0.00000 -0.20179
      13     H     0.44707  0.44707  0.00000  0.10586
      14     H     0.44728  0.44728  0.00000  0.10545
      15     C     3.10250  3.10250  0.00000 -0.20500
      16     H     0.44248  0.44248  0.00000  0.11504
      17     H     0.45238  0.45238  0.00000  0.09524
      18     H     0.44278  0.44278  0.00000  0.11443
      19     H     0.45387  0.45387  0.00000  0.09226

   Total alpha = 28.00000, Total beta = 28.00000, Total charge = -0.00000
