                              Psi4 1.0.54 Driver

  ==> Input File <==

--------------------------------------------------------------------------
set {
	reference rhf
	basis cc-pvtz
}

set_num_threads( 4 )
memory 2 gb

molecule MOL {
0 1

O	 -1.278239	 1.034789	 -0.784693
C	 -1.204115	 0.062668	 -0.112312
C	 -2.386398	 -0.667698	 0.460323
O	 -0.068058	 -0.518372	 0.226882
H	 -2.382952	 -1.693172	 0.114333
H	 -3.296656	 -0.175702	 0.158400
H	 -2.312537	 -0.685191	 1.540100
C	 1.169086	 0.037484	 -0.230612
C	 0.821623	 0.946591	 -1.392467
C	 2.124766	 -1.077816	 -0.614526
H	 1.592349	 0.614180	 0.577694
H	 0.135569	 1.722964	 -1.078898
H	 1.718747	 1.416987	 -1.776666
H	 0.358641	 0.384596	 -2.194804
H	 3.057692	 -0.658478	 -0.972723
H	 2.342375	 -1.707181	 0.237057
H	 1.699395	 -1.687864	 -1.403312

	symmetry c1
}
set optking {
	frozen_dihedral = ("
		11 8 4 2
	")
}

ee,wfn = optimize('scf', return_wfn=True)
oeprop( wfn, 'DIPOLE', 'QUADRUPOLE', 'MULLIKEN_CHARGES')
f=open( 'psi4out.xyz', 'w' )
f.write( "17  " )
f.write( str(ee) + "\n" )
f.write( MOL.save_string_xyz() )
f.close()
--------------------------------------------------------------------------

    Molecular point group: c1
  Charge       = 0
  Multiplicity = 1
  Basis Set: CC-PVTZ
  Basis Set:
  @DF-RHF Final Energy:  -344.98079377389672
    Total Energy =                       -344.9807937738968349
    Molecular point group: c1
  Basis Set: CC-PVTZ
  Basis Set:
  Basis Set: CC-PVTZ
  Basis Set:
  @DF-RHF Final Energy:  -345.01960672619828
    Total Energy =                       -345.0196067261979351
  Basis Set: CC-PVTZ
  Basis Set:
  Basis Set: CC-PVTZ
  Basis Set:
  @DF-RHF Final Energy:  -345.02834577125225
    Total Energy =                       -345.0283457712520203
  Basis Set: CC-PVTZ
  Basis Set:
  Basis Set: CC-PVTZ
  Basis Set:
  @DF-RHF Final Energy:  -344.98774586150137
    Total Energy =                       -344.9877458615012529
  Basis Set: CC-PVTZ
  Basis Set:
  @DF-RHF Final Energy:  -345.02864092376183
    Total Energy =                       -345.0286409237619409
  @DF-RHF Final Energy:  -345.03185791933612
    Total Energy =                       -345.0318579193361757
  @DF-RHF Final Energy:  -345.03304762927689
    Total Energy =                       -345.0330476292770072
  @DF-RHF Final Energy:  -345.03314690608403
    Total Energy =                       -345.0331469060838003
  Basis Set: CC-PVTZ
  Basis Set:
  @DF-RHF Final Energy:  -345.03316041057036
    Total Energy =                       -345.0331604105707584
  Basis Set: CC-PVTZ
  Basis Set:
  Basis Set: CC-PVTZ
  Basis Set:
  @DF-RHF Final Energy:  -345.03316381254973
    Total Energy =                       -345.0331638125500149
  Basis Set: CC-PVTZ
  Basis Set:
  Basis Set: CC-PVTZ
  Basis Set:
  @DF-RHF Final Energy:  -345.03316551808075
    Total Energy =                       -345.0331655180806365
  Basis Set: CC-PVTZ
  Basis Set:
  Charge       = 0
  Multiplicity = 1
  Basis Set: CC-PVTZ
  Basis Set:

    Orbital Energies (a.u.)
    -----------------------

    Doubly Occupied:

       1A    -20.588676     2A    -20.528378     3A    -11.366934
       4A    -11.295286     5A    -11.228215     6A    -11.217781
       7A    -11.211344     8A     -1.462384     9A     -1.364219
      10A     -1.081229    11A     -1.003395    12A     -0.946735
      13A     -0.861923    14A     -0.747476    15A     -0.690987
      16A     -0.681922    17A     -0.659369    18A     -0.614841
      19A     -0.586923    20A     -0.579844    21A     -0.555928
      22A     -0.547164    23A     -0.543282    24A     -0.517364
      25A     -0.504693    26A     -0.486817    27A     -0.444784
      28A     -0.431322

  @DF-RHF Final Energy:  -345.03316640290569

   => Energetics <=

    Nuclear Repulsion Energy =            324.0229314986867735
    One-Electron Energy =               -1112.6137672786494477
    Two-Electron Energy =                 443.5576693770566408
    DFT Exchange-Correlation Energy =       0.0000000000000000
    Empirical Dispersion Energy =           0.0000000000000000
    PCM Polarization Energy =               0.0000000000000000
    EFP Energy =                            0.0000000000000000
    Total Energy =                       -345.0331664029059766
    Molecular point group: c1
  Basis Set: CC-PVTZ
  Basis Set:

  -Total Gradient:
     Atom            X                  Y                   Z
    ------   -----------------  -----------------  -----------------
       1        0.000010693425    -0.000054950730     0.000022096539
       2        0.000072202463    -0.001392933460    -0.004456919486
       3        0.000053389914    -0.000041313817    -0.000044886327
       4        0.000310725716     0.001346106885     0.007038053390
       5       -0.000005102551     0.000004856860     0.000035043629
       6       -0.000001694621     0.000012478142     0.000001787568
       7       -0.000008052648     0.000027931357    -0.000002985543
       8       -0.003096314845     0.004019998145    -0.003059511331
       9       -0.000037336630     0.000075702386    -0.000038819958
      10        0.000003883922    -0.000014459630     0.000008352195
      11        0.002612728873    -0.003972479191     0.000499201581
      12        0.000069648758    -0.000014077014    -0.000031259844
      13        0.000023607783     0.000000253933     0.000013679521
      14        0.000009236969     0.000010718205     0.000014528668
      15       -0.000016311318    -0.000011122590     0.000001183403
      16        0.000001566475    -0.000003738706    -0.000011270483
      17       -0.000002871685     0.000007029219     0.000011726478

  **** Optimization is complete! (in 12 steps) ****
    Final optimized geometry and variables:
    Molecular point group: c1

    Geometry (in Angstrom), charge = 0, multiplicity = 1:

    O           -1.504742996168     1.004589639538     0.006004032946
    C           -1.170354005378    -0.114007183126     0.196115262425
    C           -2.127691031278    -1.272547489706     0.281734592117
    O            0.069259787387    -0.524123659321     0.386935425850
    H           -1.902557824960    -1.987723988933    -0.499041608214
    H           -3.138594520651    -0.913759968650     0.175569328214
    H           -2.007026225664    -1.775668481626     1.232122597111
    C            1.267542134969     0.246600214303     0.199319193656
    C            1.169349184106     1.431051699731    -0.747143878216
    C            2.297327799342    -0.764659954810    -0.279846294095
    H            1.565847061394     0.573759206707     1.187904925216
    H            0.550295213489     2.221559610866    -0.361289488915
    H            2.173179717321     1.811569247209    -0.898410410302
    H            0.776963675729     1.128295872986    -1.710356590950
    H            3.279354862617    -0.308878756095    -0.314935299098
    H            2.335897581268    -1.613628910682     0.389778423875
    H            2.048521935833    -1.122237501475    -1.272316042425

  Mulliken Charges: (a.u.)
   Center  Symbol    Alpha    Beta     Spin     Total
       1     O     4.19827  4.19827  0.00000 -0.39653
       2     C     2.80860  2.80860  0.00000  0.38280
       3     C     3.13696  3.13696  0.00000 -0.27393
       4     O     4.16137  4.16137  0.00000 -0.32275
       5     H     0.44764  0.44764  0.00000  0.10472
       6     H     0.43884  0.43884  0.00000  0.12232
       7     H     0.44527  0.44527  0.00000  0.10946
       8     C     2.93419  2.93419  0.00000  0.13163
       9     C     3.15852  3.15852  0.00000 -0.31704
      10     C     3.13780  3.13780  0.00000 -0.27560
      11     H     0.44847  0.44847  0.00000  0.10307
      12     H     0.42850  0.42850  0.00000  0.14301
      13     H     0.45147  0.45147  0.00000  0.09706
      14     H     0.44935  0.44935  0.00000  0.10131
      15     H     0.45500  0.45500  0.00000  0.09001
      16     H     0.44569  0.44569  0.00000  0.10862
      17     H     0.45407  0.45407  0.00000  0.09186

   Total alpha = 28.00000, Total beta = 28.00000, Total charge = -0.00000

*** Psi4 exiting successfully. Buy a developer a beer!
