  ==> Input File <==

--------------------------------------------------------------------------
set {
	reference rhf
	basis 6-31G*
}

set_num_threads( 1 )
memory 2 gb

molecule MOL {
0 1

H	 -2.454336	 -0.715210	 2.083281
C	 -2.413988	 -1.511636	 1.342862
O	 -1.199638	 -1.514475	 0.664127
H	 -2.507933	 -2.463478	 1.847156
H	 -3.254258	 -1.391050	 0.660341
C	 -0.939939	 -0.344389	 -0.044889
C	 0.444140	 -0.421120	 -0.645425
H	 -1.670933	 -0.216541	 -0.844263
H	 -1.000257	 0.524724	 0.607038
O	 1.392611	 -0.295398	 0.366430
H	 0.557009	 -1.369913	 -1.166057
H	 0.562633	 0.379744	 -1.376362
C	 2.706965	 -0.449871	 -0.062409
H	 2.756559	 -0.644779	 -1.131878
H	 3.305899	 0.433456	 0.155466
H	 3.125548	 -1.294566	 0.467107

	symmetry c1
}
set optking {
	frozen_dihedral = ("
		3 6 7 11,
		2 3 6 7
	")
}

ee = energy('scf')
oeprop('DIPOLE', 'QUADRUPOLE', 'MULLIKEN_CHARGES')
f=open( 'psi4out.xyz', 'w' )
f.write( "16  " )
f.write( str(ee) + "\n" )
f.write( MOL.save_string_xyz() )
f.close()
--------------------------------------------------------------------------

    Molecular point group: c1

    Geometry (in Angstrom), charge = 0, multiplicity = 1:

       Center              X                  Y                   Z               Mass
    ------------   -----------------  -----------------  -----------------  -----------------
           H         -2.455092256830     0.045142035709     1.807074876800     1.007825032070
           C         -2.414744256830    -0.751283964291     1.066655876800    12.000000000000
           O         -1.200394256830    -0.754122964291     0.387920876800    15.994914619560
           H         -2.508689256830    -1.703125964291     1.570949876800     1.007825032070
           H         -3.255014256830    -0.630697964291     0.384134876800     1.007825032070
           C         -0.940695256830     0.415963035709    -0.321095123200    12.000000000000
           C          0.443383743170     0.339232035709    -0.921631123200    12.000000000000
           H         -1.671689256830     0.543811035709    -1.120469123200     1.007825032070
           H         -1.001013256830     1.285076035709     0.330831876800     1.007825032070
           O          1.391854743170     0.464954035709     0.090223876800    15.994914619560
           H          0.556252743170    -0.609560964291    -1.442263123200     1.007825032070
           H          0.561876743170     1.140096035709    -1.652568123200     1.007825032070
           C          2.706208743170     0.310481035709    -0.338615123200    12.000000000000
           H          2.755802743170     0.115573035709    -1.408084123200     1.007825032070
           H          3.305142743170     1.193808035709    -0.120740123200     1.007825032070
           H          3.124791743170    -0.534213964291     0.190900876800     1.007825032070

  Charge       = 0
  Multiplicity = 1
  Basis Set: 6-31G*
  Basis Set:

    Orbital Energies (a.u.)
    -----------------------

    Doubly Occupied:

       1A    -20.553407     2A    -20.550204     3A    -11.269427
       4A    -11.268189     5A    -11.263400     6A    -11.262381
       7A     -1.387567     8A     -1.369893     9A     -1.030328
      10A     -0.935382    11A     -0.892086    12A     -0.824935
      13A     -0.683143    14A     -0.678948    15A     -0.657666
      16A     -0.635300    17A     -0.627278    18A     -0.596122
      19A     -0.554752    20A     -0.536898    21A     -0.506446
      22A     -0.478095    23A     -0.463609    24A     -0.417608
      25A     -0.406642

  @DF-RHF Final Energy:  -306.97317151199405

   => Energetics <=

    Nuclear Repulsion Energy =            258.8798329285512523
    One-Electron Energy =                -932.0065014319313832
    Two-Electron Energy =                 366.1534969913859641
    DFT Exchange-Correlation Energy =       0.0000000000000000
    Empirical Dispersion Energy =           0.0000000000000000
    PCM Polarization Energy =               0.0000000000000000
    EFP Energy =                            0.0000000000000000
    Total Energy =                       -306.9731715119942237

  Mulliken Charges: (a.u.)
   Center  Symbol    Alpha    Beta     Spin     Total
       1     H     0.42805  0.42805  0.00000  0.14390
       2     C     3.07946  3.07946  0.00000 -0.15892
       3     O     4.30093  4.30093  0.00000 -0.60185
       4     H     0.41136  0.41136  0.00000  0.17729
       5     H     0.43193  0.43193  0.00000  0.13614
       6     C     2.99350  2.99350  0.00000  0.01300
       7     C     2.99551  2.99551  0.00000  0.00897
       8     H     0.43244  0.43244  0.00000  0.13513
       9     H     0.42272  0.42272  0.00000  0.15456
      10     O     4.30288  4.30288  0.00000 -0.60575
      11     H     0.42205  0.42205  0.00000  0.15590
      12     H     0.43194  0.43194  0.00000  0.13612
      13     C     3.07701  3.07701  0.00000 -0.15402
      14     H     0.43052  0.43052  0.00000  0.13895
      15     H     0.42196  0.42196  0.00000  0.15609
      16     H     0.41775  0.41775  0.00000  0.16450

   Total alpha = 25.00000, Total beta = 25.00000, Total charge = -0.00000
