  ==> Input File <==

--------------------------------------------------------------------------
set {
	reference rhf
	basis 6-31G*
}

set_num_threads( 4 )
memory 2 gb

molecule MOL {
0 1

H	 1.644107	 -1.684557	 0.309911
O	 2.016064	 -0.864478	 0.000222
C	 1.050492	 0.053836	 0.000068
C	 -0.318135	 -0.576402	 0.000164
O	 1.285279	 1.218255	 -0.000078
C	 -1.454360	 0.441875	 -0.000474
H	 -0.374042	 -1.230163	 -0.866135
H	 -0.374274	 -1.229227	 0.867154
C	 -2.826123	 -0.230780	 0.000056
H	 -1.357605	 1.085198	 -0.868380
H	 -1.357504	 1.086451	 0.866496
H	 -2.959731	 -0.858053	 -0.876869
H	 -3.619374	 0.509403	 -0.000080
H	 -2.959371	 -0.857318	 0.877556

	symmetry c1
}
set optking {
	frozen_dihedral = ("
		1 2 3 5
	")
}

ee = optimize('scf')
oeprop('DIPOLE', 'QUADRUPOLE', 'MULLIKEN_CHARGES')
f=open( 'psi4out.xyz', 'w' )
f.write( "14  " )
f.write( str(ee) + "\n" )
f.write( MOL.save_string_xyz() )
f.close()
--------------------------------------------------------------------------

    Molecular point group: c1
  Charge       = 0
  Multiplicity = 1
  Basis Set: 6-31G*
  Basis Set:
  @DF-RHF Final Energy:  -305.86687783295838
    Total Energy =                       -305.8668778329582665
    Molecular point group: c1
  Basis Set: 6-31G*
  Basis Set:
  Basis Set: 6-31G*
  Basis Set:
  @DF-RHF Final Energy:  -305.86827437795557
    Total Energy =                       -305.8682743779554585
  Basis Set: 6-31G*
  Basis Set:
  Basis Set: 6-31G*
  Basis Set:
  @DF-RHF Final Energy:  -305.86845923854042
    Total Energy =                       -305.8684592385402539
  Basis Set: 6-31G*
  Basis Set:
  Basis Set: 6-31G*
  Basis Set:
  @DF-RHF Final Energy:  -305.86844260507524
    Total Energy =                       -305.8684426050751313
  Basis Set: 6-31G*
  Basis Set:
  Basis Set: 6-31G*
  Basis Set:
  @DF-RHF Final Energy:  -305.86846299918790
    Total Energy =                       -305.8684629991878410
  Basis Set: 6-31G*
  Basis Set:
  Charge       = 0
  Multiplicity = 1
  Basis Set: 6-31G*
  Basis Set:

    Orbital Energies (a.u.)
    -----------------------

    Doubly Occupied:

       1A    -20.611281     2A    -20.549390     3A    -11.381090
       4A    -11.252933     5A    -11.231467     6A    -11.222432
       7A     -1.467734     8A     -1.370517     9A     -1.088170
      10A     -0.978755    11A     -0.853032    12A     -0.817815
      13A     -0.720326    14A     -0.672720    15A     -0.658375
      16A     -0.621280    17A     -0.587835    18A     -0.582710
      19A     -0.552904    20A     -0.508900    21A     -0.496222
      22A     -0.489051    23A     -0.476332    24A     -0.440916

  @DF-RHF Final Energy:  -305.86846417387619

   => Energetics <=

    Nuclear Repulsion Energy =            239.8384977105342841
    One-Electron Energy =                -892.1495466459167574
    Two-Electron Energy =                 346.4425847615061684
    DFT Exchange-Correlation Energy =       0.0000000000000000
    Empirical Dispersion Energy =           0.0000000000000000
    PCM Polarization Energy =               0.0000000000000000
    EFP Energy =                            0.0000000000000000
    Total Energy =                       -305.8684641738763048
    Molecular point group: c1
  Basis Set: 6-31G*
  Basis Set:

  -Total Gradient:
     Atom            X                  Y                   Z
    ------   -----------------  -----------------  -----------------
       1        0.001043544905     0.001171586932     0.004370879509
       2       -0.001341451951    -0.001513577512    -0.003738367404
       3        0.000314727000     0.000300156915    -0.004641267003
       4        0.000007360825     0.000005670927    -0.000003457564
       5       -0.000017247789     0.000040537010     0.004009566079
       6       -0.000002032406    -0.000000192501    -0.000004496796
       7       -0.000001363004     0.000001995323     0.000004967781
       8       -0.000000875231     0.000000852658    -0.000000813332
       9       -0.000006491935     0.000001416920     0.000004602367
      10        0.000003463673    -0.000004810210     0.000000072175
      11        0.000000022882    -0.000002963629    -0.000001319957
      12        0.000000665133     0.000001670148    -0.000002170336
      13       -0.000000500845    -0.000000411623     0.000001092551
      14        0.000000178736    -0.000001931362     0.000000711929

  **** Optimization is complete! (in 6 steps) ****
    Final optimized geometry and variables:
    Molecular point group: c1

    Geometry (in Angstrom), charge = 0, multiplicity = 1:

    H            1.804991539273    -1.681832965398     0.293573093067
    O            2.077035319240    -0.824130568680    -0.004755030274
    C            1.062641925095     0.052239597693    -0.001954562488
    C           -0.318945123997    -0.570142591541    -0.001851906684
    O            1.277303183767     1.213689118200     0.001352394825
    C           -1.447725783774     0.456632779916    -0.005942775534
    H           -0.387333361488    -1.223794789344    -0.869067132501
    H           -0.398852239036    -1.217508713688     0.871117729488
    C           -2.825641274046    -0.202960729381    -0.007334457707
    H           -1.339918489822     1.095941788154    -0.874837284723
    H           -1.343937544712     1.101154337270     0.859665156529
    H           -2.964198878286    -0.830378543858    -0.883411721365
    H           -3.610731795079     0.545607466064    -0.011193311272
    H           -2.968626400333    -0.825612880802     0.871568482484

  Mulliken Charges: (a.u.)
   Center  Symbol    Alpha    Beta     Spin     Total
       1     H     0.26901  0.26901  0.00000  0.46198
       2     O     4.35348  4.35348  0.00000 -0.70697
       3     C     2.60841  2.60841  0.00000  0.78318
       4     C     3.23380  3.23380  0.00000 -0.46760
       5     O     4.26138  4.26138  0.00000 -0.52277
       6     C     3.15035  3.15035  0.00000 -0.30070
       7     H     0.40115  0.40115  0.00000  0.19771
       8     H     0.40938  0.40938  0.00000  0.18125
       9     C     3.24377  3.24377  0.00000 -0.48755
      10     H     0.40672  0.40672  0.00000  0.18655
      11     H     0.40758  0.40758  0.00000  0.18484
      12     H     0.42081  0.42081  0.00000  0.15838
      13     H     0.41259  0.41259  0.00000  0.17482
      14     H     0.42156  0.42156  0.00000  0.15689

   Total alpha = 24.00000, Total beta = 24.00000, Total charge =  0.00000
