                              Psi4 1.0.54 Driver

  ==> Input File <==

--------------------------------------------------------------------------
set {
	reference rhf
	basis cc-pvtz
}

set_num_threads( 4 )
memory 2 gb

molecule MOL {
0 1

H	 2.867672	 -0.456275	 0.875795
C	 2.403497	 -0.020426	 0.000000
N	 0.989899	 -0.304564	 0.000000
H	 2.867672	 -0.456275	 -0.875795
H	 2.620366	 1.051270	 0.000000
C	 0.537579	 -0.862401	 1.257693
C	 0.595946	 -1.152778	 -1.105849
H	 1.037200	 -1.811129	 1.476872
H	 0.775881	 -0.173330	 2.059642
C	 -0.961638	 -1.088188	 1.217569
H	 0.877073	 -0.676767	 -2.038109
H	 1.099956	 -2.123347	 -1.064444
C	 -0.904771	 -1.371104	 -1.085244
H	 -1.294025	 -1.588774	 2.116212
H	 -1.471957	 -0.129649	 1.147721
O	 -1.321097	 -1.899601	 0.138892
H	 -1.196052	 -2.076194	 -1.851163
H	 -1.412147	 -0.427206	 -1.274256

	symmetry c1
}
set optking {
	frozen_dihedral = ("
		6 3 2 5
	")
}

ee,wfn = optimize('scf', return_wfn=True)
oeprop( wfn, 'DIPOLE', 'QUADRUPOLE', 'MULLIKEN_CHARGES')
f=open( 'psi4out.xyz', 'w' )
f.write( "18  " )
f.write( str(ee) + "\n" )
f.write( MOL.save_string_xyz() )
f.close()
--------------------------------------------------------------------------

    Molecular point group: c1
  Charge       = 0
  Multiplicity = 1
  Basis Set: CC-PVTZ
  Basis Set:
  @DF-RHF Final Energy:  -325.13924854581120
    Total Energy =                       -325.1392485458110286
    Molecular point group: c1
  Basis Set: CC-PVTZ
  Basis Set:
  Basis Set: CC-PVTZ
  Basis Set:
  @DF-RHF Final Energy:  -325.13979208064836
    Total Energy =                       -325.1397920806482489
  Basis Set: CC-PVTZ
  Basis Set:
  Basis Set: CC-PVTZ
  Basis Set:
  @DF-RHF Final Energy:  -325.13991631931214
    Total Energy =                       -325.1399163193119080
  Basis Set: CC-PVTZ
  Basis Set:
  Charge       = 0
  Multiplicity = 1
  Basis Set: CC-PVTZ
  Basis Set:

    Orbital Energies (a.u.)
    -----------------------

    Doubly Occupied:

       1A    -20.546928     2A    -15.541589     3A    -11.263525
       4A    -11.263500     5A    -11.242390     6A    -11.242331
       7A    -11.238826     8A     -1.385862     9A     -1.229197
      10A     -1.038544    11A     -0.980901    12A     -0.883244
      13A     -0.870482    14A     -0.774122    15A     -0.684337
      16A     -0.645506    17A     -0.644014    18A     -0.631519
      19A     -0.628194    20A     -0.572513    21A     -0.557978
      22A     -0.547755    23A     -0.526872    24A     -0.499971
      25A     -0.483908    26A     -0.453274    27A     -0.409762
      28A     -0.350344

  @DF-RHF Final Energy:  -325.13991814721453

   => Energetics <=

    Nuclear Repulsion Energy =            341.3897665227304969
    One-Electron Energy =               -1118.7845926415629947
    Two-Electron Energy =                 452.2549079716180245
    DFT Exchange-Correlation Energy =       0.0000000000000000
    Empirical Dispersion Energy =           0.0000000000000000
    PCM Polarization Energy =               0.0000000000000000
    EFP Energy =                            0.0000000000000000
    Total Energy =                       -325.1399181472144733
    Molecular point group: c1
  Basis Set: CC-PVTZ
  Basis Set:

  -Total Gradient:
     Atom            X                  Y                   Z
    ------   -----------------  -----------------  -----------------
       1        0.000015099632    -0.000002709119     0.000006431117
       2        0.000072913262    -0.000380398381     0.002010199343
       3       -0.000171295213     0.001717100069     0.000105921882
       4        0.000013095972     0.000013774128    -0.000003612410
       5        0.000036801469    -0.000045215463    -0.001700343365
       6        0.000189167697    -0.001247897449    -0.000378106580
       7       -0.000096991593    -0.000049018907    -0.000028450071
       8        0.000000887518     0.000030156393    -0.000023658532
       9        0.000006254714     0.000001373454    -0.000024472316
      10       -0.000002044082     0.000010136822     0.000029322039
      11        0.000003539930     0.000007453806     0.000024637645
      12       -0.000012046015     0.000038166831     0.000014711965
      13        0.000016055784    -0.000036456058    -0.000053012894
      14       -0.000042432620    -0.000020031267     0.000005330131
      15        0.000004412846    -0.000015408617    -0.000004413821
      16        0.000005776141     0.000020056104     0.000009579249
      17       -0.000054335557    -0.000022162345    -0.000008410341
      18        0.000015140112    -0.000018920002     0.000018346955

  **** Optimization is complete! (in 4 steps) ****
    Final optimized geometry and variables:
    Molecular point group: c1

    Geometry (in Angstrom), charge = 0, multiplicity = 1:

    H            2.742639735950     0.529878746426     0.791512931373
    C            2.237440608438     0.927796088452    -0.083241152517
    N            0.815887983589     0.624194383972    -0.072703235442
    H            2.720031590489     0.495693450687    -0.952468274164
    H            2.409190600407     1.998039835950    -0.118354917128
    C            0.349645060556     0.100713598485     1.194451614942
    C            0.392683461899    -0.226812903975    -1.166081240420
    H            0.821830237430    -0.857726849564     1.430664065633
    H            0.606000034648     0.796069147575     1.985531814583
    C           -1.155612843393    -0.081791291720     1.161714218470
    H            0.677760606326     0.230053042342    -2.106383736545
    H            0.866474791606    -1.212104566837    -1.118605051557
    C           -1.113956121895    -0.399577752234    -1.136197468273
    H           -1.499484692367    -0.559211929092     2.068836436753
    H           -1.637572973298     0.890415872527     1.079384016047
    O           -1.542297406413    -0.897836790819     0.096269969496
    H           -1.429622330667    -1.105764512511    -1.891657967332
    H           -1.592333669820     0.557116259460    -1.336655995897

  Mulliken Charges: (a.u.)
   Center  Symbol    Alpha    Beta     Spin     Total
       1     H     0.46125  0.46125  0.00000  0.07750
       2     C     3.08977  3.08977  0.00000 -0.17955
       3     N     3.61994  3.61994  0.00000 -0.23987
       4     H     0.45918  0.45918  0.00000  0.08164
       5     H     0.44924  0.44924  0.00000  0.10151
       6     C     3.04232  3.04232  0.00000 -0.08465
       7     C     3.04165  3.04165  0.00000 -0.08331
       8     H     0.46859  0.46859  0.00000  0.06282
       9     H     0.45342  0.45342  0.00000  0.09317
      10     C     2.98453  2.98453  0.00000  0.03093
      11     H     0.45360  0.45360  0.00000  0.09281
      12     H     0.46862  0.46862  0.00000  0.06276
      13     C     2.98459  2.98459  0.00000  0.03081
      14     H     0.45013  0.45013  0.00000  0.09973
      15     H     0.46831  0.46831  0.00000  0.06338
      16     O     4.18640  4.18640  0.00000 -0.37279
      17     H     0.45008  0.45008  0.00000  0.09984
      18     H     0.46837  0.46837  0.00000  0.06327

   Total alpha = 28.00000, Total beta = 28.00000, Total charge = -0.00000

*** Psi4 exiting successfully. Buy a developer a beer!
