                              Psi4 1.0.54 Driver

  ==> Input File <==

--------------------------------------------------------------------------
set {
	reference rhf
	basis cc-pvtz
}

set_num_threads( 4 )
memory 2 gb

molecule MOL {
0 1

O	 0.749630	 1.305591	 -0.000460
C	 0.576499	 0.134701	 -0.003900
C	 -0.765656	 -0.550508	 -0.002152
O	 1.564816	 -0.744612	 -0.000631
C	 -1.945526	 0.411052	 0.000603
H	 -0.794329	 -1.203792	 -0.868145
H	 -0.791555	 -1.205429	 0.862701
C	 -3.189162	 -0.204424	 -0.631444
H	 -1.670777	 1.315255	 -0.528852
H	 -2.158984	 0.711704	 1.019142
H	 -3.009387	 -0.485311	 -1.663962
H	 -4.015474	 0.495951	 -0.619483
H	 -3.503679	 -1.095229	 -0.097708
C	 2.884339	 -0.237801	 0.002883
H	 3.064150	 0.362814	 -0.876312
H	 3.533055	 -1.098529	 0.004958
H	 3.059365	 0.363432	 0.882614

	symmetry c1
}
set optking {
	frozen_dihedral = ("
		9 5 3 6
	")
}

ee,wfn = optimize('scf', return_wfn=True)
oeprop( wfn, 'DIPOLE', 'QUADRUPOLE', 'MULLIKEN_CHARGES')
f=open( 'psi4out.xyz', 'w' )
f.write( "17  " )
f.write( str(ee) + "\n" )
f.write( MOL.save_string_xyz() )
f.close()
--------------------------------------------------------------------------

    Molecular point group: c1
  Charge       = 0
  Multiplicity = 1
  Basis Set: CC-PVTZ
  Basis Set:
  @DF-RHF Final Energy:  -345.03323639453515
    Total Energy =                       -345.0332363945351517
    Molecular point group: c1
  Basis Set: CC-PVTZ
  Basis Set:
  Basis Set: CC-PVTZ
  Basis Set:
  @DF-RHF Final Energy:  -345.03320267992422
    Total Energy =                       -345.0332026799250116
  Basis Set: CC-PVTZ
  Basis Set:
  Basis Set: CC-PVTZ
  Basis Set:
  @DF-RHF Final Energy:  -345.03222435078362
    Total Energy =                       -345.0322243507837356
  Basis Set: CC-PVTZ
  Basis Set:
  Basis Set: CC-PVTZ
  Basis Set:
  @DF-RHF Final Energy:  -345.03348626409627
    Total Energy =                       -345.0334862640966662
  Basis Set: CC-PVTZ
  Basis Set:
  Basis Set: CC-PVTZ
  Basis Set:
  @DF-RHF Final Energy:  -345.03350479964541
    Total Energy =                       -345.0335047996447884
  Basis Set: CC-PVTZ
  Basis Set:
  Basis Set: CC-PVTZ
  Basis Set:
  @DF-RHF Final Energy:  -345.03351011282632
    Total Energy =                       -345.0335101128258657
  Basis Set: CC-PVTZ
  Basis Set:
  Charge       = 0
  Multiplicity = 1
  Basis Set: CC-PVTZ
  Basis Set:

    Orbital Energies (a.u.)
    -----------------------

    Doubly Occupied:

       1A    -20.596862     2A    -20.534977     3A    -11.365651
       4A    -11.278899     5A    -11.234177     6A    -11.219382
       7A    -11.212876     8A     -1.472993     9A     -1.366568
      10A     -1.080567    11A     -1.002855    12A     -0.940383
      13A     -0.828645    14A     -0.769577    15A     -0.704200
      16A     -0.685968    17A     -0.676707    18A     -0.634298
      19A     -0.598628    20A     -0.574975    21A     -0.569879
      22A     -0.530190    23A     -0.524129    24A     -0.498922
      25A     -0.487820    26A     -0.475679    27A     -0.460588
      28A     -0.442838

  @DF-RHF Final Energy:  -345.03351042365210

   => Energetics <=

    Nuclear Repulsion Energy =            312.9426317022858370
    One-Electron Energy =               -1090.4138170247865673
    Two-Electron Energy =                 432.4376748988482859
    DFT Exchange-Correlation Energy =       0.0000000000000000
    Empirical Dispersion Energy =           0.0000000000000000
    PCM Polarization Energy =               0.0000000000000000
    EFP Energy =                            0.0000000000000000
    Total Energy =                       -345.0335104236525012
    Molecular point group: c1
  Basis Set: CC-PVTZ
  Basis Set:

  -Total Gradient:
     Atom            X                  Y                   Z
    ------   -----------------  -----------------  -----------------
       1        0.000019450218    -0.000006957717    -0.000012023599
       2       -0.000009366864     0.000016599475    -0.000009916236
       3        0.002740688619     0.003472968448    -0.001677048681
       4        0.000009920620     0.000005427051     0.000014359169
       5       -0.002027683983    -0.002490043800    -0.003348761857
       6       -0.001955837162    -0.002474600665     0.001929128576
       7       -0.000007963830    -0.000000357946    -0.000021235547
       8       -0.000010035247    -0.000006057634    -0.000008457772
       9        0.001225478073     0.001484767180     0.003124726449
      10       -0.000001329901    -0.000001224168     0.000007297765
      11       -0.000009575405     0.000001479333     0.000024593304
      12        0.000025708408    -0.000021142363    -0.000003998355
      13       -0.000000509458     0.000020935302    -0.000015985450
      14        0.000000956877    -0.000002559906    -0.000001299245
      15       -0.000000253427     0.000000435586     0.000000888476
      16        0.000001276016     0.000000976888    -0.000000214073
      17       -0.000000923556    -0.000000645065    -0.000002052925

  **** Optimization is complete! (in 7 steps) ****
    Final optimized geometry and variables:
    Molecular point group: c1

    Geometry (in Angstrom), charge = 0, multiplicity = 1:

    O            0.751148886201     1.294002299283     0.106948809329
    C            0.570112370333     0.124535753479     0.084351365308
    C           -0.773917039030    -0.555677709900     0.055433963230
    O            1.553434821687    -0.760277998606     0.085430769840
    C           -1.967795130694     0.395911145273     0.065954653012
    H           -0.799248681999    -1.214958049315    -0.805965921566
    H           -0.804944580492    -1.224141401028     0.909950686954
    C           -3.229744505383    -0.240038990832    -0.503739311717
    H           -1.711659109121     1.300914761503    -0.468253906571
    H           -2.152906232034     0.713345666767     1.086815424097
    H           -3.095734955903    -0.512617246795    -1.545206148384
    H           -4.067632537352     0.444137071206    -0.445881284181
    H           -3.500155962811    -1.139245282544     0.040358836469
    C            2.875428621515    -0.261362476230     0.114178297603
    H            3.070155489193     0.352981367935    -0.752345980120
    H            3.519691834370    -1.125509879923     0.109979631834
    H            3.042664206803     0.324089629057     1.006070676831

  Mulliken Charges: (a.u.)
   Center  Symbol    Alpha    Beta     Spin     Total
       1     O     4.19615  4.19615  0.00000 -0.39231
       2     C     2.80374  2.80374  0.00000  0.39252
       3     C     3.09936  3.09936  0.00000 -0.19872
       4     O     4.14719  4.14719  0.00000 -0.29439
       5     C     3.08244  3.08244  0.00000 -0.16487
       6     H     0.44139  0.44139  0.00000  0.11723
       7     H     0.43921  0.43921  0.00000  0.12159
       8     C     3.14994  3.14994  0.00000 -0.29988
       9     H     0.44019  0.44019  0.00000  0.11961
      10     H     0.45215  0.45215  0.00000  0.09570
      11     H     0.45516  0.45516  0.00000  0.08967
      12     H     0.44634  0.44634  0.00000  0.10732
      13     H     0.45575  0.45575  0.00000  0.08849
      14     C     3.03694  3.03694  0.00000 -0.07387
      15     H     0.45432  0.45432  0.00000  0.09136
      16     H     0.44534  0.44534  0.00000  0.10932
      17     H     0.45438  0.45438  0.00000  0.09123

   Total alpha = 28.00000, Total beta = 28.00000, Total charge = -0.00000

*** Psi4 exiting successfully. Buy a developer a beer!
