                              Psi4 1.0.54 Driver

  ==> Input File <==

--------------------------------------------------------------------------
set {
	reference rhf
	basis cc-pvtz
}

set_num_threads( 4 )
memory 2 gb

molecule MOL {
0 1

H	 -3.144994	 -1.202467	 -0.018751
O	 -2.321472	 -0.864941	 -0.318626
C	 -2.021813	 0.336996	 0.342658
C	 -0.669613	 0.837286	 -0.127252
H	 -2.780861	 1.084746	 0.127159
H	 -2.006390	 0.184138	 1.420053
C	 0.490865	 -0.082543	 0.241244
H	 -0.708709	 0.967192	 -1.204587
H	 -0.507562	 1.822272	 0.303070
C	 1.839800	 0.429565	 -0.255472
H	 0.305636	 -1.070211	 -0.165276
H	 0.527397	 -0.195943	 1.322876
C	 2.386141	 1.582229	 0.580390
H	 2.555991	 -0.387601	 -0.252033
H	 1.747272	 0.748328	 -1.290613
H	 2.523155	 1.283792	 1.614352
H	 3.344527	 1.921652	 0.204101
H	 1.708090	 2.429328	 0.569693

	symmetry c1
}
set optking {
	frozen_dihedral = ("
		14 10 7 11
	")
}

ee,wfn = optimize('scf', return_wfn=True)
oeprop( wfn, 'DIPOLE', 'QUADRUPOLE', 'MULLIKEN_CHARGES')
f=open( 'psi4out.xyz', 'w' )
f.write( "18  " )
f.write( str(ee) + "\n" )
f.write( MOL.save_string_xyz() )
f.close()
--------------------------------------------------------------------------

    Molecular point group: c1
  Charge       = 0
  Multiplicity = 1
  Basis Set: CC-PVTZ
  Basis Set:
  @DF-RHF Final Energy:  -271.28463736646637
    Total Energy =                       -271.2846373664665407
    Molecular point group: c1
  Basis Set: CC-PVTZ
  Basis Set:
  Basis Set: CC-PVTZ
  Basis Set:
  @DF-RHF Final Energy:  -271.28485519581534
    Total Energy =                       -271.2848551958155099
  Basis Set: CC-PVTZ
  Basis Set:
  Basis Set: CC-PVTZ
  Basis Set:
  @DF-RHF Final Energy:  -271.28488469930750
    Total Energy =                       -271.2848846993074403
  Basis Set: CC-PVTZ
  Basis Set:
  Charge       = 0
  Multiplicity = 1
  Basis Set: CC-PVTZ
  Basis Set:

    Orbital Energies (a.u.)
    -----------------------

    Doubly Occupied:

       1A    -20.546183     2A    -11.265967     3A    -11.210274
       4A    -11.209307     5A    -11.205027     6A    -11.203906
       7A     -1.364112     8A     -1.076139     9A     -1.008224
      10A     -0.916045    11A     -0.828149    12A     -0.775875
      13A     -0.708499    14A     -0.636951    15A     -0.615612
      16A     -0.609842    17A     -0.570839    18A     -0.551210
      19A     -0.523474    20A     -0.506385    21A     -0.494714
      22A     -0.462383    23A     -0.457515    24A     -0.449970
      25A     -0.430771

  @DF-RHF Final Energy:  -271.28488542690332

   => Energetics <=

    Nuclear Repulsion Energy =            251.2190841735710762
    One-Electron Energy =                -865.7531961722140750
    Two-Electron Energy =                 343.2492265717395981
    DFT Exchange-Correlation Energy =       0.0000000000000000
    Empirical Dispersion Energy =           0.0000000000000000
    PCM Polarization Energy =               0.0000000000000000
    EFP Energy =                            0.0000000000000000
    Total Energy =                       -271.2848854269033723
    Molecular point group: c1
  Basis Set: CC-PVTZ
  Basis Set:

  -Total Gradient:
     Atom            X                  Y                   Z
    ------   -----------------  -----------------  -----------------
       1        0.000006684256     0.000011343176     0.000007814451
       2        0.000035079140    -0.000034318449     0.000013514517
       3       -0.000036694698     0.000049603019    -0.000046600047
       4        0.000003536976    -0.000004488382     0.000045953284
       5       -0.000020963617     0.000009665210     0.000010786461
       6        0.000012698734    -0.000014123038    -0.000024263014
       7       -0.001061054896     0.000843394204    -0.002109324595
       8        0.000005185701    -0.000009796355     0.000002220435
       9        0.000000758592    -0.000024679610     0.000001629680
      10        0.000739581580     0.000330429723     0.002348562535
      11        0.000769650911    -0.000741044578     0.001426619626
      12       -0.000004913161     0.000000205692    -0.000006496542
      13       -0.000012340845     0.000017911067     0.000014476821
      14       -0.000446699472    -0.000373913773    -0.001661124704
      15        0.000004754096     0.000006077578     0.000003262384
      16       -0.000010222983    -0.000014090090    -0.000006805331
      17       -0.000013417420    -0.000014525157    -0.000012154041
      18        0.000028377112    -0.000037650238    -0.000008071920

  **** Optimization is complete! (in 4 steps) ****
    Final optimized geometry and variables:
    Molecular point group: c1

    Geometry (in Angstrom), charge = 0, multiplicity = 1:

    H           -3.032011312340    -1.578601335701    -0.111958219627
    O           -2.212532093283    -1.227733812492    -0.407297693016
    C           -1.929521982010    -0.028537239172     0.266059018835
    C           -0.582711277851     0.494591693521    -0.195220513623
    H           -2.697742832307     0.711442149607     0.056202183573
    H           -1.914333950295    -0.191763575849     1.341877771998
    C            0.584610484181    -0.423025524172     0.161319736007
    H           -0.621067387606     0.635087113607    -1.271313655419
    H           -0.440349185266     1.475985540332     0.246693826253
    C            1.947526386825     0.079341846700    -0.322137852476
    H            0.399406784430    -1.406721187212    -0.251289222514
    H            0.617912667054    -0.554097891152     1.241503842890
    C            2.522012579394     1.235551657033     0.491610538706
    H            2.649407068921    -0.748417392048    -0.310553069747
    H            1.866476930202     0.378558504235    -1.364122060635
    H            2.648833182914     0.953009563272     1.531649378095
    H            3.492049703269     1.533748029226     0.110296395291
    H            1.879747637337     2.108247244097     0.462972139462

  Mulliken Charges: (a.u.)
   Center  Symbol    Alpha    Beta     Spin     Total
       1     H     0.39573  0.39573  0.00000  0.20854
       2     O     4.19860  4.19860  0.00000 -0.39721
       3     C     2.97272  2.97272  0.00000  0.05456
       4     C     3.09088  3.09088  0.00000 -0.18175
       5     H     0.46524  0.46524  0.00000  0.06952
       6     H     0.47331  0.47331  0.00000  0.05338
       7     C     3.09488  3.09488  0.00000 -0.18976
       8     H     0.45227  0.45227  0.00000  0.09547
       9     H     0.45432  0.45432  0.00000  0.09137
      10     C     3.09065  3.09065  0.00000 -0.18131
      11     H     0.43898  0.43898  0.00000  0.12204
      12     H     0.45994  0.45994  0.00000  0.08012
      13     C     3.14948  3.14948  0.00000 -0.29895
      14     H     0.44830  0.44830  0.00000  0.10339
      15     H     0.45576  0.45576  0.00000  0.08849
      16     H     0.45572  0.45572  0.00000  0.08857
      17     H     0.44757  0.44757  0.00000  0.10486
      18     H     0.45566  0.45566  0.00000  0.08868

   Total alpha = 25.00000, Total beta = 25.00000, Total charge =  0.00000

*** Psi4 exiting successfully. Buy a developer a beer!
