  ==> Input File <==

--------------------------------------------------------------------------
set {
	reference rhf
	basis 6-31G*
}

set_num_threads( 1 )
memory 2 gb

molecule MOL {
0 1

H	 0.606056	 4.757400	 -0.297165
N	 -0.183773	 4.148682	 -0.392962
C	 0.204047	 2.762221	 -0.176519
H	 -0.534462	 4.273934	 -1.323638
C	 -1.016541	 1.849308	 -0.226606
H	 0.660252	 2.697240	 0.806595
H	 0.950684	 2.408730	 -0.892045
C	 -0.679275	 0.379305	 0.025956
H	 -1.737640	 2.200325	 0.505951
H	 -1.494304	 1.947138	 -1.201033
C	 -1.903357	 -0.536963	 -0.023547
H	 -0.199072	 0.281262	 0.998397
H	 0.049896	 0.041196	 -0.708781
C	 -3.225172	 0.228290	 0.028445
H	 -1.867824	 -1.134999	 -0.931459
H	 -1.860449	 -1.239604	 0.805977
H	 -3.313397	 0.915643	 -0.808262
H	 -4.073500	 -0.448134	 -0.008893
H	 -3.306061	 0.809945	 0.942516

	symmetry c1
}
set optking {
	frozen_dihedral = ("
		6 3 5 9,
		12 8 5 9,
		1 2 3 6
	")
}

ee = energy('scf')
oeprop('DIPOLE', 'QUADRUPOLE', 'MULLIKEN_CHARGES')
f=open( 'psi4out.xyz', 'w' )
f.write( "19  " )
f.write( str(ee) + "\n" )
f.write( MOL.save_string_xyz() )
f.close()
--------------------------------------------------------------------------

    Molecular point group: c1

    Geometry (in Angstrom), charge = 0, multiplicity = 1:

       Center              X                  Y                   Z               Mass
    ------------   -----------------  -----------------  -----------------  -----------------
           H          1.734155974832     3.242818405754    -0.158271468724     1.007825032070
           N          0.944326974832     2.634100405754    -0.254068468724    14.003074004780
           C          1.332146974832     1.247639405754    -0.037625468724    12.000000000000
           H          0.593637974832     2.759352405754    -1.184744468724     1.007825032070
           C          0.111558974832     0.334726405754    -0.087712468724    12.000000000000
           H          1.788351974832     1.182658405754     0.945488531276     1.007825032070
           H          2.078783974832     0.894148405754    -0.753151468724     1.007825032070
           C          0.448824974832    -1.135276594246     0.164849531276    12.000000000000
           H         -0.609540025168     0.685743405754     0.644844531276     1.007825032070
           H         -0.366204025168     0.432556405754    -1.062139468724     1.007825032070
           C         -0.775257025168    -2.051544594246     0.115346531276    12.000000000000
           H          0.929027974832    -1.233319594246     1.137290531276     1.007825032070
           H          1.177995974832    -1.473385594246    -0.569887468724     1.007825032070
           C         -2.097072025168    -1.286291594246     0.167338531276    12.000000000000
           H         -0.739724025168    -2.649580594246    -0.792565468724     1.007825032070
           H         -0.732349025168    -2.754185594246     0.944870531276     1.007825032070
           H         -2.185297025168    -0.598938594246    -0.669368468724     1.007825032070
           H         -2.945400025168    -1.962715594246     0.130000531276     1.007825032070
           H         -2.177961025168    -0.704636594246     1.081409531276     1.007825032070

  Charge       = 0
  Multiplicity = 1
  Basis Set: 6-31G*
  Basis Set:

    Orbital Energies (a.u.)
    -----------------------

    Doubly Occupied:

       1A    -15.531924     2A    -11.238523     3A    -11.212366
       4A    -11.211230     5A    -11.207880     6A    -11.204346
       7A     -1.175970     8A     -1.076133     9A     -0.989591
      10A     -0.905298    11A     -0.829232    12A     -0.766349
      13A     -0.664385    14A     -0.643431    15A     -0.610010
      16A     -0.599798    17A     -0.575207    18A     -0.534272
      19A     -0.530577    20A     -0.500386    21A     -0.490412
      22A     -0.458314    23A     -0.452741    24A     -0.442504
      25A     -0.380444

  @DF-RHF Final Energy:  -251.33921887482575

   => Energetics <=

    Nuclear Repulsion Energy =            252.1540983541394212
    One-Electron Energy =                -838.5239618811267519
    Two-Electron Energy =                 335.0306446521622092
    DFT Exchange-Correlation Energy =       0.0000000000000000
    Empirical Dispersion Energy =           0.0000000000000000
    PCM Polarization Energy =               0.0000000000000000
    EFP Energy =                            0.0000000000000000
    Total Energy =                       -251.3392188748250646

  Mulliken Charges: (a.u.)
   Center  Symbol    Alpha    Beta     Spin     Total
       1     H     0.33253  0.33253  0.00000  0.33493
       2     N     3.92199  3.92199  0.00000 -0.84398
       3     C     3.05825  3.05825  0.00000 -0.11650
       4     H     0.33560  0.33560  0.00000  0.32879
       5     C     3.15841  3.15841  0.00000 -0.31682
       6     H     0.42137  0.42137  0.00000  0.15726
       7     H     0.43534  0.43534  0.00000  0.12933
       8     C     3.15844  3.15844  0.00000 -0.31688
       9     H     0.40943  0.40943  0.00000  0.18115
      10     H     0.42685  0.42685  0.00000  0.14629
      11     C     3.15343  3.15343  0.00000 -0.30686
      12     H     0.42164  0.42164  0.00000  0.15672
      13     H     0.42184  0.42184  0.00000  0.15631
      14     C     3.24586  3.24586  0.00000 -0.49172
      15     H     0.42161  0.42161  0.00000  0.15679
      16     H     0.42015  0.42015  0.00000  0.15970
      17     H     0.41889  0.41889  0.00000  0.16221
      18     H     0.41895  0.41895  0.00000  0.16211
      19     H     0.41942  0.41942  0.00000  0.16117

   Total alpha = 25.00000, Total beta = 25.00000, Total charge =  0.00000
