  ==> Input File <==

--------------------------------------------------------------------------
set {
	reference rhf
	basis 6-31G*
}

set_num_threads( 4 )
memory 2 gb

molecule MOL {
0 1

H	 -0.000158	 1.970498	 0.756846
O	 -0.000074	 1.880206	 -0.189275
C	 -0.000015	 0.544847	 -0.545111
C	 1.146727	 0.265166	 -1.510900
C	 -1.372044	 0.150758	 -1.081981
H	 0.178468	 -0.034704	 0.348404
F	 2.292428	 0.557433	 -0.933410
F	 1.188539	 -0.996422	 -1.883734
F	 1.039716	 1.013279	 -2.597396
F	 -2.283740	 0.349827	 -0.154232
F	 -1.423403	 -1.115140	 -1.438693
F	 -1.696179	 0.888796	 -2.131654

	symmetry c1
}
set optking {
	frozen_dihedral = ("
		6 3 2 1
	")
}

ee = optimize('scf')
oeprop('DIPOLE', 'QUADRUPOLE', 'MULLIKEN_CHARGES')
f=open( 'psi4out.xyz', 'w' )
f.write( "12  " )
f.write( str(ee) + "\n" )
f.write( MOL.save_string_xyz() )
f.close()
--------------------------------------------------------------------------

    Molecular point group: c1
  Charge       = 0
  Multiplicity = 1
  Basis Set: 6-31G*
  Basis Set:
  @DF-RHF Final Energy:  -786.27360733298349
    Total Energy =                       -786.2736073329839428
    Molecular point group: c1
  Basis Set: 6-31G*
  Basis Set:
  Basis Set: 6-31G*
  Basis Set:
  @DF-RHF Final Energy:  -786.27524579371959
    Total Energy =                       -786.2752457937194777
  Basis Set: 6-31G*
  Basis Set:
  Basis Set: 6-31G*
  Basis Set:
  @DF-RHF Final Energy:  -786.27554923267053
    Total Energy =                       -786.2755492326700733
  Basis Set: 6-31G*
  Basis Set:
  Basis Set: 6-31G*
  Basis Set:
  @DF-RHF Final Energy:  -786.27557629971989
    Total Energy =                       -786.2755762997198872
  Basis Set: 6-31G*
  Basis Set:
  Basis Set: 6-31G*
  Basis Set:
  @DF-RHF Final Energy:  -786.27558043752038
    Total Energy =                       -786.2755804375206026
  Basis Set: 6-31G*
  Basis Set:
  Charge       = 0
  Multiplicity = 1
  Basis Set: 6-31G*
  Basis Set:

    Orbital Energies (a.u.)
    -----------------------

    Doubly Occupied:

       1A    -26.354970     2A    -26.354667     3A    -26.354346
       4A    -26.352772     5A    -26.352140     6A    -26.351203
       7A    -20.616804     8A    -11.520017     9A    -11.519620
      10A    -11.349571    11A     -1.757420    12A     -1.751670
      13A     -1.653506    14A     -1.651624    15A     -1.649176
      16A     -1.648413    17A     -1.434412    18A     -1.101659
      19A     -0.990679    20A     -0.931111    21A     -0.858199
      22A     -0.854345    23A     -0.849068    24A     -0.836659
      25A     -0.825981    26A     -0.777996    27A     -0.766638
      28A     -0.724138    29A     -0.717473    30A     -0.716022
      31A     -0.710444    32A     -0.677143    33A     -0.672422
      34A     -0.665315    35A     -0.663600    36A     -0.654879
      37A     -0.649492    38A     -0.619189    39A     -0.616525
      40A     -0.558408    41A     -0.504367

  @DF-RHF Final Energy:  -786.27558100158967

   => Energetics <=

    Nuclear Repulsion Energy =            669.6425985774765195
    One-Electron Energy =               -2426.6081884780946893
    Two-Electron Energy =                 970.6900088990282711
    DFT Exchange-Correlation Energy =       0.0000000000000000
    Empirical Dispersion Energy =           0.0000000000000000
    PCM Polarization Energy =               0.0000000000000000
    EFP Energy =                            0.0000000000000000
    Total Energy =                       -786.2755810015898987
    Molecular point group: c1
  Basis Set: 6-31G*
  Basis Set:

  -Total Gradient:
     Atom            X                  Y                   Z
    ------   -----------------  -----------------  -----------------
       1        0.000606091326     0.000022828673     0.000011537215
       2       -0.000917288060    -0.000036038927     0.000052460222
       3        0.000844278560     0.000092172639    -0.000115999685
       4       -0.000034450470     0.000112160586    -0.000090836492
       5        0.000003530905     0.000082121819    -0.000114365901
       6       -0.000536931777    -0.000007769610     0.000077927137
       7        0.000028249904    -0.000014243747     0.000031151140
       8       -0.000019213658    -0.000102185243    -0.000014789264
       9       -0.000008801506    -0.000039293671     0.000069116035
      10       -0.000016972476    -0.000012832411     0.000046091414
      11        0.000029563019    -0.000075638941    -0.000002452941
      12        0.000021944223    -0.000021281167     0.000050161118

  **** Optimization is complete! (in 6 steps) ****
    Final optimized geometry and variables:
    Molecular point group: c1

    Geometry (in Angstrom), charge = 0, multiplicity = 1:

    H            0.118311672177     1.636761801423     2.005210646532
    O            0.116022735102     1.520229158204     1.066469149427
    C            0.116695839020     0.176596632876     0.730238443210
    C            1.260152836397    -0.055639213909    -0.248798162195
    C           -1.257482363374    -0.186978183076     0.180558734577
    H            0.292764864692    -0.472108009185     1.579568297514
    F            2.402745814921     0.228875467335     0.346581643023
    F            1.308547530026    -1.318471702154    -0.630672085022
    F            1.157558793883     0.694738960842    -1.320994579870
    F           -2.165435264197     0.064500294542     1.107306939208
    F           -1.331329185312    -1.471125978325    -0.114952273480
    F           -1.566970525878     0.501507724439    -0.893443651930

  Mulliken Charges: (a.u.)
   Center  Symbol    Alpha    Beta     Spin     Total
       1     H     0.26416  0.26416  0.00000  0.47167
       2     O     4.36168  4.36168  0.00000 -0.72335
       3     C     3.05779  3.05779  0.00000 -0.11558
       4     C     2.43429  2.43429  0.00000  1.13142
       5     C     2.43600  2.43600  0.00000  1.12800
       6     H     0.38671  0.38671  0.00000  0.22658
       7     F     4.68017  4.68017  0.00000 -0.36035
       8     F     4.67799  4.67799  0.00000 -0.35597
       9     F     4.67062  4.67062  0.00000 -0.34125
      10     F     4.68259  4.68259  0.00000 -0.36518
      11     F     4.67736  4.67736  0.00000 -0.35472
      12     F     4.67064  4.67064  0.00000 -0.34129

   Total alpha = 41.00000, Total beta = 41.00000, Total charge = -0.00000
