  ==> Input File <==

--------------------------------------------------------------------------
set {
	reference rhf
	basis 6-31G*
}

set_num_threads( 4 )
memory 2 gb

molecule MOL {
0 1

H	 -3.161837	 0.500524	 -0.000234
C	 -2.367097	 -0.232926	 -0.000000
O	 -1.158440	 0.455814	 -0.000122
H	 -2.468853	 -0.861886	 -0.882833
H	 -2.468942	 -0.861421	 0.883154
C	 -0.029776	 -0.365156	 0.000148
C	 1.212217	 0.508981	 0.000007
H	 -0.036772	 -1.013236	 -0.877259
H	 -0.036869	 -1.012778	 0.877897
C	 1.009412	 1.812390	 -0.771276
H	 1.484074	 0.720952	 1.029484
H	 2.032157	 -0.057870	 -0.430199
H	 0.208066	 2.406878	 -0.341332
H	 1.910723	 2.415908	 -0.755478
H	 0.759309	 1.622530	 -1.811375

	symmetry c1
}
set optking {
	frozen_dihedral = ("
		11 7 6 8
	")
}

ee = optimize('scf')
oeprop('DIPOLE', 'QUADRUPOLE', 'MULLIKEN_CHARGES')
f=open( 'psi4out.xyz', 'w' )
f.write( "15  " )
f.write( str(ee) + "\n" )
f.write( MOL.save_string_xyz() )
f.close()
--------------------------------------------------------------------------

    Molecular point group: c1
  Charge       = 0
  Multiplicity = 1
  Basis Set: 6-31G*
  Basis Set:
  @DF-RHF Final Energy:  -232.13511651101385
    Total Energy =                       -232.1351165110140187
    Molecular point group: c1
  Basis Set: 6-31G*
  Basis Set:
  Basis Set: 6-31G*
  Basis Set:
  @DF-RHF Final Energy:  -232.13585923933968
    Total Energy =                       -232.1358592393395952
  Basis Set: 6-31G*
  Basis Set:
  Basis Set: 6-31G*
  Basis Set:
  @DF-RHF Final Energy:  -232.13632933741783
    Total Energy =                       -232.1363293374178625
  Basis Set: 6-31G*
  Basis Set:
  Basis Set: 6-31G*
  Basis Set:
  @DF-RHF Final Energy:  -232.13635120656417
    Total Energy =                       -232.1363512065640862
  Basis Set: 6-31G*
  Basis Set:
  Basis Set: 6-31G*
  Basis Set:
  @DF-RHF Final Energy:  -232.13635401458521
    Total Energy =                       -232.1363540145852653
  Basis Set: 6-31G*
  Basis Set:
  Charge       = 0
  Multiplicity = 1
  Basis Set: 6-31G*
  Basis Set:

    Orbital Energies (a.u.)
    -----------------------

    Doubly Occupied:

       1A    -20.555134     2A    -11.267040     3A    -11.265096
       4A    -11.215439     5A    -11.201742     6A     -1.380219
       7A     -1.051464     8A     -0.949626     9A     -0.890017
      10A     -0.795317    11A     -0.670926    12A     -0.659569
      13A     -0.634988    14A     -0.597900    15A     -0.556325
      16A     -0.543395    17A     -0.504696    18A     -0.484495
      19A     -0.472943    20A     -0.459122    21A     -0.411730

  @DF-RHF Final Energy:  -232.13635421642994

   => Energetics <=

    Nuclear Repulsion Energy =            193.1857810133918747
    One-Electron Energy =                -697.5099036842559599
    Two-Electron Energy =                 272.1877684544341491
    DFT Exchange-Correlation Energy =       0.0000000000000000
    Empirical Dispersion Energy =           0.0000000000000000
    PCM Polarization Energy =               0.0000000000000000
    EFP Energy =                            0.0000000000000000
    Total Energy =                       -232.1363542164299361
    Molecular point group: c1
  Basis Set: 6-31G*
  Basis Set:

  -Total Gradient:
     Atom            X                  Y                   Z
    ------   -----------------  -----------------  -----------------
       1       -0.000005727000    -0.000002396133    -0.000000276621
       2        0.000000962426     0.000011987094     0.000001694312
       3       -0.000017516619     0.000008466695     0.000003141941
       4        0.000002905564    -0.000000219932     0.000000810691
       5        0.000002265499    -0.000000425174    -0.000001275925
       6       -0.002754441275     0.004093179504    -0.003763612338
       7       -0.003527503436     0.004967049499     0.000672914301
       8        0.002879659610    -0.004226699961     0.003022272485
       9        0.000002388106     0.000002694755    -0.000002561255
      10       -0.000003290907    -0.000001957958     0.000003772447
      11        0.003417256025    -0.004853166830     0.000061592884
      12        0.000001543753    -0.000002220199     0.000001868997
      13       -0.000000382956     0.000002013839    -0.000002407909
      14        0.000001674074     0.000000477808    -0.000000556947
      15        0.000000207133     0.000001216990     0.000002622937

  **** Optimization is complete! (in 6 steps) ****
    Final optimized geometry and variables:
    Molecular point group: c1

    Geometry (in Angstrom), charge = 0, multiplicity = 1:

    H           -2.901543157358    -0.012144220304     0.214920368852
    C           -2.081747481052    -0.716428210526     0.176732685822
    O           -0.897834710727     0.013967347378     0.181035286650
    H           -2.175592757517    -1.317724231318    -0.725873153831
    H           -2.145284943751    -1.378071134019     1.038872124195
    C            0.255061734113    -0.767421796163     0.127765468454
    C            1.504168532466     0.111011766854     0.166355042152
    H            0.262486568309    -1.398477437624    -0.761941215892
    H            0.273373320460    -1.454740996629     0.974714081280
    C            1.392049903139     1.400836097478    -0.642023553580
    H            1.776170821834     0.315171214395     1.197902649821
    H            2.324834469779    -0.487495035427    -0.224912670978
    H            0.620301867851     2.046622733175    -0.244320519830
    H            2.333474818237     1.941257687546    -0.625592180272
    H            1.146324898421     1.190563787003    -1.678834738226

  Mulliken Charges: (a.u.)
   Center  Symbol    Alpha    Beta     Spin     Total
       1     H     0.41201  0.41201  0.00000  0.17598
       2     C     3.07930  3.07930  0.00000 -0.15861
       3     O     4.30280  4.30280  0.00000 -0.60559
       4     H     0.42979  0.42979  0.00000  0.14041
       5     H     0.43002  0.43002  0.00000  0.13997
       6     C     2.98687  2.98687  0.00000  0.02626
       7     C     3.16556  3.16556  0.00000 -0.33113
       8     H     0.43274  0.43274  0.00000  0.13451
       9     H     0.43130  0.43130  0.00000  0.13740
      10     C     3.23556  3.23556  0.00000 -0.47112
      11     H     0.41777  0.41777  0.00000  0.16446
      12     H     0.42300  0.42300  0.00000  0.15401
      13     H     0.40746  0.40746  0.00000  0.18508
      14     H     0.42319  0.42319  0.00000  0.15361
      15     H     0.42263  0.42263  0.00000  0.15475

   Total alpha = 21.00000, Total beta = 21.00000, Total charge = -0.00000
