  ==> Input File <==

--------------------------------------------------------------------------
set {
	reference rhf
	basis 6-31G*
}

set_num_threads( 4 )
memory 2 gb

molecule MOL {
0 1

O	 0.923486	 4.398267	 0.508661
C	 -0.145403	 4.852523	 0.780480
C	 -1.409005	 4.011007	 0.770499
C	 -0.310596	 6.310881	 1.156056
C	 -1.181702	 2.552514	 0.384018
H	 -1.863895	 4.081271	 1.757680
H	 -2.118398	 4.483021	 0.091996
C	 -2.475874	 1.737112	 0.385301
H	 -0.465931	 2.110210	 1.069706
H	 -0.720939	 2.512335	 -0.597934
C	 -2.259874	 0.272531	 0.000494
H	 -2.934443	 1.784568	 1.371967
H	 -3.189761	 2.187073	 -0.303151
C	 -3.549786	 -0.549746	 -0.000374
H	 -1.546934	 -0.178480	 0.688480
H	 -1.802298	 0.223846	 -0.986041
C	 -4.809590	 0.315458	 -0.000369
H	 -3.560515	 -1.202009	 -0.871156
H	 -3.561123	 -1.202955	 0.869711
H	 -4.844746	 0.956611	 -0.876632
H	 -5.706986	 -0.295590	 -0.001609
H	 -4.845960	 0.954827	 0.877144
H	 -0.737958	 6.400074	 2.150553
H	 0.650512	 6.805304	 1.130517
H	 -0.990511	 6.804477	 0.467789

	symmetry c1
}
set optking {
	frozen_dihedral = ("
		15 11 14 18
	")
}

ee = optimize('scf')
oeprop('DIPOLE', 'QUADRUPOLE', 'MULLIKEN_CHARGES')
f=open( 'psi4out.xyz', 'w' )
f.write( "25  " )
f.write( str(ee) + "\n" )
f.write( MOL.save_string_xyz() )
f.close()
--------------------------------------------------------------------------

    Molecular point group: c1
  Charge       = 0
  Multiplicity = 1
  Basis Set: 6-31G*
  Basis Set:
  @DF-RHF Final Energy:  -387.12429079314290
    Total Energy =                       -387.1242907931437003
    Molecular point group: c1
  Basis Set: 6-31G*
  Basis Set:
  Basis Set: 6-31G*
  Basis Set:
  @DF-RHF Final Energy:  -387.12455926330466
    Total Energy =                       -387.1245592633050592
  Basis Set: 6-31G*
  Basis Set:
  Basis Set: 6-31G*
  Basis Set:
  @DF-RHF Final Energy:  -387.12758608141854
    Total Energy =                       -387.1275860814183716
  Basis Set: 6-31G*
  Basis Set:
  Basis Set: 6-31G*
  Basis Set:
  @DF-RHF Final Energy:  -387.12794196329452
    Total Energy =                       -387.1279419632944609
  Basis Set: 6-31G*
  Basis Set:
  @DF-RHF Final Energy:  -387.12796303363922
    Total Energy =                       -387.1279630336393893
  Basis Set: 6-31G*
  Basis Set:
  @DF-RHF Final Energy:  -387.12780140762862
    Total Energy =                       -387.1278014076283398
  Basis Set: 6-31G*
  Basis Set:
  Basis Set: 6-31G*
  Basis Set:
  @DF-RHF Final Energy:  -387.12798109606706
    Total Energy =                       -387.1279810960675150
  Basis Set: 6-31G*
  Basis Set:
  Basis Set: 6-31G*
  Basis Set:
  @DF-RHF Final Energy:  -387.12798233014536
    Total Energy =                       -387.1279823301450733
  Basis Set: 6-31G*
  Basis Set:
  Charge       = 0
  Multiplicity = 1
  Basis Set: 6-31G*
  Basis Set:

    Orbital Energies (a.u.)
    -----------------------

    Doubly Occupied:

       1A    -20.550367     2A    -11.326204     3A    -11.231724
       4A    -11.228274     5A    -11.216654     6A    -11.216129
       7A    -11.215941     8A    -11.214141     9A    -11.208880
      10A     -1.395670    11A     -1.092256    12A     -1.053321
      13A     -1.012932    14A     -0.966619    15A     -0.896741
      16A     -0.826699    17A     -0.771953    18A     -0.729037
      19A     -0.660921    20A     -0.651564    21A     -0.630064
      22A     -0.623941    23A     -0.598651    24A     -0.593573
      25A     -0.560935    26A     -0.556141    27A     -0.547395
      28A     -0.522513    29A     -0.510875    30A     -0.493393
      31A     -0.490725    32A     -0.478124    33A     -0.456895
      34A     -0.451302    35A     -0.450450    36A     -0.399335

  @DF-RHF Final Energy:  -387.12798270941551

   => Energetics <=

    Nuclear Repulsion Energy =            443.4362462252853447
    One-Electron Energy =               -1403.4677862331286633
    Two-Electron Energy =                 572.9035572984278133
    DFT Exchange-Correlation Energy =       0.0000000000000000
    Empirical Dispersion Energy =           0.0000000000000000
    PCM Polarization Energy =               0.0000000000000000
    EFP Energy =                            0.0000000000000000
    Total Energy =                       -387.1279827094155053
    Molecular point group: c1
  Basis Set: 6-31G*
  Basis Set:

  -Total Gradient:
     Atom            X                  Y                   Z
    ------   -----------------  -----------------  -----------------
       1       -0.000012039421     0.000013896867    -0.000015815475
       2        0.000016543679    -0.000015959064     0.000077246641
       3       -0.000006971633    -0.000012002422    -0.000006021345
       4        0.000004787365     0.000004584870    -0.000013014919
       5        0.000026217847    -0.000042824341    -0.000001813749
       6        0.000017674278     0.000014591650    -0.000009738396
       7       -0.000017259446    -0.000002484215    -0.000005587755
       8        0.000056321764     0.000033895117    -0.000052096222
       9        0.000018975456     0.000000810049    -0.000009000739
      10        0.000008640560     0.000010417105     0.000004419246
      11        0.001878429090    -0.002677777258    -0.005291036979
      12       -0.000034760035    -0.000038012364     0.000003681170
      13        0.000045245765    -0.000011869525    -0.000009956721
      14        0.002633068233    -0.003649901091     0.004339274281
      15       -0.001994894216     0.002935425162     0.003792586520
      16        0.000010158084     0.000045080274     0.000013523101
      17       -0.000010948012    -0.000071436660     0.000032053592
      18       -0.002613109776     0.003516625870    -0.002801324346
      19       -0.000056357040     0.000000016050    -0.000013682446
      20        0.000024193380    -0.000003448194    -0.000011645833
      21        0.000013492676    -0.000028884064    -0.000015064060
      22       -0.000006813051    -0.000026567820     0.000006971987
      23        0.000003257378    -0.000016934854    -0.000013336424
      24        0.000000889401     0.000004960544     0.000001460686
      25       -0.000004742325     0.000017798311    -0.000002081814

  **** Optimization is complete! (in 9 steps) ****
    Final optimized geometry and variables:
    Molecular point group: c1

    Geometry (in Angstrom), charge = 0, multiplicity = 1:

    O            2.654503519426     1.721679472651     0.059613406067
    C            1.598465395368     2.199149707419     0.341671266916
    C            0.315451144553     1.387422926311     0.336570442536
    C            1.470043509123     3.659012563434     0.725777299176
    C            0.505846368998    -0.074171110642    -0.058384180904
    H           -0.130532740054     1.463624705911     1.327355903556
    H           -0.387432542997     1.879398564443    -0.334478096311
    C           -0.807984481218    -0.858680102579    -0.051219792404
    H            1.217164155382    -0.535576174408     0.619312029661
    H            0.958230620646    -0.119909151981    -1.044110784722
    C           -0.601976515462    -2.325694211437    -0.449298436024
    H           -1.250803336287    -0.807531164666     0.941838725218
    H           -1.513313803700    -0.380385607200    -0.725856483366
    C           -1.860311483061    -3.231824911996    -0.420505992992
    H            0.128282868878    -2.731858542843     0.245548199654
    H           -0.150511749502    -2.354731201285    -1.436745656417
    C           -3.216092108977    -2.518982643972    -0.482087257509
    H           -1.823797138866    -3.894545040505    -1.280332971178
    H           -1.839938503955    -3.859201289606     0.465115694921
    H           -3.311549721182    -1.916592015164    -1.380543440194
    H           -4.017784741060    -3.251242459915    -0.495168467973
    H           -3.381270353778    -1.870775521031     0.371680202166
    H            1.051696153891     3.752819030995     1.723656946024
    H            2.442258532309     4.130977466120     0.696141200637
    H            0.797178426727     4.172106613667     0.044843622861

  Mulliken Charges: (a.u.)
   Center  Symbol    Alpha    Beta     Spin     Total
       1     O     4.26119  4.26119  0.00000 -0.52238
       2     C     2.73572  2.73572  0.00000  0.52856
       3     C     3.21055  3.21055  0.00000 -0.42110
       4     C     3.28665  3.28665  0.00000 -0.57329
       5     C     3.14791  3.14791  0.00000 -0.29581
       6     H     0.41014  0.41014  0.00000  0.17972
       7     H     0.41007  0.41007  0.00000  0.17987
       8     C     3.15694  3.15694  0.00000 -0.31388
       9     H     0.41239  0.41239  0.00000  0.17521
      10     H     0.41240  0.41240  0.00000  0.17521
      11     C     3.15522  3.15522  0.00000 -0.31045
      12     H     0.42470  0.42470  0.00000  0.15060
      13     H     0.42273  0.42273  0.00000  0.15455
      14     C     3.15432  3.15432  0.00000 -0.30864
      15     H     0.42002  0.42002  0.00000  0.15996
      16     H     0.42003  0.42003  0.00000  0.15995
      17     C     3.24240  3.24240  0.00000 -0.48479
      18     H     0.42004  0.42004  0.00000  0.15992
      19     H     0.42041  0.42041  0.00000  0.15918
      20     H     0.42199  0.42199  0.00000  0.15602
      21     H     0.41927  0.41927  0.00000  0.16145
      22     H     0.42098  0.42098  0.00000  0.15805
      23     H     0.40877  0.40877  0.00000  0.18246
      24     H     0.39647  0.39647  0.00000  0.20705
      25     H     0.40870  0.40870  0.00000  0.18261

   Total alpha = 36.00000, Total beta = 36.00000, Total charge =  0.00000
