  ==> Input File <==

--------------------------------------------------------------------------
set {
	reference rhf
	basis cc-pvtz
}

set_num_threads( 4 )
memory 2 gb

molecule MOL {
0 1

O	 0.793603	 1.973151	 -0.397469
C	 -0.104525	 2.064792	 -1.162995
C	 -1.366156	 1.240800	 -1.134953
O	 -0.114985	 2.925692	 -2.167545
C	 -1.413045	 0.229353	 0.001137
H	 -2.200059	 1.932921	 -1.079676
H	 -1.451614	 0.752135	 -2.100025
C	 -2.702562	 -0.586401	 0.000228
H	 -1.307438	 0.748295	 0.947227
H	 -0.558751	 -0.433991	 -0.074378
C	 -3.953810	 0.284959	 -0.000782
H	 -2.717793	 -1.238567	 -0.869075
H	 -2.719108	 -1.238472	 0.869576
H	 -3.983727	 0.924403	 -0.876454
H	 -4.852989	 -0.320147	 -0.001515
H	 -3.985140	 0.924399	 0.874841
C	 1.011778	 3.766160	 -2.313619
H	 1.144864	 4.381477	 -1.436179
H	 0.812885	 4.383640	 -3.174448
H	 1.905624	 3.181410	 -2.472772

	symmetry c1
}
set optking {
	frozen_dihedral = ("
		9 5 8 12
	")
}

ee = optimize('scf')
oeprop('DIPOLE', 'QUADRUPOLE', 'MULLIKEN_CHARGES')
f=open( 'psi4out.xyz', 'w' )
f.write( "20  " )
f.write( str(ee) + "\n" )
f.write( MOL.save_string_xyz() )
f.close()
--------------------------------------------------------------------------

    Molecular point group: c1
  Charge       = 0
  Multiplicity = 1
  Basis Set: CC-PVTZ
  Basis Set:
  @DF-RHF Final Energy:  -384.07976895333945
    Total Energy =                       -384.0797689533399080
    Molecular point group: c1
  Basis Set: CC-PVTZ
  Basis Set:
  Basis Set: CC-PVTZ
  Basis Set:
  @DF-RHF Final Energy:  -384.08060493847364
    Total Energy =                       -384.0806049384743801
  Basis Set: CC-PVTZ
  Basis Set:
  Basis Set: CC-PVTZ
  Basis Set:
  @DF-RHF Final Energy:  -384.08121991935997
    Total Energy =                       -384.0812199193597962
  Basis Set: CC-PVTZ
  Basis Set:
  Basis Set: CC-PVTZ
  Basis Set:
  @DF-RHF Final Energy:  -384.08077054661578
    Total Energy =                       -384.0807705466162361
  Basis Set: CC-PVTZ
  Basis Set:
  Basis Set: CC-PVTZ
  Basis Set:
  @DF-RHF Final Energy:  -384.08128398750574
    Total Energy =                       -384.0812839875060263
  Basis Set: CC-PVTZ
  Basis Set:
  Basis Set: CC-PVTZ
  Basis Set:
  @DF-RHF Final Energy:  -384.08128936372157
    Total Energy =                       -384.0812893637216803
  Basis Set: CC-PVTZ
  Basis Set:
  Charge       = 0
  Multiplicity = 1
  Basis Set: CC-PVTZ
  Basis Set:

    Orbital Energies (a.u.)
    -----------------------

    Doubly Occupied:

       1A    -20.596267     2A    -20.534150     3A    -11.364646
       4A    -11.278463     5A    -11.233502     6A    -11.218620
       7A    -11.217407     8A    -11.210988     9A     -1.472214
      10A     -1.365800    11A     -1.089730    12A     -1.023558
      13A     -0.968593    14A     -0.896924    15A     -0.800024
      16A     -0.765393    17A     -0.703809    18A     -0.685979
      19A     -0.675908    20A     -0.636618    21A     -0.610715
      22A     -0.595499    23A     -0.570402    24A     -0.550150
      25A     -0.537274    26A     -0.524339    27A     -0.510316
      28A     -0.474857    29A     -0.470614    30A     -0.469323
      31A     -0.458930    32A     -0.440996

  @DF-RHF Final Energy:  -384.08128962598249

   => Energetics <=

    Nuclear Repulsion Energy =            385.5988601956091202
    One-Electron Energy =               -1287.4562806943424675
    Two-Electron Energy =                 517.7761308727513097
    DFT Exchange-Correlation Energy =       0.0000000000000000
    Empirical Dispersion Energy =           0.0000000000000000
    PCM Polarization Energy =               0.0000000000000000
    EFP Energy =                            0.0000000000000000
    Total Energy =                       -384.0812896259819809
    Molecular point group: c1
  Basis Set: CC-PVTZ
  Basis Set:

  -Total Gradient:
     Atom            X                  Y                   Z
    ------   -----------------  -----------------  -----------------
       1        0.000003648253     0.000022373223    -0.000019032960
       2       -0.000014519490    -0.000010108673     0.000005454793
       3        0.000000613434    -0.000010947637     0.000006666855
       4        0.000020121519    -0.000006962981     0.000019627883
       5       -0.001079724261     0.001540323126    -0.000659060524
       6       -0.000007073537     0.000003115792     0.000000770247
       7       -0.000004051555    -0.000000350727     0.000008835840
       8       -0.000918242965     0.001346401355    -0.001087781758
       9        0.001044372113    -0.001500643526     0.000715881109
      10       -0.000006023255    -0.000002646649     0.000001254787
      11        0.000013197970    -0.000004759250    -0.000005406539
      12        0.000933811863    -0.001372446527     0.001022626451
      13       -0.000010188015    -0.000005222467     0.000004198548
      14        0.000002275551    -0.000000156378    -0.000002705144
      15        0.000002684296    -0.000007521266     0.000003990299
      16        0.000009466908    -0.000003559478    -0.000004097145
      17        0.000002191899     0.000007057680    -0.000011580221
      18       -0.000000234161    -0.000000289522     0.000000235374
      19        0.000007203406     0.000004812561    -0.000000132832
      20        0.000000470027     0.000001531349     0.000000254937

  **** Optimization is complete! (in 7 steps) ****
    Final optimized geometry and variables:
    Molecular point group: c1

    Geometry (in Angstrom), charge = 0, multiplicity = 1:

    O            1.770559984492     0.429136257203     0.500535465709
    C            0.870321792934     0.560081982744    -0.256644871163
    C           -0.425114426268    -0.210197983492    -0.221663265851
    O            0.886655259903     1.424983574846    -1.257913562190
    C           -0.495724100041    -1.224666876728     0.911513635732
    H           -1.222751976937     0.520527642693    -0.162615691355
    H           -0.536242616499    -0.693613594188    -1.187325338279
    C           -1.750176307220    -2.099621444441     0.891931486479
    H           -0.418458412105    -0.714934063300     1.865740555066
    H            0.375685087479    -1.866040193963     0.855783275198
    C           -3.073742278104    -1.342365945385     0.954618003613
    H           -1.731363465232    -2.739282497443     0.013340185504
    H           -1.694843875569    -2.771970775693     1.742319579756
    H           -3.242905770655    -0.741627840027     0.068742465793
    H           -3.905260613819    -2.032001811388     1.040735405575
    H           -3.103982715413    -0.680904282203     1.814650755203
    C            2.045663161433     2.219015927591    -1.410664479645
    H            2.211129323180     2.825204394061    -0.532374706193
    H            1.865294801728     2.847287344180    -2.267777723617
    H            2.913471473479     1.598729984461    -1.579190559011

  Mulliken Charges: (a.u.)
   Center  Symbol    Alpha    Beta     Spin     Total
       1     O     4.19662  4.19662  0.00000 -0.39324
       2     C     2.80600  2.80600  0.00000  0.38801
       3     C     3.10232  3.10232  0.00000 -0.20465
       4     O     4.14699  4.14699  0.00000 -0.29399
       5     C     3.08969  3.08969  0.00000 -0.17938
       6     H     0.43837  0.43837  0.00000  0.12326
       7     H     0.43974  0.43974  0.00000  0.12052
       8     C     3.09394  3.09394  0.00000 -0.18789
       9     H     0.44583  0.44583  0.00000  0.10834
      10     H     0.44148  0.44148  0.00000  0.11705
      11     C     3.15523  3.15523  0.00000 -0.31047
      12     H     0.45354  0.45354  0.00000  0.09292
      13     H     0.44670  0.44670  0.00000  0.10659
      14     H     0.45402  0.45402  0.00000  0.09197
      15     H     0.44486  0.44486  0.00000  0.11028
      16     H     0.45289  0.45289  0.00000  0.09423
      17     C     3.03791  3.03791  0.00000 -0.07581
      18     H     0.45436  0.45436  0.00000  0.09127
      19     H     0.44524  0.44524  0.00000  0.10953
      20     H     0.45427  0.45427  0.00000  0.09146

   Total alpha = 32.00000, Total beta = 32.00000, Total charge = -0.00000
