  ==> Input File <==

--------------------------------------------------------------------------
set {
	reference rhf
	basis cc-pvtz
}

set_num_threads( 4 )
memory 2 gb

molecule MOL {
0 1

H	 -3.642953	 0.223825	 0.000000
C	 -2.571844	 0.155001	 0.000000
C	 -1.957580	 -1.086132	 0.000000
C	 -1.807160	 1.303787	 0.000000
H	 -2.551493	 -1.979629	 0.000000
C	 -0.582719	 -1.174294	 0.000000
H	 -2.279934	 2.266806	 0.000000
C	 -0.427220	 1.213406	 0.000000
H	 -0.094904	 -2.127556	 0.000000
C	 0.196908	 -0.024061	 0.000000
H	 0.151409	 2.115254	 0.000000
C	 1.690041	 -0.173233	 0.000000
C	 2.307085	 -1.384676	 -0.660547
O	 2.379342	 0.649935	 0.512464
H	 1.955290	 -2.297054	 -0.193872
H	 3.378944	 -1.320288	 -0.562038
H	 2.042331	 -1.425823	 -1.710400

	symmetry c1
}
set optking {
	frozen_dihedral = ("
		13 12 10 8
	")
}

ee = optimize('scf')
oeprop('DIPOLE', 'QUADRUPOLE', 'MULLIKEN_CHARGES')
f=open( 'psi4out.xyz', 'w' )
f.write( "17  " )
f.write( str(ee) + "\n" )
f.write( MOL.save_string_xyz() )
f.close()
--------------------------------------------------------------------------

    Molecular point group: c1
  Charge       = 0
  Multiplicity = 1
  Basis Set: CC-PVTZ
  Basis Set:
  @DF-RHF Final Energy:  -382.60212358177057
    Total Energy =                       -382.6021235817701154
    Molecular point group: c1
  Basis Set: CC-PVTZ
  Basis Set:
  Basis Set: CC-PVTZ
  Basis Set:
  @DF-RHF Final Energy:  -382.60228817002900
    Total Energy =                       -382.6022881700287144
  Basis Set: CC-PVTZ
  Basis Set:
  Basis Set: CC-PVTZ
  Basis Set:
  @DF-RHF Final Energy:  -382.60349040962961
    Total Energy =                       -382.6034904096295577
  Basis Set: CC-PVTZ
  Basis Set:
  Basis Set: CC-PVTZ
  Basis Set:
  @DF-RHF Final Energy:  -382.60403526768187
    Total Energy =                       -382.6040352676820930
  Basis Set: CC-PVTZ
  Basis Set:
  @DF-RHF Final Energy:  -382.60409727734697
    Total Energy =                       -382.6040972773466819
  Basis Set: CC-PVTZ
  Basis Set:
  @DF-RHF Final Energy:  -382.60410769185052
    Total Energy =                       -382.6041076918502313
  Basis Set: CC-PVTZ
  Basis Set:
  Basis Set: CC-PVTZ
  Basis Set:
  @DF-RHF Final Energy:  -382.60411330040330
    Total Energy =                       -382.6041133004033554
  Basis Set: CC-PVTZ
  Basis Set:
  Basis Set: CC-PVTZ
  Basis Set:
  @DF-RHF Final Energy:  -382.60411472332720
    Total Energy =                       -382.6041147233272568
  Basis Set: CC-PVTZ
  Basis Set:
  Charge       = 0
  Multiplicity = 1
  Basis Set: CC-PVTZ
  Basis Set:

    Orbital Energies (a.u.)
    -----------------------

    Doubly Occupied:

       1A    -20.541669     2A    -11.328122     3A    -11.246215
       4A    -11.243382     5A    -11.243246     6A    -11.239610
       7A    -11.239170     8A    -11.237100     9A    -11.229423
      10A     -1.402760    11A     -1.171303    12A     -1.053534
      13A     -1.030703    14A     -0.999266    15A     -0.864350
      16A     -0.839616    17A     -0.764004    18A     -0.711642
      19A     -0.660296    20A     -0.651788    21A     -0.627973
      22A     -0.615979    23A     -0.603060    24A     -0.596153
      25A     -0.557928    26A     -0.530314    27A     -0.519796
      28A     -0.504671    29A     -0.497120    30A     -0.414481
      31A     -0.350333    32A     -0.347067

  @DF-RHF Final Energy:  -382.60411474854095

   => Energetics <=

    Nuclear Repulsion Energy =            404.3711397427033489
    One-Electron Energy =               -1320.2263575824551936
    Two-Electron Energy =                 533.2511030912108936
    DFT Exchange-Correlation Energy =       0.0000000000000000
    Empirical Dispersion Energy =           0.0000000000000000
    PCM Polarization Energy =               0.0000000000000000
    EFP Energy =                            0.0000000000000000
    Total Energy =                       -382.6041147485409510
    Molecular point group: c1
  Basis Set: CC-PVTZ
  Basis Set:

  -Total Gradient:
     Atom            X                  Y                   Z
    ------   -----------------  -----------------  -----------------
       1        0.000000720078     0.000003728931    -0.000005318874
       2       -0.000010965601    -0.000070325794     0.000021091591
       3       -0.000066355842     0.000036324830    -0.000003876103
       4        0.000061482566     0.000030073076    -0.000004860953
       5        0.000002124893    -0.000001885727     0.000000583398
       6       -0.000063255832    -0.000088456581    -0.000017823490
       7       -0.000002562291    -0.000000668566     0.000001915885
       8       -0.000065307321     0.000022113514    -0.002793878302
       9       -0.000006094531    -0.000001589590     0.000001250557
      10        0.000168487568     0.000656335652     0.002989436528
      11       -0.000002165456     0.000002059242     0.000005657918
      12       -0.000114178894    -0.001825615606     0.001946218621
      13        0.000088677177     0.001276809875    -0.002161268262
      14        0.000006080171    -0.000043051794     0.000026059565
      15        0.000000201749     0.000005441972    -0.000001462900
      16        0.000002866302    -0.000001021059    -0.000001175087
      17        0.000000245266    -0.000000272377    -0.000002550092

  **** Optimization is complete! (in 9 steps) ****
    Final optimized geometry and variables:
    Molecular point group: c1

    Geometry (in Angstrom), charge = 0, multiplicity = 1:

    H           -3.631598185527     0.335996277412    -0.003932938682
    C           -2.562865072572     0.237980212043     0.007905305280
    C           -1.984726291881    -1.015861371688     0.005866384076
    C           -1.764079281464     1.368199474511     0.021283974056
    H           -2.601094464936    -1.894011201755    -0.003597395923
    C           -0.607899619305    -1.140858728817     0.008553442558
    H           -2.212031975312     2.343145811830     0.015561266096
    C           -0.391202627409     1.242301045090     0.044222751064
    H           -0.172824190546    -2.120755901255    -0.004137605722
    C            0.198465296911    -0.014328835854     0.043243859922
    H            0.236872616948     2.110004164438     0.067358299538
    C            1.696945491099    -0.097954981142     0.034725890974
    C            2.350780746522    -1.287357764337    -0.630504286690
    O            2.352813522575     0.781060396147     0.493696289628
    H            2.150243671610    -2.197196657430    -0.076602777964
    H            3.416471834770    -1.123918545847    -0.664056674110
    H            1.962547913153    -1.420642033382    -1.632775371346

  Mulliken Charges: (a.u.)
   Center  Symbol    Alpha    Beta     Spin     Total
       1     H     0.42050  0.42050  0.00000  0.15901
       2     C     3.07589  3.07589  0.00000 -0.15178
       3     C     3.07203  3.07203  0.00000 -0.14407
       4     C     3.07135  3.07135  0.00000 -0.14270
       5     H     0.42195  0.42195  0.00000  0.15609
       6     C     3.08779  3.08779  0.00000 -0.17559
       7     H     0.42052  0.42052  0.00000  0.15895
       8     C     3.08181  3.08181  0.00000 -0.16362
       9     H     0.42281  0.42281  0.00000  0.15437
      10     C     2.99495  2.99495  0.00000  0.01011
      11     H     0.40976  0.40976  0.00000  0.18048
      12     C     2.85094  2.85094  0.00000  0.29813
      13     C     3.16304  3.16304  0.00000 -0.32609
      14     O     4.17915  4.17915  0.00000 -0.35829
      15     H     0.44994  0.44994  0.00000  0.10011
      16     H     0.43295  0.43295  0.00000  0.13410
      17     H     0.44461  0.44461  0.00000  0.11078

   Total alpha = 32.00000, Total beta = 32.00000, Total charge = -0.00000
