                              Psi4 1.0.54 Driver

  ==> Input File <==

--------------------------------------------------------------------------
set {
	reference rhf
	basis cc-pvtz
}

set_num_threads( 4 )
memory 2 gb

molecule MOL {
0 1

H	 1.166964	 -1.062386	 0.758429
O	 1.324748	 -0.612467	 -0.052206
C	 0.706474	 0.636793	 -0.025501
C	 1.236665	 1.619073	 -1.031311
H	 0.856569	 1.032009	 0.972286
H	 -0.369066	 0.540196	 -0.161823
C	 2.267461	 1.427215	 -1.824379
H	 0.698556	 2.551703	 -1.074762
H	 2.838834	 0.519006	 -1.798639
H	 2.580903	 2.183339	 -2.518707

	symmetry c1
}
set optking {
	frozen_dihedral = ("
		5 3 2 1
	")
}

ee,wfn = optimize('scf', return_wfn=True)
oeprop( wfn, 'DIPOLE', 'QUADRUPOLE', 'MULLIKEN_CHARGES')
f=open( 'psi4out.xyz', 'w' )
f.write( "10  " )
f.write( str(ee) + "\n" )
f.write( MOL.save_string_xyz() )
f.close()
--------------------------------------------------------------------------

    Molecular point group: c1
  Charge       = 0
  Multiplicity = 1
  Basis Set: CC-PVTZ
  Basis Set:
  @DF-RHF Final Energy:  -191.99596142390965
    Total Energy =                       -191.9959614239098471
    Molecular point group: c1
  Basis Set: CC-PVTZ
  Basis Set:
  Basis Set: CC-PVTZ
  Basis Set:
  @DF-RHF Final Energy:  -191.86954679782792
    Total Energy =                       -191.8695467978279225
  Basis Set: CC-PVTZ
  Basis Set:
  Basis Set: CC-PVTZ
  Basis Set:
  @DF-RHF Final Energy:  -191.97204079750776
    Total Energy =                       -191.9720407975079581
  Basis Set: CC-PVTZ
  Basis Set:
  Basis Set: CC-PVTZ
  Basis Set:
  @DF-RHF Final Energy:  -191.99695058903330
    Total Energy =                       -191.9969505890333892
  Basis Set: CC-PVTZ
  Basis Set:
  Basis Set: CC-PVTZ
  Basis Set:
  @DF-RHF Final Energy:  -191.99739239931699
    Total Energy =                       -191.9973923993168512
  Basis Set: CC-PVTZ
  Basis Set:
  Basis Set: CC-PVTZ
  Basis Set:
  @DF-RHF Final Energy:  -191.99755099270482
    Total Energy =                       -191.9975509927048165
  Basis Set: CC-PVTZ
  Basis Set:
  Basis Set: CC-PVTZ
  Basis Set:
  @DF-RHF Final Energy:  -191.99755708996005
    Total Energy =                       -191.9975570899600257
  Basis Set: CC-PVTZ
  Basis Set:
  Charge       = 0
  Multiplicity = 1
  Basis Set: CC-PVTZ
  Basis Set:

    Orbital Energies (a.u.)
    -----------------------

    Doubly Occupied:

       1A    -20.553743     2A    -11.278126     3A    -11.223750
       4A    -11.207817     5A     -1.373968     6A     -1.058555
       7A     -0.926081     8A     -0.756727     9A     -0.713959
      10A     -0.641789    11A     -0.618004    12A     -0.592743
      13A     -0.517656    14A     -0.490091    15A     -0.457582
      16A     -0.360384

  @DF-RHF Final Energy:  -191.99755739704875

   => Energetics <=

    Nuclear Repulsion Energy =            119.6330401303849129
    One-Electron Energy =                -497.7192446976277438
    Two-Electron Energy =                 186.0886471701940366
    DFT Exchange-Correlation Energy =       0.0000000000000000
    Empirical Dispersion Energy =           0.0000000000000000
    PCM Polarization Energy =               0.0000000000000000
    EFP Energy =                            0.0000000000000000
    Total Energy =                       -191.9975573970487801
    Molecular point group: c1
  Basis Set: CC-PVTZ
  Basis Set:

  -Total Gradient:
     Atom            X                  Y                   Z
    ------   -----------------  -----------------  -----------------
       1        0.000442060125     0.000265556441     0.000673410280
       2       -0.000705562479    -0.000463440466    -0.000885495371
       3        0.000799412411     0.000656367604     0.000450565899
       4       -0.000051726641    -0.000003640759    -0.000075371835
       5       -0.000550009774    -0.000484512773    -0.000173598715
       6        0.000023024045     0.000007868950    -0.000006953304
       7        0.000009467830    -0.000003883143    -0.000102404480
       8        0.000022636177     0.000008036051     0.000029532291
       9        0.000001604638     0.000011395030     0.000045421867
      10        0.000009093669     0.000006253061     0.000044893368

  **** Optimization is complete! (in 8 steps) ****
    Final optimized geometry and variables:
    Molecular point group: c1

    Geometry (in Angstrom), charge = 0, multiplicity = 1:

    H           -0.131745338090    -2.172136145868     0.563411336525
    O            0.119982862900    -1.399360794160     0.094007403698
    C           -0.818096851700    -0.385699137479     0.303821590640
    C           -0.247163004058     0.956735260057    -0.034972812981
    H           -1.153210998235    -0.375082190680     1.339335107242
    H           -1.702827526107    -0.552679602580    -0.308664072296
    C            0.983036275274     1.188775299158    -0.432664235628
    H           -0.941658893649     1.773697960082     0.067415512729
    H            1.694513732179     0.394863046934    -0.545478814050
    H            1.309736006833     2.186435112326    -0.657462192557

  Mulliken Charges: (a.u.)
   Center  Symbol    Alpha    Beta     Spin     Total
       1     H     0.39398  0.39398  0.00000  0.21204
       2     O     4.19214  4.19214  0.00000 -0.38428
       3     C     2.93865  2.93865  0.00000  0.12270
       4     C     3.08160  3.08160  0.00000 -0.16319
       5     H     0.47513  0.47513  0.00000  0.04973
       6     H     0.47357  0.47357  0.00000  0.05285
       7     C     3.17037  3.17037  0.00000 -0.34073
       8     H     0.42399  0.42399  0.00000  0.15201
       9     H     0.42028  0.42028  0.00000  0.15943
      10     H     0.43029  0.43029  0.00000  0.13943

   Total alpha = 16.00000, Total beta = 16.00000, Total charge = -0.00000

*** Psi4 exiting successfully. Buy a developer a beer!
