                              Psi4 1.0.54 Driver

  ==> Input File <==

--------------------------------------------------------------------------
set {
	reference rhf
	basis cc-pvtz
}

set_num_threads( 4 )
memory 2 gb

molecule MOL {
0 1

H	 -3.436473	 1.252944	 -1.023892
O	 -3.458596	 0.315260	 -0.960865
C	 -3.176635	 -0.080824	 0.355601
C	 -1.763371	 0.265266	 0.799691
H	 -3.321825	 -1.153438	 0.379502
H	 -3.895468	 0.357385	 1.043382
C	 -0.673390	 -0.426948	 -0.013392
H	 -1.631049	 1.344913	 0.747560
H	 -1.664587	 -0.001624	 1.849167
C	 0.737842	 -0.043159	 0.423759
H	 -0.806103	 -0.190518	 -1.063345
H	 -0.797221	 -1.503753	 0.074146
C	 1.813136	 -0.946163	 -0.177385
H	 0.923664	 0.989998	 0.146368
H	 0.803435	 -0.084168	 1.509057
C	 3.238231	 -0.652149	 0.294324
H	 1.774137	 -0.876702	 -1.262052
H	 1.575973	 -1.977868	 0.067480
C	 3.790566	 0.700891	 -0.147665
H	 3.891817	 -1.433323	 -0.081664
H	 3.278282	 -0.720649	 1.378355
H	 3.757509	 0.800502	 -1.227971
H	 4.823333	 0.814156	 0.161858
H	 3.231908	 1.525934	 0.277553

	symmetry c1
}
set optking {
	frozen_dihedral = ("
		13 10 7 11
	")
}

ee,wfn = optimize('scf', return_wfn=True)
oeprop( wfn, 'DIPOLE', 'QUADRUPOLE', 'MULLIKEN_CHARGES')
f=open( 'psi4out.xyz', 'w' )
f.write( "24  " )
f.write( str(ee) + "\n" )
f.write( MOL.save_string_xyz() )
f.close()
--------------------------------------------------------------------------

    Molecular point group: c1
  Charge       = 0
  Multiplicity = 1
  Basis Set: CC-PVTZ
  Basis Set:
  @DF-RHF Final Energy:  -349.37989723882947
    Total Energy =                       -349.3798972388290167
    Molecular point group: c1
  Basis Set: CC-PVTZ
  Basis Set:
  Basis Set: CC-PVTZ
  Basis Set:
  @DF-RHF Final Energy:  -349.37993702808927
    Total Energy =                       -349.3799370280891026
  Basis Set: CC-PVTZ
  Basis Set:
  Basis Set: CC-PVTZ
  Basis Set:
  @DF-RHF Final Energy:  -349.37997117027902
    Total Energy =                       -349.3799711702789068
  Basis Set: CC-PVTZ
  Basis Set:
  Basis Set: CC-PVTZ
  Basis Set:
  @DF-RHF Final Energy:  -349.37996987917899
    Total Energy =                       -349.3799698791793844
  Basis Set: CC-PVTZ
  Basis Set:
  Basis Set: CC-PVTZ
  Basis Set:
  @DF-RHF Final Energy:  -349.37997708134804
    Total Energy =                       -349.3799770813481587
  Basis Set: CC-PVTZ
  Basis Set:
  Charge       = 0
  Multiplicity = 1
  Basis Set: CC-PVTZ
  Basis Set:

    Orbital Energies (a.u.)
    -----------------------

    Doubly Occupied:

       1A    -20.546315     2A    -11.265466     3A    -11.215075
       4A    -11.212106     5A    -11.210207     6A    -11.209489
       7A    -11.208879     8A    -11.205255     9A     -1.364147
      10A     -1.089690    11A     -1.049382    12A     -0.986572
      13A     -0.916059    14A     -0.851022    15A     -0.801289
      16A     -0.776798    17A     -0.681765    18A     -0.655645
      19A     -0.625176    20A     -0.622187    21A     -0.597473
      22A     -0.583614    23A     -0.562739    24A     -0.538389
      25A     -0.516645    26A     -0.512933    27A     -0.497135
      28A     -0.475204    29A     -0.467477    30A     -0.461162
      31A     -0.454514    32A     -0.451621    33A     -0.421264

  @DF-RHF Final Energy:  -349.37997710422195

   => Energetics <=

    Nuclear Repulsion Energy =            384.7093484615633656
    One-Electron Energy =               -1236.1132683690684644
    Two-Electron Energy =                 502.0239428032834894
    DFT Exchange-Correlation Energy =       0.0000000000000000
    Empirical Dispersion Energy =           0.0000000000000000
    PCM Polarization Energy =               0.0000000000000000
    EFP Energy =                            0.0000000000000000
    Total Energy =                       -349.3799771042215525
    Molecular point group: c1
  Basis Set: CC-PVTZ
  Basis Set:

  -Total Gradient:
     Atom            X                  Y                   Z
    ------   -----------------  -----------------  -----------------
       1        0.000001080120     0.000004252653     0.000003950021
       2       -0.000005129392    -0.000007765061    -0.000004909596
       3       -0.000001507984    -0.000005534456     0.000016869549
       4        0.000008916910     0.000011885735    -0.000016705144
       5       -0.000004166353    -0.000001119508    -0.000009969032
       6       -0.000001061912    -0.000001197498    -0.000000665352
       7        0.000872364751    -0.002871329120    -0.000233652211
       8        0.000002946126     0.000009557984     0.000003370995
       9       -0.000002068265    -0.000000870746    -0.000000484877
      10       -0.000018585496     0.001879205836    -0.001584669858
      11       -0.000741095861     0.001995375394     0.000590509957
      12        0.000001724723    -0.000002481073    -0.000004930727
      13       -0.000110697517    -0.001011654548     0.001241574682
      14        0.000002569957     0.000003777612    -0.000001363530
      15       -0.000001461448     0.000000920814     0.000003430742
      16        0.000000988705    -0.000001284241    -0.000000626612
      17        0.000000608284     0.000000481572    -0.000001174498
      18        0.000003535073    -0.000002358435     0.000001320208
      19       -0.000004271373     0.000002734228    -0.000000768557
      20       -0.000002561774    -0.000001670364     0.000000410663
      21       -0.000001879341    -0.000001093305    -0.000000217131
      22       -0.000000565372     0.000001489505    -0.000002313758
      23        0.000000736345    -0.000001626452     0.000001382171
      24       -0.000000418907     0.000000303473    -0.000000368107

  **** Optimization is complete! (in 6 steps) ****
    Final optimized geometry and variables:
    Molecular point group: c1

    Geometry (in Angstrom), charge = 0, multiplicity = 1:

    H           -3.409723914533     1.374497544318    -1.052002271608
    O           -3.441508660330     0.435559714479    -1.019443162586
    C           -3.186581042987    -0.004616694230     0.288495778584
    C           -1.776679889032     0.309235296157     0.766120307104
    H           -3.345491338142    -1.075541443569     0.276243836168
    H           -3.911577502138     0.421102060070     0.977642637624
    C           -0.681649680024    -0.377695565783    -0.046390066313
    H           -1.628401464102     1.388025320849     0.744305688318
    H           -1.699936653883     0.014157824486     1.809747388742
    C            0.725804747981     0.014139249378     0.399907892219
    H           -0.815718030312    -0.121530420917    -1.091376409308
    H           -0.805303501752    -1.454564362595     0.032785050011
    C            1.814298748079    -0.862332505164    -0.216900750739
    H            0.895914885719     1.057720917713     0.155346289259
    H            0.793460403487    -0.059776065092     1.483560078558
    C            3.238912146564    -0.528973749150     0.229518691272
    H            1.756434014193    -0.801140442992    -1.301529701577
    H            1.606742898747    -1.897664603431     0.038153657113
    C            3.754824728956     0.828391873832    -0.242298909730
    H            3.904614772314    -1.301391852842    -0.143290538910
    H            3.295739420606    -0.579003450938     1.313872632737
    H            3.705363438554     0.908780358096    -1.323536821035
    H            4.788760576650     0.969897604914     0.051320616677
    H            3.183541465592     1.648068626528     0.176423352236

  Mulliken Charges: (a.u.)
   Center  Symbol    Alpha    Beta     Spin     Total
       1     H     0.39532  0.39532  0.00000  0.20935
       2     O     4.20374  4.20374  0.00000 -0.40748
       3     C     2.97762  2.97762  0.00000  0.04476
       4     C     3.10154  3.10154  0.00000 -0.20309
       5     H     0.45890  0.45890  0.00000  0.08220
       6     H     0.46025  0.46025  0.00000  0.07950
       7     C     3.08776  3.08776  0.00000 -0.17552
       8     H     0.45931  0.45931  0.00000  0.08138
       9     H     0.45333  0.45333  0.00000  0.09334
      10     C     3.09175  3.09175  0.00000 -0.18351
      11     H     0.44584  0.44584  0.00000  0.10832
      12     H     0.45527  0.45527  0.00000  0.08946
      13     C     3.09452  3.09452  0.00000 -0.18904
      14     H     0.45228  0.45228  0.00000  0.09544
      15     H     0.45730  0.45730  0.00000  0.08540
      16     C     3.09023  3.09023  0.00000 -0.18045
      17     H     0.45352  0.45352  0.00000  0.09297
      18     H     0.44959  0.44959  0.00000  0.10083
      19     C     3.15209  3.15209  0.00000 -0.30419
      20     H     0.44857  0.44857  0.00000  0.10287
      21     H     0.45535  0.45535  0.00000  0.08929
      22     H     0.45473  0.45473  0.00000  0.09053
      23     H     0.44676  0.44676  0.00000  0.10648
      24     H     0.45442  0.45442  0.00000  0.09116

   Total alpha = 33.00000, Total beta = 33.00000, Total charge = -0.00000

*** Psi4 exiting successfully. Buy a developer a beer!
