  ==> Input File <==

--------------------------------------------------------------------------
set {
	reference rhf
	basis cc-pvtz
}

set_num_threads( 4 )
memory 2 gb

molecule MOL {
0 1

O	 -0.294688	 1.318815	 -0.000872
C	 -0.448732	 0.145721	 -0.000187
C	 -1.780748	 -0.548101	 0.000195
O	 0.550743	 -0.719877	 0.000412
H	 -1.859389	 -1.183260	 -0.872613
H	 -2.570236	 0.185547	 -0.001342
H	 -1.860233	 -1.180337	 0.875064
C	 0.217744	 -2.093986	 0.001202
H	 -0.355755	 -2.346085	 0.880732
H	 1.154575	 -2.626930	 0.001743
H	 -0.355404	 -2.347224	 -0.878227

	symmetry c1
}
set optking {
	frozen_dihedral = ("
		8 4 2 1
	")
}

ee = optimize('scf')
oeprop('DIPOLE', 'QUADRUPOLE', 'MULLIKEN_CHARGES')
f=open( 'psi4out.xyz', 'w' )
f.write( "11  " )
f.write( str(ee) + "\n" )
f.write( MOL.save_string_xyz() )
f.close()
--------------------------------------------------------------------------

    Molecular point group: c1
  Charge       = 0
  Multiplicity = 1
  Basis Set: CC-PVTZ
  Basis Set:
  @DF-RHF Final Energy:  -266.91484553843895
    Total Energy =                       -266.9148455384390104
    Molecular point group: c1
  Basis Set: CC-PVTZ
  Basis Set:
  Basis Set: CC-PVTZ
  Basis Set:
  @DF-RHF Final Energy:  -266.91363017175934
    Total Energy =                       -266.9136301717593938
  Basis Set: CC-PVTZ
  Basis Set:
  Basis Set: CC-PVTZ
  Basis Set:
  @DF-RHF Final Energy:  -266.92259575983576
    Total Energy =                       -266.9225957598357581
  Basis Set: CC-PVTZ
  Basis Set:
  Basis Set: CC-PVTZ
  Basis Set:
  @DF-RHF Final Energy:  -266.92470794594999
    Total Energy =                       -266.9247079459500469
  Basis Set: CC-PVTZ
  Basis Set:
  @DF-RHF Final Energy:  -266.92496781713123
    Total Energy =                       -266.9249678171313462
  Basis Set: CC-PVTZ
  Basis Set:
  @DF-RHF Final Energy:  -266.92524745570051
    Total Energy =                       -266.9252474557006281
  Basis Set: CC-PVTZ
  Basis Set:
  Basis Set: CC-PVTZ
  Basis Set:
  @DF-RHF Final Energy:  -266.92527552860162
    Total Energy =                       -266.9252755286015031
  Basis Set: CC-PVTZ
  Basis Set:
  Basis Set: CC-PVTZ
  Basis Set:
  @DF-RHF Final Energy:  -266.92525088726768
    Total Energy =                       -266.9252508872675662
  Basis Set: CC-PVTZ
  Basis Set:
  Charge       = 0
  Multiplicity = 1
  Basis Set: CC-PVTZ
  Basis Set:

    Orbital Energies (a.u.)
    -----------------------

    Doubly Occupied:

       1A    -20.598237     2A    -20.528841     3A    -11.370665
       4A    -11.295773     5A    -11.243016     6A     -1.468870
       7A     -1.369629     8A     -1.023474     9A     -0.986736
      10A     -0.785977    11A     -0.701172    12A     -0.690386
      13A     -0.681610    14A     -0.599959    15A     -0.598791
      16A     -0.577960    17A     -0.548962    18A     -0.520335
      19A     -0.452285    20A     -0.439219

  @DF-RHF Final Energy:  -266.92527911163847

   => Energetics <=

    Nuclear Repulsion Energy =            183.3012636733071758
    One-Electron Energy =                -727.4892916368080478
    Two-Electron Energy =                 277.2627488518623977
    DFT Exchange-Correlation Energy =       0.0000000000000000
    Empirical Dispersion Energy =           0.0000000000000000
    PCM Polarization Energy =               0.0000000000000000
    EFP Energy =                            0.0000000000000000
    Total Energy =                       -266.9252791116384742
    Molecular point group: c1
  Basis Set: CC-PVTZ
  Basis Set:

  -Total Gradient:
     Atom            X                  Y                   Z
    ------   -----------------  -----------------  -----------------
       1       -0.000000941467     0.000048801626    -0.000032408377
       2        0.000107557961    -0.000127573976     0.000092758242
       3       -0.000016748992     0.000021277055    -0.000032249065
       4       -0.000106474840     0.000013511257    -0.000025972687
       5       -0.000006651665    -0.000002688247    -0.000001113376
       6       -0.000001455192    -0.000002508717    -0.000001331046
       7        0.000005263721     0.000005943054     0.000001485025
       8        0.000013077869     0.000025245906     0.000003495781
       9        0.000008031151    -0.000002949058    -0.000007020878
      10       -0.000005280640     0.000022409904    -0.000000564242
      11        0.000003622095    -0.000001468801     0.000002920623

  **** Optimization is complete! (in 9 steps) ****
    Final optimized geometry and variables:
    Molecular point group: c1

    Geometry (in Angstrom), charge = 0, multiplicity = 1:

    O            0.090165918329     1.682711046932    -0.001203665901
    C           -0.137619136923     0.526388493402    -0.000239813984
    C           -1.541254990940    -0.027291877405    -0.000101365482
    O            0.876103262710    -0.334790780809     0.000173914913
    H           -1.715556083470    -0.640651508349    -0.874924664327
    H           -2.226843402662     0.803097472788    -0.001152670054
    H           -1.715993700122    -0.638749465107     0.875971261996
    C            0.695912263916    -1.728086292586     0.001317643404
    H            0.170829258098    -2.063505857368     0.885820119483
    H            1.685663651757    -2.154400536360     0.001448489637
    H            0.170465685659    -2.064893357444    -0.882446230109

  Mulliken Charges: (a.u.)
   Center  Symbol    Alpha    Beta     Spin     Total
       1     O     4.18080  4.18080  0.00000 -0.36160
       2     C     2.81195  2.81195  0.00000  0.37611
       3     C     3.16629  3.16629  0.00000 -0.33259
       4     O     4.12624  4.12624  0.00000 -0.25248
       5     H     0.44689  0.44689  0.00000  0.10621
       6     H     0.42519  0.42519  0.00000  0.14962
       7     H     0.44689  0.44689  0.00000  0.10621
       8     C     3.04132  3.04132  0.00000 -0.08265
       9     H     0.46111  0.46111  0.00000  0.07778
      10     H     0.43218  0.43218  0.00000  0.13564
      11     H     0.46112  0.46112  0.00000  0.07776

   Total alpha = 20.00000, Total beta = 20.00000, Total charge =  0.00000
