  ==> Input File <==

--------------------------------------------------------------------------
set {
	reference rhf
	basis cc-pvtz
}

set_num_threads( 4 )
memory 2 gb

molecule MOL {
0 1

H	 1.243627	 -2.262415	 0.354384
C	 0.281206	 -1.784499	 0.426316
O	 0.462329	 -0.453336	 -0.000137
H	 -0.058567	 -1.821973	 1.453628
H	 -0.422978	 -2.305395	 -0.210105
C	 -0.590565	 0.341382	 0.000062
O	 -1.693898	 -0.053880	 0.000252
H	 -0.340426	 1.403822	 0.000200

	symmetry c1
}
set optking {
	frozen_dihedral = ("
		2 3 6 7
	")
}

ee = optimize('scf')
oeprop('DIPOLE', 'QUADRUPOLE', 'MULLIKEN_CHARGES')
f=open( 'psi4out.xyz', 'w' )
f.write( "8  " )
f.write( str(ee) + "\n" )
f.write( MOL.save_string_xyz() )
f.close()
--------------------------------------------------------------------------

    Molecular point group: c1
  Charge       = 0
  Multiplicity = 1
  Basis Set: CC-PVTZ
  Basis Set:
  @DF-RHF Final Energy:  -227.87519455936774
    Total Energy =                       -227.8751945593675430
    Molecular point group: c1
  Basis Set: CC-PVTZ
  Basis Set:
  Basis Set: CC-PVTZ
  Basis Set:
  @DF-RHF Final Energy:  -227.87260209356555
    Total Energy =                       -227.8726020935655470
  Basis Set: CC-PVTZ
  Basis Set:
  Basis Set: CC-PVTZ
  Basis Set:
  @DF-RHF Final Energy:  -227.87523272127999
    Total Energy =                       -227.8752327212799855
  Basis Set: CC-PVTZ
  Basis Set:
  Basis Set: CC-PVTZ
  Basis Set:
  @DF-RHF Final Energy:  -227.87646642273540
    Total Energy =                       -227.8764664227352910
  Basis Set: CC-PVTZ
  Basis Set:
  Basis Set: CC-PVTZ
  Basis Set:
  @DF-RHF Final Energy:  -227.87647553187065
    Total Energy =                       -227.8764755318705113
  Basis Set: CC-PVTZ
  Basis Set:
  Basis Set: CC-PVTZ
  Basis Set:
  @DF-RHF Final Energy:  -227.87647682510101
    Total Energy =                       -227.8764768251011787
  Basis Set: CC-PVTZ
  Basis Set:
  Charge       = 0
  Multiplicity = 1
  Basis Set: CC-PVTZ
  Basis Set:

    Orbital Energies (a.u.)
    -----------------------

    Doubly Occupied:

       1A    -20.607815     2A    -20.549688     3A    -11.372777
       4A    -11.288034     5A     -1.481343     6A     -1.380337
       7A     -0.998218     8A     -0.820530     9A     -0.747441
      10A     -0.685731    11A     -0.682559    12A     -0.604702
      13A     -0.560366    14A     -0.534332    15A     -0.470145
      16A     -0.461466

  @DF-RHF Final Energy:  -227.87647686933155

   => Energetics <=

    Nuclear Repulsion Energy =            123.8281393715573131
    One-Electron Energy =                -556.9182657805708914
    Two-Electron Energy =                 205.2136495396820521
    DFT Exchange-Correlation Energy =       0.0000000000000000
    Empirical Dispersion Energy =           0.0000000000000000
    PCM Polarization Energy =               0.0000000000000000
    EFP Energy =                            0.0000000000000000
    Total Energy =                       -227.8764768693315261
    Molecular point group: c1
  Basis Set: CC-PVTZ
  Basis Set:

  -Total Gradient:
     Atom            X                  Y                   Z
    ------   -----------------  -----------------  -----------------
       1       -0.000000218086     0.000012468133    -0.000003626124
       2        0.001324585073     0.001457854763     0.004958345481
       3       -0.002145531199    -0.002180818644    -0.011084178401
       4       -0.000000764223    -0.000002894504     0.000002819853
       5       -0.000001318387     0.000000331003    -0.000003791132
       6        0.001144161550     0.000683881331     0.013155046939
       7       -0.000321154601     0.000026151255    -0.007021350311
       8        0.000000239871     0.000003026663    -0.000003266306

  **** Optimization is complete! (in 7 steps) ****
    Final optimized geometry and variables:
    Molecular point group: c1

    Geometry (in Angstrom), charge = 0, multiplicity = 1:

    H            1.662655930026    -1.731212496579     0.264918000530
    C            0.680249235483    -1.289563591859     0.283131400800
    O            0.844996523086     0.048730901542    -0.153606452708
    H            0.280985137755    -1.308230039034     1.286700490860
    H            0.016062960655    -1.829269089853    -0.374781681522
    C           -0.207536261722     0.834997058972    -0.100681701704
    O           -1.329177311281     0.480960560897    -0.046484023353
    H            0.096084046410     1.874569561359    -0.173653063217

  Mulliken Charges: (a.u.)
   Center  Symbol    Alpha    Beta     Spin     Total
       1     H     0.44427  0.44427  0.00000  0.11147
       2     C     3.02749  3.02749  0.00000 -0.05497
       3     O     4.14181  4.14181  0.00000 -0.28361
       4     H     0.45681  0.45681  0.00000  0.08638
       5     H     0.45058  0.45058  0.00000  0.09883
       6     C     2.83699  2.83699  0.00000  0.32602
       7     O     4.19186  4.19186  0.00000 -0.38371
       8     H     0.45020  0.45020  0.00000  0.09959

   Total alpha = 16.00000, Total beta = 16.00000, Total charge = -0.00000
