  ==> Input File <==

--------------------------------------------------------------------------
set {
	reference rhf
	basis 6-31G*
}

set_num_threads( 1 )
memory 2 gb

molecule MOL {
0 1

O	 3.790459	 0.216449	 2.068143
C	 3.002712	 -0.345745	 1.377887
C	 1.507734	 -0.367817	 1.586077
O	 3.347903	 -1.046386	 0.304773
C	 1.059781	 0.436719	 2.804345
H	 1.053421	 -0.005515	 0.669819
H	 1.209138	 -1.409376	 1.673776
C	 -0.442567	 0.338565	 3.090369
H	 1.341571	 1.476829	 2.670610
H	 1.609965	 0.086771	 3.671095
C	 -1.344730	 0.970111	 2.026244
H	 -0.636455	 0.825204	 4.043424
H	 -0.718695	 -0.706387	 3.223927
C	 -2.825618	 0.943949	 2.410022
H	 -1.034566	 2.000663	 1.860174
H	 -1.219280	 0.456395	 1.075807
C	 -3.737153	 1.567731	 1.351660
H	 -2.961817	 1.468124	 3.354440
H	 -3.133697	 -0.085408	 2.586688
C	 -5.213914	 1.541072	 1.744301
H	 -3.430050	 2.596066	 1.173172
H	 -3.605640	 1.042323	 0.408034
H	 -5.834181	 1.989858	 0.974583
H	 -5.384150	 2.088571	 2.667047
H	 -5.560824	 0.522869	 1.896587
C	 4.728119	 -1.109107	 -0.004993
H	 4.882018	 -1.033965	 -1.071845
H	 5.068212	 -2.067527	 0.355250
H	 5.265056	 -0.311663	 0.488280

	symmetry c1
}
set optking {
	frozen_dihedral = ("
		21 17 14 11,
		17 14 11 15,
		15 11 8 5,
		6 3 5 9,
		11 8 5 9,
		1 2 4 26,
		6 3 2 1
	")
}

ee = energy('scf')
oeprop('DIPOLE', 'QUADRUPOLE', 'MULLIKEN_CHARGES')
f=open( 'psi4out.xyz', 'w' )
f.write( "29  " )
f.write( str(ee) + "\n" )
f.write( MOL.save_string_xyz() )
f.close()
--------------------------------------------------------------------------

    Molecular point group: c1

    Geometry (in Angstrom), charge = 0, multiplicity = 1:

       Center              X                  Y                   Z               Mass
    ------------   -----------------  -----------------  -----------------  -----------------
           O          3.399659091222    -0.058227009221     0.382482646561    15.994914619560
           C          2.611912091222    -0.620421009221    -0.307773353439    12.000000000000
           C          1.116934091222    -0.642493009221    -0.099583353439    12.000000000000
           O          2.957103091222    -1.321062009221    -1.380887353439    15.994914619560
           C          0.668981091222     0.162042990779     1.118684646561    12.000000000000
           H          0.662621091222    -0.280191009221    -1.015841353439     1.007825032070
           H          0.818338091222    -1.684052009221    -0.011884353439     1.007825032070
           C         -0.833366908778     0.063888990779     1.404708646561    12.000000000000
           H          0.950771091222     1.202152990779     0.984949646561     1.007825032070
           H          1.219165091222    -0.187905009221     1.985434646561     1.007825032070
           C         -1.735529908778     0.695434990779     0.340583646561    12.000000000000
           H         -1.027254908778     0.550527990779     2.357763646561     1.007825032070
           H         -1.109494908778    -0.981063009221     1.538266646561     1.007825032070
           C         -3.216417908778     0.669272990779     0.724361646561    12.000000000000
           H         -1.425365908778     1.725986990779     0.174513646561     1.007825032070
           H         -1.610079908778     0.181718990779    -0.609853353439     1.007825032070
           C         -4.127952908778     1.293054990779    -0.334000353439    12.000000000000
           H         -3.352616908778     1.193447990779     1.668779646561     1.007825032070
           H         -3.524496908778    -0.360084009221     0.901027646561     1.007825032070
           C         -5.604713908778     1.266395990779     0.058640646561    12.000000000000
           H         -3.820849908778     2.321389990779    -0.512488353439     1.007825032070
           H         -3.996439908778     0.767646990779    -1.277626353439     1.007825032070
           H         -6.224980908778     1.715181990779    -0.711077353439     1.007825032070
           H         -5.774949908778     1.813894990779     0.981386646561     1.007825032070
           H         -5.951623908778     0.248192990779     0.210926646561     1.007825032070
           C          4.337319091222    -1.383783009221    -1.690653353439    12.000000000000
           H          4.491218091222    -1.308641009221    -2.757505353439     1.007825032070
           H          4.677412091222    -2.342203009221    -1.330410353439     1.007825032070
           H          4.874256091222    -0.586339009221    -1.197380353439     1.007825032070

  Charge       = 0
  Multiplicity = 1
  Basis Set: 6-31G*
  Basis Set:

    Orbital Energies (a.u.)
    -----------------------

    Doubly Occupied:

       1A    -20.602797     2A    -20.544412     3A    -11.373155
       4A    -11.276892     5A    -11.235130     6A    -11.219256
       7A    -11.217742     8A    -11.216068     9A    -11.215897
      10A    -11.214521    11A    -11.209083    12A     -1.469234
      13A     -1.362544    14A     -1.098223    15A     -1.066960
      16A     -1.019483    17A     -0.976575    18A     -0.928205
      19A     -0.861558    20A     -0.799194    21A     -0.790437
      22A     -0.762964    23A     -0.702886    24A     -0.682523
      25A     -0.672223    26A     -0.651161    27A     -0.629495
      28A     -0.604632    29A     -0.595321    30A     -0.579666
      31A     -0.567961    32A     -0.549892    33A     -0.533894
      34A     -0.525014    35A     -0.515398    36A     -0.511927
      37A     -0.496864    38A     -0.477957    39A     -0.470230
      40A     -0.462440    41A     -0.458955    42A     -0.452544
      43A     -0.441711    44A     -0.435808

  @DF-RHF Final Energy:  -501.04113751192710

   => Energetics <=

    Nuclear Repulsion Energy =            610.3193427346346880
    One-Electron Energy =               -1891.7633015077062737
    Two-Electron Energy =                 780.4028212611456183
    DFT Exchange-Correlation Energy =       0.0000000000000000
    Empirical Dispersion Energy =           0.0000000000000000
    PCM Polarization Energy =               0.0000000000000000
    EFP Energy =                            0.0000000000000000
    Total Energy =                       -501.0411375119260811

  Mulliken Charges: (a.u.)
   Center  Symbol    Alpha    Beta     Spin     Total
       1     O     4.28663  4.28663  0.00000 -0.57325
       2     C     2.60436  2.60436  0.00000  0.79128
       3     C     3.21032  3.21032  0.00000 -0.42064
       4     O     4.30764  4.30764  0.00000 -0.61529
       5     C     3.15385  3.15385  0.00000 -0.30770
       6     H     0.39858  0.39858  0.00000  0.20285
       7     H     0.40105  0.40105  0.00000  0.19790
       8     C     3.15663  3.15663  0.00000 -0.31325
       9     H     0.41306  0.41306  0.00000  0.17387
      10     H     0.40867  0.40867  0.00000  0.18265
      11     C     3.15508  3.15508  0.00000 -0.31017
      12     H     0.41820  0.41820  0.00000  0.16359
      13     H     0.42384  0.42384  0.00000  0.15231
      14     C     3.15030  3.15030  0.00000 -0.30060
      15     H     0.42261  0.42261  0.00000  0.15479
      16     H     0.42359  0.42359  0.00000  0.15282
      17     C     3.15146  3.15146  0.00000 -0.30293
      18     H     0.42332  0.42332  0.00000  0.15336
      19     H     0.42396  0.42396  0.00000  0.15209
      20     C     3.23935  3.23935  0.00000 -0.47871
      21     H     0.42280  0.42280  0.00000  0.15439
      22     H     0.42341  0.42341  0.00000  0.15317
      23     H     0.41922  0.41922  0.00000  0.16156
      24     H     0.42155  0.42155  0.00000  0.15691
      25     H     0.42182  0.42182  0.00000  0.15636
      26     C     3.10076  3.10076  0.00000 -0.20152
      27     H     0.41088  0.41088  0.00000  0.17825
      28     H     0.41342  0.41342  0.00000  0.17316
      29     H     0.39363  0.39363  0.00000  0.21274

   Total alpha = 44.00000, Total beta = 44.00000, Total charge = -0.00000
