  ==> Input File <==

--------------------------------------------------------------------------
set {
	reference rhf
	basis 6-31G*
}

set_num_threads( 4 )
memory 2 gb

molecule MOL {
0 1

H	 -2.648414	 -2.311582	 0.647738
C	 -2.957226	 -1.521668	 -0.048173
C	 -2.723299	 -0.114793	 0.440284
O	 -3.436797	 -1.804440	 -1.097841
C	 -1.278877	 0.113759	 0.906829
H	 -3.000111	 0.572452	 -0.350778
H	 -3.400357	 0.049777	 1.277640
C	 -0.252658	 0.041456	 -0.226725
H	 -1.221572	 1.087698	 1.383740
H	 -1.028126	 -0.614999	 1.676109
C	 1.180775	 0.282413	 0.250794
H	 -0.510324	 0.775493	 -0.987412
H	 -0.309468	 -0.929772	 -0.714606
C	 2.148627	 -0.814315	 -0.201312
H	 1.516199	 1.249228	 -0.115937
H	 1.192670	 0.346017	 1.338083
C	 3.580890	 -0.659131	 0.322722
H	 2.166869	 -0.852443	 -1.289387
H	 1.762857	 -1.776509	 0.128956
C	 4.324889	 0.564933	 -0.213704
H	 4.142010	 -1.551473	 0.056605
H	 3.564836	 -0.624694	 1.410140
H	 4.342616	 0.565491	 -1.300421
H	 3.866655	 1.493402	 0.110242
H	 5.353900	 0.572371	 0.132816

	symmetry c1
}
set optking {
	frozen_dihedral = ("
		12 8 11 14
	")
}

ee = optimize('scf')
oeprop('DIPOLE', 'QUADRUPOLE', 'MULLIKEN_CHARGES')
f=open( 'psi4out.xyz', 'w' )
f.write( "25  " )
f.write( str(ee) + "\n" )
f.write( MOL.save_string_xyz() )
f.close()
--------------------------------------------------------------------------

    Molecular point group: c1
  Charge       = 0
  Multiplicity = 1
  Basis Set: 6-31G*
  Basis Set:
  @DF-RHF Final Energy:  -387.11664160177861
    Total Energy =                       -387.1166416017782694
    Molecular point group: c1
  Basis Set: 6-31G*
  Basis Set:
  Basis Set: 6-31G*
  Basis Set:
  @DF-RHF Final Energy:  -387.11664455950688
    Total Energy =                       -387.1166445595068808
  Basis Set: 6-31G*
  Basis Set:
  Basis Set: 6-31G*
  Basis Set:
  @DF-RHF Final Energy:  -387.11682595501293
    Total Energy =                       -387.1168259550133826
  Basis Set: 6-31G*
  Basis Set:
  Basis Set: 6-31G*
  Basis Set:
  @DF-RHF Final Energy:  -387.11694842363738
    Total Energy =                       -387.1169484236377230
  Basis Set: 6-31G*
  Basis Set:
  Basis Set: 6-31G*
  Basis Set:
  @DF-RHF Final Energy:  -387.11695353161059
    Total Energy =                       -387.1169535316104202
  Basis Set: 6-31G*
  Basis Set:
  Basis Set: 6-31G*
  Basis Set:
  @DF-RHF Final Energy:  -387.11695599459244
    Total Energy =                       -387.1169559945914216
  Basis Set: 6-31G*
  Basis Set:
  Charge       = 0
  Multiplicity = 1
  Basis Set: 6-31G*
  Basis Set:

    Orbital Energies (a.u.)
    -----------------------

    Doubly Occupied:

       1A    -20.561997     2A    -11.326174     3A    -11.235542
       4A    -11.234466     5A    -11.223714     6A    -11.219591
       7A    -11.218293     8A    -11.217681     9A    -11.210649
      10A     -1.401933    11A     -1.102596    12A     -1.069615
      13A     -1.011648    14A     -0.942405    15A     -0.875819
      16A     -0.821377    17A     -0.787723    18A     -0.782660
      19A     -0.664875    20A     -0.656765    21A     -0.631391
      22A     -0.625327    23A     -0.603940    24A     -0.590962
      25A     -0.580435    26A     -0.553122    27A     -0.532346
      28A     -0.524651    29A     -0.509567    30A     -0.496371
      31A     -0.490529    32A     -0.479527    33A     -0.462443
      34A     -0.455461    35A     -0.441610    36A     -0.409490

  @DF-RHF Final Energy:  -387.11695519584066

   => Energetics <=

    Nuclear Repulsion Energy =            440.0812271479142055
    One-Electron Energy =               -1396.4909728965583326
    Two-Electron Energy =                 569.2927905528038082
    DFT Exchange-Correlation Energy =       0.0000000000000000
    Empirical Dispersion Energy =           0.0000000000000000
    PCM Polarization Energy =               0.0000000000000000
    EFP Energy =                            0.0000000000000000
    Total Energy =                       -387.1169551958403190
    Molecular point group: c1
  Basis Set: 6-31G*
  Basis Set:

  -Total Gradient:
     Atom            X                  Y                   Z
    ------   -----------------  -----------------  -----------------
       1        0.000006474212     0.000004132138    -0.000002630636
       2       -0.000008799817     0.000011102145    -0.000035315117
       3        0.000020254538    -0.000018727315     0.000014897564
       4        0.000001879884    -0.000004011541    -0.000001922950
       5       -0.000025839033     0.000077474961    -0.000023969415
       6       -0.000018881762     0.000014225253     0.000018904026
       7       -0.000012390807    -0.000043226336    -0.000011532446
       8        0.000694903937    -0.001815104032    -0.001272325116
       9        0.000047979799     0.000005838462    -0.000004664412
      10       -0.000005898823     0.000009570241     0.000013161228
      11        0.000245174549     0.001331599328    -0.001281637680
      12       -0.000684395174     0.001177739040     0.001402368971
      13       -0.000023793722    -0.000007391230     0.000004296760
      14       -0.000257878665    -0.000724618759     0.001177513429
      15        0.000004325226    -0.000016735410     0.000007489442
      16        0.000017486621     0.000000336635    -0.000005989709
      17        0.000007977195    -0.000008896548    -0.000010976840
      18        0.000004296187    -0.000013867750     0.000001938504
      19       -0.000016720603     0.000012988130     0.000009389168
      20       -0.000005798347     0.000009217439     0.000006493496
      21        0.000011515845     0.000007869181    -0.000006917838
      22       -0.000001830333    -0.000009884000    -0.000001982757
      23       -0.000002033639    -0.000004777139     0.000006170794
      24        0.000002261660     0.000001993884    -0.000003558432
      25       -0.000000268934     0.000003153226     0.000000799968

  **** Optimization is complete! (in 7 steps) ****
    Final optimized geometry and variables:
    Molecular point group: c1

    Geometry (in Angstrom), charge = 0, multiplicity = 1:

    H           -2.768549975646    -1.869168797066     0.616255230784
    C           -3.056149492743    -1.065839145101    -0.073515001391
    C           -2.804058037311     0.330958431397     0.434687881234
    O           -3.533692636381    -1.328285439620    -1.129426351895
    C           -1.358724739972     0.532113001271     0.909997220467
    H           -3.067191292487     1.032313359039    -0.348770381197
    H           -3.482484714040     0.494583941889     1.271045271350
    C           -0.325798052964     0.448714833626    -0.218767028480
    H           -1.285754741496     1.501958187087     1.393709367271
    H           -1.122965842016    -0.205675677047     1.675376017322
    C            1.119846911670     0.695532460647     0.266347575381
    H           -0.593502329200     1.179954363710    -0.976465049066
    H           -0.393596978965    -0.523884240653    -0.699952665630
    C            2.101852206974    -0.390755189745    -0.183837158315
    H            1.455599869780     1.668576571076    -0.076436616661
    H            1.136156154268     0.740503619404     1.353817992823
    C            3.535975917854    -0.208797274964     0.324846823487
    H            2.110331479739    -0.442816986254    -1.271515644287
    H            1.730495705729    -1.353500000293     0.161787305027
    C            4.261571828281     1.013296235882    -0.241435101775
    H            4.105513568355    -1.099596279269     0.071768677374
    H            3.527981131710    -0.153384346565     1.411720691218
    H            4.274686316441     0.990063119072    -1.327767926259
    H            3.793289731358     1.943059060721     0.064045833021
    H            5.291785171647     1.041455652426     0.099808142241

  Mulliken Charges: (a.u.)
   Center  Symbol    Alpha    Beta     Spin     Total
       1     H     0.43269  0.43269  0.00000  0.13463
       2     C     2.83077  2.83077  0.00000  0.33845
       3     C     3.20889  3.20889  0.00000 -0.41779
       4     O     4.23778  4.23778  0.00000 -0.47557
       5     C     3.16845  3.16845  0.00000 -0.33690
       6     H     0.39980  0.39980  0.00000  0.20040
       7     H     0.40666  0.40666  0.00000  0.18667
       8     C     3.15755  3.15755  0.00000 -0.31510
       9     H     0.41231  0.41231  0.00000  0.17538
      10     H     0.41965  0.41965  0.00000  0.16070
      11     C     3.15732  3.15732  0.00000 -0.31464
      12     H     0.41573  0.41573  0.00000  0.16854
      13     H     0.41573  0.41573  0.00000  0.16855
      14     C     3.15480  3.15480  0.00000 -0.30961
      15     H     0.41665  0.41665  0.00000  0.16670
      16     H     0.42203  0.42203  0.00000  0.15594
      17     C     3.15346  3.15346  0.00000 -0.30693
      18     H     0.42170  0.42170  0.00000  0.15660
      19     H     0.42250  0.42250  0.00000  0.15500
      20     C     3.24127  3.24127  0.00000 -0.48253
      21     H     0.41998  0.41998  0.00000  0.16005
      22     H     0.42360  0.42360  0.00000  0.15280
      23     H     0.42139  0.42139  0.00000  0.15721
      24     H     0.42061  0.42061  0.00000  0.15879
      25     H     0.41867  0.41867  0.00000  0.16266

   Total alpha = 36.00000, Total beta = 36.00000, Total charge =  0.00000
