  ==> Input File <==

--------------------------------------------------------------------------
set {
	reference rhf
	basis 6-31G*
}

set_num_threads( 4 )
memory 2 gb

molecule MOL {
0 1

O	 1.748594	 1.466599	 0.395453
C	 1.411186	 0.625764	 1.165044
C	 0.093500	 -0.109740	 1.140514
O	 2.173687	 0.212485	 2.169498
C	 -0.823008	 0.326187	 0.001381
H	 0.315561	 -1.171846	 1.082768
H	 -0.380349	 0.040761	 2.106711
C	 -2.149452	 -0.435131	 -0.000098
H	 -0.312064	 0.179038	 -0.944913
H	 -1.009637	 1.392581	 0.080651
C	 -3.368779	 0.488503	 -0.000883
H	 -2.193746	 -1.087250	 -0.871175
H	 -2.195311	 -1.087803	 0.870418
C	 -4.693822	 -0.272754	 -0.001129
H	 -3.325798	 1.139422	 -0.871284
H	 -3.326423	 1.139959	 0.869145
H	 -4.781274	 -0.907928	 -0.878124
H	 -5.538651	 0.408946	 -0.001420
H	 -4.781694	 -0.907783	 0.875984
C	 3.443853	 0.823299	 2.305669
H	 4.043477	 0.654168	 1.422848
H	 3.903661	 0.359802	 3.164519
H	 3.339019	 1.886796	 2.465325

	symmetry c1
}
set optking {
	frozen_dihedral = ("
		9 5 8 12
	")
}

ee = optimize('scf')
oeprop('DIPOLE', 'QUADRUPOLE', 'MULLIKEN_CHARGES')
f=open( 'psi4out.xyz', 'w' )
f.write( "23  " )
f.write( str(ee) + "\n" )
f.write( MOL.save_string_xyz() )
f.close()
--------------------------------------------------------------------------

    Molecular point group: c1
  Charge       = 0
  Multiplicity = 1
  Basis Set: 6-31G*
  Basis Set:
  @DF-RHF Final Energy:  -422.97071981302673
    Total Energy =                       -422.9707198130274719
    Molecular point group: c1
  Basis Set: 6-31G*
  Basis Set:
  Basis Set: 6-31G*
  Basis Set:
  @DF-RHF Final Energy:  -422.97089076254593
    Total Energy =                       -422.9708907625454231
  Basis Set: 6-31G*
  Basis Set:
  Basis Set: 6-31G*
  Basis Set:
  @DF-RHF Final Energy:  -422.97077162639408
    Total Energy =                       -422.9707716263945940
  Basis Set: 6-31G*
  Basis Set:
  Basis Set: 6-31G*
  Basis Set:
  @DF-RHF Final Energy:  -422.97101348503656
    Total Energy =                       -422.9710134850363374
  Basis Set: 6-31G*
  Basis Set:
  Basis Set: 6-31G*
  Basis Set:
  @DF-RHF Final Energy:  -422.97101403451700
    Total Energy =                       -422.9710140345169975
  Basis Set: 6-31G*
  Basis Set:
  Basis Set: 6-31G*
  Basis Set:
  @DF-RHF Final Energy:  -422.97101862967992
    Total Energy =                       -422.9710186296795200
  Basis Set: 6-31G*
  Basis Set:
  Charge       = 0
  Multiplicity = 1
  Basis Set: 6-31G*
  Basis Set:

    Orbital Energies (a.u.)
    -----------------------

    Doubly Occupied:

       1A    -20.603564     2A    -20.545475     3A    -11.371971
       4A    -11.280810     5A    -11.235744     6A    -11.218977
       7A    -11.217682     8A    -11.217054     9A    -11.209706
      10A     -1.469238    11A     -1.362704    12A     -1.091168
      13A     -1.043417    14A     -0.986188    15A     -0.931399
      16A     -0.844995    17A     -0.795181    18A     -0.767364
      19A     -0.699401    20A     -0.682522    21A     -0.672089
      22A     -0.640700    23A     -0.617072    24A     -0.598726
      25A     -0.572278    26A     -0.559066    27A     -0.555019
      28A     -0.527686    29A     -0.521309    30A     -0.501139
      31A     -0.491224    32A     -0.470330    33A     -0.463929
      34A     -0.458865    35A     -0.452842    36A     -0.435042

  @DF-RHF Final Energy:  -422.97101934425501

   => Energetics <=

    Nuclear Repulsion Energy =            452.9799705325673926
    One-Electron Energy =               -1473.6782305886290487
    Two-Electron Energy =                 597.7272407118059618
    DFT Exchange-Correlation Energy =       0.0000000000000000
    Empirical Dispersion Energy =           0.0000000000000000
    PCM Polarization Energy =               0.0000000000000000
    EFP Energy =                            0.0000000000000000
    Total Energy =                       -422.9710193442556374
    Molecular point group: c1
  Basis Set: 6-31G*
  Basis Set:

  -Total Gradient:
     Atom            X                  Y                   Z
    ------   -----------------  -----------------  -----------------
       1       -0.000013110090     0.000005175011    -0.000006765746
       2        0.000010061534    -0.000001820436    -0.000017449644
       3       -0.000009347354    -0.000001768523     0.000024377549
       4       -0.000017104743    -0.000004947074     0.000016568411
       5       -0.001064102780     0.001885969365    -0.000980814759
       6        0.000005111316    -0.000006020549     0.000000950654
       7        0.000007983019    -0.000004386568     0.000004914271
       8        0.001006645148    -0.001779097602     0.001197947251
       9        0.000735343834    -0.001286680309     0.000599627129
      10       -0.000012826868    -0.000002398588     0.000000284215
      11       -0.000002525786     0.000015286095     0.000039601681
      12       -0.000644090034     0.001181829905    -0.000847757227
      13       -0.000005645086    -0.000002338146     0.000001262106
      14        0.000010178327    -0.000003917578    -0.000021672800
      15       -0.000011155049    -0.000014811688     0.000000032067
      16        0.000005122396     0.000023708074     0.000002807135
      17       -0.000009436127    -0.000008686676    -0.000003601668
      18        0.000006811530     0.000002365523     0.000000459722
      19        0.000008138416     0.000006140189    -0.000001183979
      20       -0.000001081545    -0.000003121588    -0.000011505334
      21        0.000002058312     0.000001263365     0.000001265970
      22       -0.000004164153    -0.000001583408     0.000000562674
      23       -0.000002864212    -0.000000158796     0.000000090320

  **** Optimization is complete! (in 7 steps) ****
    Final optimized geometry and variables:
    Molecular point group: c1

    Geometry (in Angstrom), charge = 0, multiplicity = 1:

    O            1.955761129853     1.116560241881    -0.413892572469
    C            1.625080161186     0.271218520797     0.353829212723
    C            0.306264251647    -0.462477647019     0.337527743424
    O            2.395102404395    -0.145619368278     1.351079732763
    C           -0.619550201181    -0.023248453647    -0.794858046448
    H            0.525455814135    -1.524980955738     0.276329500467
    H           -0.161200680660    -0.312720288170     1.307071089839
    C           -1.959822146846    -0.791074995173    -0.796593607424
    H           -0.101018069913    -0.166695531446    -1.735755686074
    H           -0.795692808439     1.043282034126    -0.708023946890
    C           -3.183451267786     0.129298111160    -0.817634267939
    H           -2.006650302197    -1.444538264338    -1.663790462079
    H           -2.025424073069    -1.439115262424     0.074729724573
    C           -4.505815717417    -0.635213906578    -0.839822389313
    H           -3.126430617655     0.780239359053    -1.687240532101
    H           -3.156120086054     0.781749568432     0.052832841287
    H           -4.577274806811    -1.269955116010    -1.718645470707
    H           -5.352630024206     0.043897472488    -0.853109750984
    H           -4.606061409405    -1.271625711001     0.035109200532
    C            3.665905440278     0.465374417868     1.480421837230
    H            4.259449306514     0.299626893762     0.592865604900
    H            4.132009992250    -0.000933079067     2.334396325207
    H            3.561660387718     1.528251307241     1.644587866164

  Mulliken Charges: (a.u.)
   Center  Symbol    Alpha    Beta     Spin     Total
       1     O     4.28605  4.28605  0.00000 -0.57210
       2     C     2.60575  2.60575  0.00000  0.78851
       3     C     3.21009  3.21009  0.00000 -0.42018
       4     O     4.30728  4.30728  0.00000 -0.61456
       5     C     3.15562  3.15562  0.00000 -0.31124
       6     H     0.40026  0.40026  0.00000  0.19948
       7     H     0.40087  0.40087  0.00000  0.19826
       8     C     3.15656  3.15656  0.00000 -0.31312
       9     H     0.40920  0.40920  0.00000  0.18159
      10     H     0.40883  0.40883  0.00000  0.18233
      11     C     3.15337  3.15337  0.00000 -0.30674
      12     H     0.41923  0.41923  0.00000  0.16155
      13     H     0.42221  0.42221  0.00000  0.15558
      14     C     3.24038  3.24038  0.00000 -0.48075
      15     H     0.42023  0.42023  0.00000  0.15954
      16     H     0.42310  0.42310  0.00000  0.15380
      17     H     0.42135  0.42135  0.00000  0.15729
      18     H     0.41849  0.41849  0.00000  0.16301
      19     H     0.42204  0.42204  0.00000  0.15592
      20     C     3.09245  3.09245  0.00000 -0.18491
      21     H     0.40908  0.40908  0.00000  0.18183
      22     H     0.40846  0.40846  0.00000  0.18307
      23     H     0.40909  0.40909  0.00000  0.18181

   Total alpha = 36.00000, Total beta = 36.00000, Total charge = -0.00000
