                              Psi4 1.0.54 Driver

  ==> Input File <==

--------------------------------------------------------------------------
set {
	reference rhf
	basis cc-pvtz
}

set_num_threads( 4 )
memory 2 gb

molecule MOL {
0 1

O	 -2.440701	 -0.934798	 -0.415053
C	 -1.922978	 0.063265	 -0.045005
C	 -2.632749	 1.372204	 0.158357
O	 -0.637375	 0.157174	 0.243149
H	 -2.187724	 2.129143	 -0.474664
H	 -3.677681	 1.257276	 -0.079438
H	 -2.516788	 1.693160	 1.185542
C	 0.162530	 -1.009518	 0.097799
C	 1.587210	 -0.664190	 0.477086
H	 0.096803	 -1.356267	 -0.924704
H	 -0.233803	 -1.785900	 0.736810
C	 2.051068	 0.705326	 -0.011817
H	 2.228704	 -1.435612	 0.059799
H	 1.688261	 -0.725118	 1.556398
C	 3.498276	 1.004894	 0.364300
H	 1.941230	 0.753986	 -1.091940
H	 1.403850	 1.471824	 0.398590
H	 3.802547	 1.979886	 0.002092
H	 4.175016	 0.269378	 -0.058110
H	 3.632315	 0.995918	 1.440855

	symmetry c1
}
set optking {
	frozen_dihedral = ("
		12 9 8 10
	")
}

ee,wfn = optimize('scf', return_wfn=True)
oeprop( wfn, 'DIPOLE', 'QUADRUPOLE', 'MULLIKEN_CHARGES')
f=open( 'psi4out.xyz', 'w' )
f.write( "20  " )
f.write( str(ee) + "\n" )
f.write( MOL.save_string_xyz() )
f.close()
--------------------------------------------------------------------------

    Molecular point group: c1
  Charge       = 0
  Multiplicity = 1
  Basis Set: CC-PVTZ
  Basis Set:
  @DF-RHF Final Energy:  -384.08438444911349
    Total Energy =                       -384.0843844491133723
    Molecular point group: c1
  Basis Set: CC-PVTZ
  Basis Set:
  Basis Set: CC-PVTZ
  Basis Set:
  @DF-RHF Final Energy:  -384.04613212268163
    Total Energy =                       -384.0461321226814562
  Basis Set: CC-PVTZ
  Basis Set:
  Basis Set: CC-PVTZ
  Basis Set:
  @DF-RHF Final Energy:  -384.08380577075502
    Total Energy =                       -384.0838057707547932
  Basis Set: CC-PVTZ
  Basis Set:
  Basis Set: CC-PVTZ
  Basis Set:
  @DF-RHF Final Energy:  -384.08490236226629
    Total Energy =                       -384.0849023622661207
  Basis Set: CC-PVTZ
  Basis Set:
  @DF-RHF Final Energy:  -384.08364214432845
    Total Energy =                       -384.0836421443282234
  Basis Set: CC-PVTZ
  Basis Set:
  @DF-RHF Final Energy:  -384.08498692684458
    Total Energy =                       -384.0849869268441807
  Basis Set: CC-PVTZ
  Basis Set:
  Basis Set: CC-PVTZ
  Basis Set:
  @DF-RHF Final Energy:  -384.08499758948517
    Total Energy =                       -384.0849975894851696
  Basis Set: CC-PVTZ
  Basis Set:
  Basis Set: CC-PVTZ
  Basis Set:
  @DF-RHF Final Energy:  -384.08500006409349
    Total Energy =                       -384.0850000640934923
  Basis Set: CC-PVTZ
  Basis Set:
  Charge       = 0
  Multiplicity = 1
  Basis Set: CC-PVTZ
  Basis Set:

    Orbital Energies (a.u.)
    -----------------------

    Doubly Occupied:

       1A    -20.595412     2A    -20.533449     3A    -11.367440
       4A    -11.280014     5A    -11.232181     6A    -11.223807
       7A    -11.217739     8A    -11.210871     9A     -1.472265
      10A     -1.366377    11A     -1.085454    12A     -1.029458
      13A     -0.981911    14A     -0.881528    15A     -0.816915
      16A     -0.770128    17A     -0.693239    18A     -0.689220
      19A     -0.671226    20A     -0.634502    21A     -0.597468
      22A     -0.594574    23A     -0.573935    24A     -0.550383
      25A     -0.546872    26A     -0.536026    27A     -0.510488
      28A     -0.484731    29A     -0.475378    30A     -0.470241
      31A     -0.450094    32A     -0.442985

  @DF-RHF Final Energy:  -384.08500021909998

   => Energetics <=

    Nuclear Repulsion Energy =            386.5758256297427238
    One-Electron Energy =               -1289.3490167880265744
    Two-Electron Energy =                 518.6881909391833005
    DFT Exchange-Correlation Energy =       0.0000000000000000
    Empirical Dispersion Energy =           0.0000000000000000
    PCM Polarization Energy =               0.0000000000000000
    EFP Energy =                            0.0000000000000000
    Total Energy =                       -384.0850002191006070
    Molecular point group: c1
  Basis Set: CC-PVTZ
  Basis Set:

  -Total Gradient:
     Atom            X                  Y                   Z
    ------   -----------------  -----------------  -----------------
       1       -0.000030524169    -0.000026552478    -0.000005049890
       2        0.000049820248     0.000062627481     0.000018448934
       3       -0.000008809684    -0.000016083011     0.000001889381
       4       -0.000040962999    -0.000001424275     0.000028488538
       5       -0.000002963254    -0.000008787214     0.000004178569
       6       -0.000001304550     0.000001727867     0.000002601452
       7        0.000004490369    -0.000001043268    -0.000019179263
       8       -0.000210949903     0.007612824077     0.000806718998
       9        0.002183071040    -0.003149127550    -0.005027164038
      10       -0.000330429706    -0.005638983788     0.000546808921
      11       -0.000016105069     0.000003201451     0.000012484582
      12       -0.001601032873     0.001169345618     0.003612242558
      13        0.000001076508     0.000006195668     0.000008265816
      14        0.000006704536     0.000000867123     0.000006077306
      15       -0.000001509525    -0.000020579238     0.000000924046
      16        0.000004452244    -0.000003816311     0.000009612778
      17       -0.000003029818    -0.000004770995    -0.000006049564
      18       -0.000000638832     0.000005142689     0.000002005861
      19       -0.000002003622     0.000005693538    -0.000000035644
      20        0.000000649055     0.000003542619    -0.000003269338

  **** Optimization is complete! (in 9 steps) ****
    Final optimized geometry and variables:
    Molecular point group: c1

    Geometry (in Angstrom), charge = 0, multiplicity = 1:

    O           -2.418173048241    -0.455666044745    -1.017694879702
    C           -1.843134117307     0.334498811113    -0.350408663136
    C           -2.412130660514     1.648498649113     0.104372900867
    O           -0.608208640983     0.162112694705     0.087244135322
    H           -1.795798851187     2.457991101566    -0.265071698802
    H           -3.420076145016     1.752245347112    -0.262913848916
    H           -2.402120470507     1.694516566480     1.185654938237
    C            0.055499970421    -1.039740945601    -0.265285033154
    C            1.444704355360    -1.064570438632     0.352305076189
    H            0.096668959553    -1.143981227871    -1.341250760700
    H           -0.527451387226    -1.876406292569     0.095290996028
    C            2.215240433316     0.251212263825     0.269781053047
    H            2.000538890682    -1.857954231105    -0.137755005680
    H            1.360985810872    -1.347994170914     1.397619471349
    C            3.630487268991     0.129296836040     0.824849984477
    H            2.260621601680     0.584393313237    -0.763937011529
    H            1.675634951786     1.015270977428     0.813666223847
    H            4.153764687908     1.076785914260     0.770667105886
    H            4.210505038642    -0.600856099891     0.270288669897
    H            3.617555044638    -0.181299060747     1.864458136422

  Mulliken Charges: (a.u.)
   Center  Symbol    Alpha    Beta     Spin     Total
       1     O     4.19692  4.19692  0.00000 -0.39385
       2     C     2.80775  2.80775  0.00000  0.38450
       3     C     3.13873  3.13873  0.00000 -0.27747
       4     O     4.15074  4.15074  0.00000 -0.30148
       5     H     0.44580  0.44580  0.00000  0.10841
       6     H     0.43733  0.43733  0.00000  0.12534
       7     H     0.44573  0.44573  0.00000  0.10853
       8     C     2.99291  2.99291  0.00000  0.01418
       9     C     3.08871  3.08871  0.00000 -0.17741
      10     H     0.45121  0.45121  0.00000  0.09759
      11     H     0.44726  0.44726  0.00000  0.10548
      12     C     3.08290  3.08290  0.00000 -0.16579
      13     H     0.45159  0.45159  0.00000  0.09682
      14     H     0.45276  0.45276  0.00000  0.09449
      15     C     3.15095  3.15095  0.00000 -0.30190
      16     H     0.45528  0.45528  0.00000  0.08944
      17     H     0.44571  0.44571  0.00000  0.10859
      18     H     0.44742  0.44742  0.00000  0.10516
      19     H     0.45544  0.45544  0.00000  0.08912
      20     H     0.45488  0.45488  0.00000  0.09025

   Total alpha = 32.00000, Total beta = 32.00000, Total charge =  0.00000

*** Psi4 exiting successfully. Buy a developer a beer!
