  ==> Input File <==

--------------------------------------------------------------------------
set {
	reference rhf
	basis 6-31G*
}

set_num_threads( 1 )
memory 2 gb

molecule MOL {
0 1

O	 1.371310	 2.124431	 0.143720
C	 0.299044	 2.564922	 0.407028
C	 -0.995819	 1.789624	 0.396518
O	 0.099431	 3.829205	 0.757570
C	 -0.823008	 0.326187	 0.001381
H	 -1.436997	 1.881048	 1.385314
H	 -1.675624	 2.302153	 -0.278685
C	 -2.149452	 -0.435131	 -0.000098
H	 -0.125786	 -0.148680	 0.684441
H	 -0.365736	 0.272777	 -0.981654
C	 -3.368779	 0.488503	 -0.000883
H	 -2.193746	 -1.087250	 -0.871175
H	 -2.195311	 -1.087803	 0.870418
C	 -4.693822	 -0.272754	 -0.001129
H	 -3.325798	 1.139422	 -0.871284
H	 -3.326423	 1.139959	 0.869145
H	 -4.781274	 -0.907928	 -0.878124
H	 -5.538651	 0.408946	 -0.001420
H	 -4.781694	 -0.907783	 0.875984
C	 1.238120	 4.669252	 0.809156
H	 1.952158	 4.297664	 1.529990
H	 0.875278	 5.640147	 1.108463
H	 1.710794	 4.728752	 -0.160661

	symmetry c1
}
set optking {
	frozen_dihedral = ("
		15 11 8 12,
		1 2 3 6,
		9 5 3 6,
		1 2 4 20
	")
}

ee = energy('scf')
oeprop('DIPOLE', 'QUADRUPOLE', 'MULLIKEN_CHARGES')
f=open( 'psi4out.xyz', 'w' )
f.write( "23  " )
f.write( str(ee) + "\n" )
f.write( MOL.save_string_xyz() )
f.close()
--------------------------------------------------------------------------

    Molecular point group: c1

    Geometry (in Angstrom), charge = 0, multiplicity = 1:

       Center              X                  Y                   Z               Mass
    ------------   -----------------  -----------------  -----------------  -----------------
           O          2.353684284417     0.413394102752    -0.141186482075    15.994914619560
           C          1.281418284417     0.853885102752     0.122121517925    12.000000000000
           C         -0.013444715583     0.078587102752     0.111611517925    12.000000000000
           O          1.081805284417     2.118168102752     0.472663517925    15.994914619560
           C          0.159366284417    -1.384849897248    -0.283525482075    12.000000000000
           H         -0.454622715583     0.170011102752     1.100407517925     1.007825032070
           H         -0.693249715583     0.591116102752    -0.563591482075     1.007825032070
           C         -1.167077715583    -2.146167897248    -0.285004482075    12.000000000000
           H          0.856588284417    -1.859716897248     0.399534517925     1.007825032070
           H          0.616638284417    -1.438259897248    -1.266560482075     1.007825032070
           C         -2.386404715583    -1.222533897248    -0.285789482075    12.000000000000
           H         -1.211371715583    -2.798286897248    -1.156081482075     1.007825032070
           H         -1.212936715583    -2.798839897248     0.585511517925     1.007825032070
           C         -3.711447715583    -1.983790897248    -0.286035482075    12.000000000000
           H         -2.343423715583    -0.571614897248    -1.156190482075     1.007825032070
           H         -2.344048715583    -0.571077897248     0.584238517925     1.007825032070
           H         -3.798899715583    -2.618964897248    -1.163030482075     1.007825032070
           H         -4.556276715583    -1.302090897248    -0.286326482075     1.007825032070
           H         -3.799319715583    -2.618819897248     0.591077517925     1.007825032070
           C          2.220494284417     2.958215102752     0.524249517925    12.000000000000
           H          2.934532284417     2.586627102752     1.245083517925     1.007825032070
           H          1.857652284417     3.929110102752     0.823556517925     1.007825032070
           H          2.693168284417     3.017715102752    -0.445567482075     1.007825032070

  Charge       = 0
  Multiplicity = 1
  Basis Set: 6-31G*
  Basis Set:

    Orbital Energies (a.u.)
    -----------------------

    Doubly Occupied:

       1A    -20.602892     2A    -20.544141     3A    -11.370681
       4A    -11.280380     5A    -11.233565     6A    -11.218785
       7A    -11.217958     8A    -11.216568     9A    -11.210712
      10A     -1.468396    11A     -1.361713    12A     -1.098760
      13A     -1.038236    14A     -0.986708    15A     -0.932746
      16A     -0.856086    17A     -0.793802    18A     -0.756736
      19A     -0.699711    20A     -0.683486    21A     -0.670101
      22A     -0.652113    23A     -0.607225    24A     -0.601385
      25A     -0.579516    26A     -0.561126    27A     -0.551921
      28A     -0.525885    29A     -0.521491    30A     -0.511688
      31A     -0.498730    32A     -0.468720    33A     -0.456871
      34A     -0.455197    35A     -0.449224    36A     -0.435940

  @DF-RHF Final Energy:  -422.96334740944138

   => Energetics <=

    Nuclear Repulsion Energy =            462.6884946123108762
    One-Electron Energy =               -1493.0653161336088033
    Two-Electron Energy =                 607.4134741118543843
    DFT Exchange-Correlation Energy =       0.0000000000000000
    Empirical Dispersion Energy =           0.0000000000000000
    PCM Polarization Energy =               0.0000000000000000
    EFP Energy =                            0.0000000000000000
    Total Energy =                       -422.9633474094434860

  Mulliken Charges: (a.u.)
   Center  Symbol    Alpha    Beta     Spin     Total
       1     O     4.28622  4.28622  0.00000 -0.57244
       2     C     2.60194  2.60194  0.00000  0.79612
       3     C     3.21891  3.21891  0.00000 -0.43781
       4     O     4.30731  4.30731  0.00000 -0.61463
       5     C     3.15415  3.15415  0.00000 -0.30830
       6     H     0.39961  0.39961  0.00000  0.20077
       7     H     0.39745  0.39745  0.00000  0.20509
       8     C     3.15527  3.15527  0.00000 -0.31055
       9     H     0.40889  0.40889  0.00000  0.18221
      10     H     0.41007  0.41007  0.00000  0.17987
      11     C     3.16145  3.16145  0.00000 -0.32290
      12     H     0.41826  0.41826  0.00000  0.16349
      13     H     0.42031  0.42031  0.00000  0.15938
      14     C     3.23658  3.23658  0.00000 -0.47315
      15     H     0.42200  0.42200  0.00000  0.15599
      16     H     0.42045  0.42045  0.00000  0.15910
      17     H     0.42127  0.42127  0.00000  0.15746
      18     H     0.41922  0.41922  0.00000  0.16156
      19     H     0.42141  0.42141  0.00000  0.15718
      20     C     3.09229  3.09229  0.00000 -0.18459
      21     H     0.40915  0.40915  0.00000  0.18171
      22     H     0.40857  0.40857  0.00000  0.18285
      23     H     0.40920  0.40920  0.00000  0.18160

   Total alpha = 36.00000, Total beta = 36.00000, Total charge = -0.00000
