  ==> Input File <==

--------------------------------------------------------------------------
set {
	reference rhf
	basis 6-31G*
}

set_num_threads( 4 )
memory 2 gb

molecule MOL {
0 1

H	 -1.362287	 1.360230	 0.008573
C	 -0.790216	 0.431243	 0.010564
N	 0.538815	 0.649616	 0.000000
O	 -1.322490	 -0.639170	 0.021078
C	 1.521968	 -0.411503	 0.000000
H	 0.852775	 1.592826	 -0.008195
H	 2.150599	 -0.357004	 -0.881901
H	 0.999455	 -1.354525	 0.000000
H	 2.150599	 -0.357004	 0.881901

	symmetry c1
}
set optking {
	frozen_dihedral = ("
		6 3 5 7
	")
}

ee = optimize('scf')
oeprop('DIPOLE', 'QUADRUPOLE', 'MULLIKEN_CHARGES')
f=open( 'psi4out.xyz', 'w' )
f.write( "9  " )
f.write( str(ee) + "\n" )
f.write( MOL.save_string_xyz() )
f.close()
--------------------------------------------------------------------------

    Molecular point group: c1
  Charge       = 0
  Multiplicity = 1
  Basis Set: 6-31G*
  Basis Set:

    Orbital Energies (a.u.)
    -----------------------

    Doubly Occupied:

       1A    -20.525168     2A    -15.591259     3A    -11.344427
       4A    -11.260144     5A     -1.388825     6A     -1.236626
       7A     -0.968840     8A     -0.807257     9A     -0.746538
      10A     -0.641679    11A     -0.626084    12A     -0.593577
      13A     -0.553782    14A     -0.537902    15A     -0.423555
      16A     -0.390305

  @DF-RHF Final Energy:  -207.96097096758524

   => Energetics <=

    Nuclear Repulsion Energy =            122.4462655744401900
    One-Electron Energy =                -525.5425373953487451
    Two-Electron Energy =                 195.1353008533232583
    DFT Exchange-Correlation Energy =       0.0000000000000000
    Empirical Dispersion Energy =           0.0000000000000000
    PCM Polarization Energy =               0.0000000000000000
    EFP Energy =                            0.0000000000000000
    Total Energy =                       -207.9609709675852969
    Molecular point group: c1
  Basis Set: 6-31G*
  Basis Set:

  -Total Gradient:
     Atom            X                  Y                   Z
    ------   -----------------  -----------------  -----------------
       1       -0.000007136706     0.000008301541     0.000006875269
       2       -0.000076882643    -0.000021180471    -0.000016477626
       3       -0.000121529344     0.000003013599     0.000108139295
       4        0.000113797053     0.000099698619    -0.000001274839
       5        0.000088652057    -0.000046338775    -0.000055941606
       6       -0.000029447123     0.000011656384    -0.000023873067
       7        0.000046818610    -0.000070252353     0.000000661957
       8        0.000016390010     0.000001656885    -0.000011161476
       9       -0.000030661912     0.000013444572    -0.000006947907

  **** Optimization is complete! (in 1 steps) ****
    Final optimized geometry and variables:
    Molecular point group: c1

    Geometry (in Angstrom), charge = 0, multiplicity = 1:

    H           -1.362314228916     1.360205002739     0.000708628955
    C           -0.790243228916     0.431218002739     0.002699628955
    N            0.538787771084     0.649591002739    -0.007864371045
    O           -1.322517228916    -0.639194997261     0.013213628955
    C            1.521940771084    -0.411527997261    -0.007864371045
    H            0.852747771084     1.592801002739    -0.016059371045
    H            2.150571771084    -0.357028997261    -0.889765371045
    H            0.999427771084    -1.354549997261    -0.007864371045
    H            2.150571771084    -0.357028997261     0.874036628955

  Mulliken Charges: (a.u.)
   Center  Symbol    Alpha    Beta     Spin     Total
       1     H     0.42760  0.42760  0.00000  0.14480
       2     C     2.74438  2.74438  0.00000  0.51125
       3     N     3.87517  3.87517  0.00000 -0.75033
       4     O     4.28472  4.28472  0.00000 -0.56943
       5     C     3.14491  3.14491  0.00000 -0.28982
       6     H     0.30958  0.30958  0.00000  0.38085
       7     H     0.41404  0.41404  0.00000  0.17191
       8     H     0.38562  0.38562  0.00000  0.22875
       9     H     0.41399  0.41399  0.00000  0.17202

   Total alpha = 16.00000, Total beta = 16.00000, Total charge = -0.00000
