  ==> Input File <==

--------------------------------------------------------------------------
set {
	reference rhf
	basis cc-pvtz
}

set_num_threads( 4 )
memory 2 gb

molecule MOL {
0 1

H	 -0.366580	 2.045936	 -0.305741
C	 0.351829	 1.335402	 0.083179
N	 -0.000018	 0.000080	 -0.334836
H	 1.327156	 1.599860	 -0.305475
H	 0.380566	 1.445403	 1.171445
C	 -1.385220	 -0.302215	 -0.066113
C	 0.347869	 -0.243305	 -1.713959
H	 -1.596249	 -1.331579	 -0.326823
H	 -1.593470	 -0.175416	 0.988753
H	 -2.074986	 0.336470	 -0.625910
H	 1.406606	 -0.073614	 -1.863837
H	 0.134767	 -1.272677	 -1.973008
H	 -0.199071	 0.400459	 -2.409326

	symmetry c1
}
set optking {
	frozen_dihedral = ("
		6 3 2 1
	")
}

ee = optimize('scf')
oeprop('DIPOLE', 'QUADRUPOLE', 'MULLIKEN_CHARGES')
f=open( 'psi4out.xyz', 'w' )
f.write( "13  " )
f.write( str(ee) + "\n" )
f.write( MOL.save_string_xyz() )
f.close()
--------------------------------------------------------------------------

    Molecular point group: c1
  Charge       = 0
  Multiplicity = 1
  Basis Set: CC-PVTZ
  Basis Set:
  @DF-RHF Final Energy:  -173.33250751178781
    Total Energy =                       -173.3325075117878669
    Molecular point group: c1
  Basis Set: CC-PVTZ
  Basis Set:
  Basis Set: CC-PVTZ
  Basis Set:
  @DF-RHF Final Energy:  -173.33324819679245
    Total Energy =                       -173.3332481967925105
  Basis Set: CC-PVTZ
  Basis Set:
  Basis Set: CC-PVTZ
  Basis Set:
  @DF-RHF Final Energy:  -173.33331526222727
    Total Energy =                       -173.3333152622274724
  Basis Set: CC-PVTZ
  Basis Set:
  Charge       = 0
  Multiplicity = 1
  Basis Set: CC-PVTZ
  Basis Set:

    Orbital Energies (a.u.)
    -----------------------

    Doubly Occupied:

       1A    -15.539895     2A    -11.234252     3A    -11.234225
       4A    -11.234179     5A     -1.227040     6A     -0.952360
       7A     -0.951681     8A     -0.807356     9A     -0.643393
      10A     -0.631740    11A     -0.630432    12A     -0.546489
      13A     -0.542490    14A     -0.517066    15A     -0.502091
      16A     -0.500883    17A     -0.350410

  @DF-RHF Final Energy:  -173.33331639539000

   => Energetics <=

    Nuclear Repulsion Energy =            139.4790789257563119
    One-Electron Energy =                -509.5328292508762615
    Two-Electron Energy =                 196.7204339297299214
    DFT Exchange-Correlation Energy =       0.0000000000000000
    Empirical Dispersion Energy =           0.0000000000000000
    PCM Polarization Energy =               0.0000000000000000
    EFP Energy =                            0.0000000000000000
    Total Energy =                       -173.3333163953900282
    Molecular point group: c1
  Basis Set: CC-PVTZ
  Basis Set:

  -Total Gradient:
     Atom            X                  Y                   Z
    ------   -----------------  -----------------  -----------------
       1       -0.001743870829    -0.000311946707     0.002547725508
       2        0.001957805819     0.000656087677    -0.004097391539
       3        0.000278861194    -0.001192468973     0.003531803505
       4       -0.000000788924    -0.000041979758    -0.000016067945
       5        0.000003465331    -0.000013641838    -0.000002229309
       6       -0.000463633429     0.000826021227    -0.002080828107
       7        0.000027281629     0.000063508505     0.000129865066
       8       -0.000012709689    -0.000002912751    -0.000003728153
       9       -0.000030507697     0.000002512765     0.000011083327
      10       -0.000013582149     0.000005423015    -0.000004433965
      11        0.000023453525     0.000007077099    -0.000019773952
      12       -0.000014510254     0.000004694136     0.000021419811
      13       -0.000011264529    -0.000002374395    -0.000017444249

  **** Optimization is complete! (in 4 steps) ****
    Final optimized geometry and variables:
    Molecular point group: c1

    Geometry (in Angstrom), charge = 0, multiplicity = 1:

    H           -0.175699170908     1.878011521212     0.218924350040
    C            0.528523097178     1.131407740757     0.596860670054
    N            0.191767662496    -0.212872871291     0.188096832668
    H            1.522871185961     1.388391770911     0.257736795060
    H            0.517129404844     1.200341343886     1.678603098906
    C           -1.193153576876    -0.516078334254     0.458524403291
    C            0.522651741898    -0.456564792968    -1.196701457982
    H           -1.400776077275    -1.551547678853     0.219994220096
    H           -1.406664874319    -0.367018483051     1.509928789248
    H           -1.881632484207     0.109980471291    -0.116856108595
    H            1.580463212438    -0.294551107913    -1.359686522140
    H            0.299788511318    -1.484843315999    -1.452411249988
    H           -0.029450272991     0.188582660459    -1.887086668016

  Mulliken Charges: (a.u.)
   Center  Symbol    Alpha    Beta     Spin     Total
       1     H     0.47326  0.47326  0.00000  0.05348
       2     C     3.08919  3.08919  0.00000 -0.17837
       3     N     3.59616  3.59616  0.00000 -0.19233
       4     H     0.45326  0.45326  0.00000  0.09347
       5     H     0.45162  0.45162  0.00000  0.09675
       6     C     3.09000  3.09000  0.00000 -0.17999
       7     C     3.08880  3.08880  0.00000 -0.17761
       8     H     0.45249  0.45249  0.00000  0.09501
       9     H     0.45267  0.45267  0.00000  0.09467
      10     H     0.47327  0.47327  0.00000  0.05347
      11     H     0.45226  0.45226  0.00000  0.09547
      12     H     0.45274  0.45274  0.00000  0.09453
      13     H     0.47428  0.47428  0.00000  0.05144

   Total alpha = 17.00000, Total beta = 17.00000, Total charge = -0.00000
