  ==> Input File <==

--------------------------------------------------------------------------
set {
	reference rhf
	basis 6-31G*
}

set_num_threads( 1 )
memory 2 gb

molecule MOL {
0 1

H	 -4.236494	 0.538104	 0.039757
O	 -3.517110	 -0.026191	 -0.205115
C	 -2.306886	 0.532354	 0.237577
C	 -1.177863	 -0.397191	 -0.171080
H	 -2.156308	 1.517575	 -0.201710
H	 -2.315015	 0.655684	 1.319734
C	 0.198102	 0.111031	 0.262842
H	 -1.208843	 -0.518759	 -1.250427
H	 -1.368741	 -1.376554	 0.258909
C	 1.331804	 -0.827780	 -0.158768
H	 0.361943	 1.100838	 -0.156218
H	 0.217265	 0.229072	 1.345532
C	 2.723619	 -0.410569	 0.329459
H	 1.342964	 -0.912588	 -1.244120
H	 1.116806	 -1.824343	 0.220779
C	 3.664470	 -1.576094	 0.640400
H	 2.606513	 0.191405	 1.227235
H	 3.185158	 0.238553	 -0.412018
H	 3.223342	 -2.249435	 1.370508
H	 3.899358	 -2.156720	 -0.245533
H	 4.602800	 -1.214963	 1.050126

	symmetry c1
}
set optking {
	frozen_dihedral = ("
		2 3 4 8,
		8 4 7 10,
		4 7 10 14,
		1 2 3 5
	")
}

ee = energy('scf')
oeprop('DIPOLE', 'QUADRUPOLE', 'MULLIKEN_CHARGES')
f=open( 'psi4out.xyz', 'w' )
f.write( "21  " )
f.write( str(ee) + "\n" )
f.write( MOL.save_string_xyz() )
f.close()
--------------------------------------------------------------------------

    Molecular point group: c1

    Geometry (in Angstrom), charge = 0, multiplicity = 1:

       Center              X                  Y                   Z               Mass
    ------------   -----------------  -----------------  -----------------  -----------------
           H         -4.298062019955     0.901117381877    -0.094937561792     1.007825032070
           O         -3.578678019955     0.336822381877    -0.339809561792    15.994914619560
           C         -2.368454019955     0.895367381877     0.102882438208    12.000000000000
           C         -1.239431019955    -0.034177618123    -0.305774561792    12.000000000000
           H         -2.217876019955     1.880588381877    -0.336404561792     1.007825032070
           H         -2.376583019955     1.018697381877     1.185039438208     1.007825032070
           C          0.136533980045     0.474044381877     0.128147438208    12.000000000000
           H         -1.270411019955    -0.155745618123    -1.385121561792     1.007825032070
           H         -1.430309019955    -1.013540618123     0.124214438208     1.007825032070
           C          1.270235980045    -0.464766618123    -0.293462561792    12.000000000000
           H          0.300374980045     1.463851381877    -0.290912561792     1.007825032070
           H          0.155696980045     0.592085381877     1.210837438208     1.007825032070
           C          2.662050980045    -0.047555618123     0.194764438208    12.000000000000
           H          1.281395980045    -0.549574618123    -1.378814561792     1.007825032070
           H          1.055237980045    -1.461329618123     0.086084438208     1.007825032070
           C          3.602901980045    -1.213080618123     0.505705438208    12.000000000000
           H          2.544944980045     0.554418381877     1.092540438208     1.007825032070
           H          3.123589980045     0.601566381877    -0.546712561792     1.007825032070
           H          3.161773980045    -1.886421618123     1.235813438208     1.007825032070
           H          3.837789980045    -1.793706618123    -0.380227561792     1.007825032070
           H          4.541231980045    -0.851949618123     0.915431438208     1.007825032070

  Charge       = 0
  Multiplicity = 1
  Basis Set: 6-31G*
  Basis Set:

    Orbital Energies (a.u.)
    -----------------------

    Doubly Occupied:

       1A    -20.551921     2A    -11.267202     3A    -11.216699
       4A    -11.214162     5A    -11.212676     6A    -11.210682
       7A    -11.208587     8A     -1.358752     9A     -1.085427
      10A     -1.034134    11A     -0.956786    12A     -0.868675
      13A     -0.802584    14A     -0.789553    15A     -0.692080
      16A     -0.663257    17A     -0.630095    18A     -0.596808
      19A     -0.582696    20A     -0.561897    21A     -0.547786
      22A     -0.521638    23A     -0.507425    24A     -0.485014
      25A     -0.477349    26A     -0.459988    27A     -0.457898
      28A     -0.444059    29A     -0.434057

  @DF-RHF Final Energy:  -310.21077249006055

   => Energetics <=

    Nuclear Repulsion Energy =            308.8749317490076010
    One-Electron Energy =               -1032.4917651752036818
    Two-Electron Energy =                 413.4060609361345087
    DFT Exchange-Correlation Energy =       0.0000000000000000
    Empirical Dispersion Energy =           0.0000000000000000
    PCM Polarization Energy =               0.0000000000000000
    EFP Energy =                            0.0000000000000000
    Total Energy =                       -310.2107724900615722

  Mulliken Charges: (a.u.)
   Center  Symbol    Alpha    Beta     Spin     Total
       1     H     0.28116  0.28116  0.00000  0.43768
       2     O     4.37174  4.37174  0.00000 -0.74347
       3     C     2.98980  2.98980  0.00000  0.02041
       4     C     3.15979  3.15979  0.00000 -0.31959
       5     H     0.43286  0.43286  0.00000  0.13429
       6     H     0.43286  0.43286  0.00000  0.13428
       7     C     3.16122  3.16122  0.00000 -0.32245
       8     H     0.41469  0.41469  0.00000  0.17062
       9     H     0.41456  0.41456  0.00000  0.17088
      10     C     3.15203  3.15203  0.00000 -0.30405
      11     H     0.42301  0.42301  0.00000  0.15399
      12     H     0.42343  0.42343  0.00000  0.15313
      13     C     3.15309  3.15309  0.00000 -0.30617
      14     H     0.42101  0.42101  0.00000  0.15798
      15     H     0.42205  0.42205  0.00000  0.15590
      16     C     3.23972  3.23972  0.00000 -0.47943
      17     H     0.42287  0.42287  0.00000  0.15425
      18     H     0.42156  0.42156  0.00000  0.15688
      19     H     0.42169  0.42169  0.00000  0.15663
      20     H     0.42088  0.42088  0.00000  0.15823
      21     H     0.42000  0.42000  0.00000  0.16001

   Total alpha = 29.00000, Total beta = 29.00000, Total charge = -0.00000
