  ==> Input File <==

--------------------------------------------------------------------------
set {
	reference rhf
	basis 6-31G*
}

set_num_threads( 4 )
memory 2 gb

molecule MOL {
0 1

O	 0.749854	 1.307668	 -0.000040
C	 0.576249	 0.131685	 -0.000108
C	 -0.766779	 -0.556801	 -0.000461
O	 1.568443	 -0.749345	 -0.000005
C	 -1.945214	 0.412366	 0.000161
H	 -0.796911	 -1.211249	 -0.867467
H	 -0.796854	 -1.212390	 0.865687
C	 -1.636638	 1.691123	 -0.777097
H	 -2.207979	 0.655811	 1.024022
H	 -2.813197	 -0.079258	 -0.425850
H	 -0.788728	 2.219191	 -0.349727
H	 -2.485963	 2.366313	 -0.764187
H	 -1.401775	 1.476099	 -1.815884
C	 2.886820	 -0.232538	 0.000322
H	 3.059106	 0.369571	 -0.880203
H	 3.540187	 -1.091012	 0.000050
H	 3.059019	 0.368956	 0.881266

	symmetry c1
}
set optking {
	frozen_dihedral = ("
		9 5 3 6
	")
}

ee = optimize('scf')
oeprop('DIPOLE', 'QUADRUPOLE', 'MULLIKEN_CHARGES')
f=open( 'psi4out.xyz', 'w' )
f.write( "17  " )
f.write( str(ee) + "\n" )
f.write( MOL.save_string_xyz() )
f.close()
--------------------------------------------------------------------------

    Molecular point group: c1
  Charge       = 0
  Multiplicity = 1
  Basis Set: 6-31G*
  Basis Set:
  @DF-RHF Final Energy:  -344.88478298385445
    Total Energy =                       -344.8847829838544499
    Molecular point group: c1
  Basis Set: 6-31G*
  Basis Set:
  Basis Set: 6-31G*
  Basis Set:
  @DF-RHF Final Energy:  -344.89709814843292
    Total Energy =                       -344.8970981484329172
  Basis Set: 6-31G*
  Basis Set:
  Basis Set: 6-31G*
  Basis Set:
  @DF-RHF Final Energy:  -344.89977934180519
    Total Energy =                       -344.8997793418050719
  Basis Set: 6-31G*
  Basis Set:
  Basis Set: 6-31G*
  Basis Set:
  @DF-RHF Final Energy:  -344.89593751475081
    Total Energy =                       -344.8959375147508126
  Basis Set: 6-31G*
  Basis Set:
  @DF-RHF Final Energy:  -344.90107759053245
    Total Energy =                       -344.9010775905321680
  @DF-RHF Final Energy:  -344.90164701987112
    Total Energy =                       -344.9016470198712909
  @DF-RHF Final Energy:  -344.90205447959238
    Total Energy =                       -344.9020544795921523
  Basis Set: 6-31G*
  Basis Set:
  @DF-RHF Final Energy:  -344.90215523512262
    Total Energy =                       -344.9021552351225637
  Basis Set: 6-31G*
  Basis Set:
  Basis Set: 6-31G*
  Basis Set:
  @DF-RHF Final Energy:  -344.90217552174153
    Total Energy =                       -344.9021755217416398
  Basis Set: 6-31G*
  Basis Set:
  Basis Set: 6-31G*
  Basis Set:
  @DF-RHF Final Energy:  -344.90217806867014
    Total Energy =                       -344.9021780686704801
  Basis Set: 6-31G*
  Basis Set:
  Charge       = 0
  Multiplicity = 1
  Basis Set: 6-31G*
  Basis Set:

    Orbital Energies (a.u.)
    -----------------------

    Doubly Occupied:

       1A    -20.605719     2A    -20.544066     3A    -11.373450
       4A    -11.281340     5A    -11.235917     6A    -11.226135
       7A    -11.207516     8A     -1.470474     9A     -1.362760
      10A     -1.077412    11A     -0.999395    12A     -0.940498
      13A     -0.832127    14A     -0.766748    15A     -0.696633
      16A     -0.681291    17A     -0.670720    18A     -0.627130
      19A     -0.610347    20A     -0.571611    21A     -0.559580
      22A     -0.532671    23A     -0.524646    24A     -0.494717
      25A     -0.484047    26A     -0.476734    27A     -0.455862
      28A     -0.434134

  @DF-RHF Final Energy:  -344.90217837647384

   => Energetics <=

    Nuclear Repulsion Energy =            318.8522634438401724
    One-Electron Energy =               -1102.0215221646747068
    Two-Electron Energy =                 438.2670803443604655
    DFT Exchange-Correlation Energy =       0.0000000000000000
    Empirical Dispersion Energy =           0.0000000000000000
    PCM Polarization Energy =               0.0000000000000000
    EFP Energy =                            0.0000000000000000
    Total Energy =                       -344.9021783764740121
    Molecular point group: c1
  Basis Set: 6-31G*
  Basis Set:

  -Total Gradient:
     Atom            X                  Y                   Z
    ------   -----------------  -----------------  -----------------
       1       -0.000035503137     0.000016734138    -0.000011405027
       2        0.000023416816    -0.000012871005    -0.000009098296
       3        0.003802303027     0.003806379436    -0.004591215738
       4       -0.000005510335     0.000009766628    -0.000002453102
       5        0.004320345502     0.005093391958     0.000341672213
       6       -0.003812004234    -0.003961771299     0.003740192322
       7       -0.000003045498    -0.000002637095     0.000004824174
       8       -0.000009445282    -0.000007134247     0.000018656986
       9       -0.004280026202    -0.004934337619     0.000490948852
      10       -0.000006762395    -0.000004069275     0.000001876328
      11        0.000025955554    -0.000001463200     0.000013896484
      12        0.000009630760     0.000002617295    -0.000003047494
      13       -0.000003211822    -0.000006041902    -0.000002841575
      14       -0.000004662227     0.000009672374     0.000005989468
      15       -0.000006278167    -0.000001181561    -0.000001876992
      16       -0.000013569657    -0.000005693158    -0.000001452555
      17       -0.000001632713    -0.000001361471     0.000005333954

  **** Optimization is complete! (in 11 steps) ****
    Final optimized geometry and variables:
    Molecular point group: c1

    Geometry (in Angstrom), charge = 0, multiplicity = 1:

    O            0.598165388327     0.842214306432     0.838234556394
    C            0.358452487674    -0.184522646589     0.286846401551
    C           -1.015567411621    -0.790126685359     0.150068970241
    O            1.295683278562    -0.962074109496    -0.236000855058
    C           -2.177927311645     0.207587485809     0.025214359519
    H           -1.033618451207    -1.523439685131    -0.646397013056
    H           -1.156187944072    -1.372020717760     1.059946596746
    C           -1.951147172595     1.371960743275    -0.937264306770
    H           -2.467409538997     0.557990972744     1.009842617155
    H           -3.032463406149    -0.367364260762    -0.324071110130
    H           -1.172531788329     2.035142856214    -0.585054886752
    H           -2.862703767441     1.950445468148    -1.048070029673
    H           -1.670944631297     1.010985581402    -1.923965368265
    C            2.637462907723    -0.528603328559    -0.102059490326
    H            2.777755275025     0.426047457207    -0.588019127303
    H            3.240371769117    -1.284581326164    -0.580400572929
    H            2.905498136856    -0.439382555517     0.940853882321

  Mulliken Charges: (a.u.)
   Center  Symbol    Alpha    Beta     Spin     Total
       1     O     4.28818  4.28818  0.00000 -0.57636
       2     C     2.60455  2.60455  0.00000  0.79091
       3     C     3.21255  3.21255  0.00000 -0.42510
       4     O     4.30490  4.30490  0.00000 -0.60980
       5     C     3.14896  3.14896  0.00000 -0.29792
       6     H     0.39964  0.39964  0.00000  0.20073
       7     H     0.39866  0.39866  0.00000  0.20269
       8     C     3.25093  3.25093  0.00000 -0.50186
       9     H     0.41162  0.41162  0.00000  0.17675
      10     H     0.41875  0.41875  0.00000  0.16249
      11     H     0.40037  0.40037  0.00000  0.19925
      12     H     0.41848  0.41848  0.00000  0.16304
      13     H     0.42379  0.42379  0.00000  0.15242
      14     C     3.09300  3.09300  0.00000 -0.18600
      15     H     0.40842  0.40842  0.00000  0.18315
      16     H     0.40826  0.40826  0.00000  0.18347
      17     H     0.40894  0.40894  0.00000  0.18213

   Total alpha = 28.00000, Total beta = 28.00000, Total charge =  0.00000
