  ==> Input File <==

--------------------------------------------------------------------------
set {
	reference rhf
	basis 6-31G*
}

set_num_threads( 4 )
memory 2 gb

molecule MOL {
0 1

O	 -2.439739	 -0.935931	 -0.423848
C	 -1.921153	 0.064240	 -0.045697
C	 -2.624470	 1.379923	 0.150949
O	 -0.632575	 0.154573	 0.251549
H	 -2.168117	 2.136577	 -0.476876
H	 -3.669540	 1.273223	 -0.098610
H	 -2.519365	 1.700893	 1.180846
C	 0.160891	 -1.019931	 0.106212
C	 1.589627	 -0.672828	 0.480843
H	 0.089836	 -1.367806	 -0.916050
H	 -0.238459	 -1.792301	 0.749618
C	 2.501971	 -0.416641	 -0.720155
H	 1.983316	 -1.499526	 1.068646
H	 1.580383	 0.197497	 1.131770
C	 3.938058	 -0.096571	 -0.307590
H	 2.497938	 -1.292096	 -1.366423
H	 2.100924	 0.403097	 -1.307138
H	 4.564236	 0.081852	 -1.175979
H	 4.378181	 -0.915218	 0.254893
H	 3.977766	 0.791684	 0.316512

	symmetry c1
}
set optking {
	frozen_dihedral = ("
		12 9 8 10
	")
}

ee = optimize('scf')
oeprop('DIPOLE', 'QUADRUPOLE', 'MULLIKEN_CHARGES')
f=open( 'psi4out.xyz', 'w' )
f.write( "20  " )
f.write( str(ee) + "\n" )
f.write( MOL.save_string_xyz() )
f.close()
--------------------------------------------------------------------------

    Molecular point group: c1
  Charge       = 0
  Multiplicity = 1
  Basis Set: 6-31G*
  Basis Set:
  @DF-RHF Final Energy:  -383.94131016809166
    Total Energy =                       -383.9413101680916043
    Molecular point group: c1
  Basis Set: 6-31G*
  Basis Set:
  Basis Set: 6-31G*
  Basis Set:
  @DF-RHF Final Energy:  -383.94150325630807
    Total Energy =                       -383.9415032563077830
  Basis Set: 6-31G*
  Basis Set:
  Basis Set: 6-31G*
  Basis Set:
  @DF-RHF Final Energy:  -383.94035103630250
    Total Energy =                       -383.9403510363023315
  Basis Set: 6-31G*
  Basis Set:
  Basis Set: 6-31G*
  Basis Set:
  @DF-RHF Final Energy:  -383.94169019453744
    Total Energy =                       -383.9416901945376139
  Basis Set: 6-31G*
  Basis Set:
  Basis Set: 6-31G*
  Basis Set:
  @DF-RHF Final Energy:  -383.94168706321983
    Total Energy =                       -383.9416870632198879
  Basis Set: 6-31G*
  Basis Set:
  Basis Set: 6-31G*
  Basis Set:
  @DF-RHF Final Energy:  -383.94170266236910
    Total Energy =                       -383.9417026623690390
  Basis Set: 6-31G*
  Basis Set:
  Basis Set: 6-31G*
  Basis Set:
  @DF-RHF Final Energy:  -383.94170408411799
    Total Energy =                       -383.9417040841177595
  Basis Set: 6-31G*
  Basis Set:
  Charge       = 0
  Multiplicity = 1
  Basis Set: 6-31G*
  Basis Set:

    Orbital Energies (a.u.)
    -----------------------

    Doubly Occupied:

       1A    -20.600339     2A    -20.542968     3A    -11.373255
       4A    -11.282466     5A    -11.232656     6A    -11.224866
       7A    -11.223619     8A    -11.214543     9A     -1.466351
      10A     -1.360555    11A     -1.085650    12A     -1.028353
      13A     -0.980009    14A     -0.881289    15A     -0.807959
      16A     -0.779414    17A     -0.688592    18A     -0.681041
      19A     -0.666241    20A     -0.631476    21A     -0.602959
      22A     -0.592331    23A     -0.570962    24A     -0.553034
      25A     -0.543876    26A     -0.525735    27A     -0.513336
      28A     -0.481760    29A     -0.479282    30A     -0.474813
      31A     -0.447413    32A     -0.436831

  @DF-RHF Final Energy:  -383.94170422126143

   => Energetics <=

    Nuclear Repulsion Energy =            382.0513110131060444
    One-Electron Energy =               -1280.0380852598996171
    Two-Electron Energy =                 514.0450700255321408
    DFT Exchange-Correlation Energy =       0.0000000000000000
    Empirical Dispersion Energy =           0.0000000000000000
    PCM Polarization Energy =               0.0000000000000000
    EFP Energy =                            0.0000000000000000
    Total Energy =                       -383.9417042212614888
    Molecular point group: c1
  Basis Set: 6-31G*
  Basis Set:

  -Total Gradient:
     Atom            X                  Y                   Z
    ------   -----------------  -----------------  -----------------
       1        0.000002006640    -0.000000621299     0.000010642861
       2       -0.000035588678    -0.000001671256    -0.000040775792
       3       -0.000005629188     0.000003116031     0.000014651998
       4        0.000058091440    -0.000071741037    -0.000013932614
       5       -0.000000913377    -0.000006433741    -0.000001800080
       6        0.000000094439     0.000002708215    -0.000000762435
       7       -0.000000797642     0.000008066462     0.000001349908
       8        0.001169709334    -0.006738499588     0.001591257749
       9       -0.001281367718     0.005633649787    -0.000101943807
      10       -0.000721896515     0.004380206492    -0.001301760305
      11       -0.000024176060    -0.000011032076     0.000001792504
      12        0.000816954081    -0.003217069259    -0.000156036338
      13        0.000012500641     0.000017272878    -0.000014419311
      14        0.000015281629     0.000001417398     0.000011749419
      15       -0.000001308590     0.000005458801    -0.000000341762
      16        0.000004204077    -0.000001474723    -0.000007405335
      17       -0.000004984208    -0.000003909345     0.000008246322
      18       -0.000001428635     0.000004428920    -0.000000916157
      19        0.000000109378    -0.000001369445    -0.000004478963
      20       -0.000000861049    -0.000002503217     0.000004882136

  **** Optimization is complete! (in 8 steps) ****
    Final optimized geometry and variables:
    Molecular point group: c1

    Geometry (in Angstrom), charge = 0, multiplicity = 1:

    O           -2.503956448389    -0.729227622535    -0.375478085665
    C           -1.970914385467     0.261569709724     0.008773894697
    C           -2.654012156700     1.589183124348     0.198818720652
    O           -0.686656102917     0.327758226025     0.325947897962
    H           -2.174703149485     2.339405523968    -0.419482606934
    H           -3.696842912714     1.501601583507    -0.067147525334
    H           -2.559244183327     1.905246667465     1.231275783396
    C            0.088505392620    -0.866076877216     0.190178221055
    C            1.529677331536    -0.524167077627     0.562250699309
    H            0.004954055357    -1.187023522340    -0.838973645856
    H           -0.336314952193    -1.627061866757     0.828561355285
    C            2.421225222138    -0.236362793482    -0.647827282821
    H            1.954582200755    -1.359121667270     1.114438395400
    H            1.520329030510     0.321956688631     1.240839926735
    C            3.848828859486     0.138493553263    -0.254828704517
    H            2.440545201991    -1.112647506524    -1.291573948670
    H            1.982971492646     0.567551537652    -1.234979936668
    H            4.460059853279     0.327662646451    -1.131479303403
    H            4.321760922055    -0.658290809650     0.312529835922
    H            3.863562750257     1.034443331034     0.359029935278

  Mulliken Charges: (a.u.)
   Center  Symbol    Alpha    Beta     Spin     Total
       1     O     4.28432  4.28432  0.00000 -0.56864
       2     C     2.61977  2.61977  0.00000  0.76045
       3     C     3.28143  3.28143  0.00000 -0.56287
       4     O     4.31048  4.31048  0.00000 -0.62095
       5     H     0.40097  0.40097  0.00000  0.19806
       6     H     0.39710  0.39710  0.00000  0.20580
       7     H     0.40078  0.40078  0.00000  0.19843
       8     C     3.00338  3.00338  0.00000 -0.00675
       9     C     3.16659  3.16659  0.00000 -0.33319
      10     H     0.40811  0.40811  0.00000  0.18379
      11     H     0.40759  0.40759  0.00000  0.18483
      12     C     3.15705  3.15705  0.00000 -0.31410
      13     H     0.41812  0.41812  0.00000  0.16376
      14     H     0.40708  0.40708  0.00000  0.18584
      15     C     3.24072  3.24072  0.00000 -0.48144
      16     H     0.42090  0.42090  0.00000  0.15819
      17     H     0.41751  0.41751  0.00000  0.16498
      18     H     0.41718  0.41718  0.00000  0.16564
      19     H     0.42104  0.42104  0.00000  0.15791
      20     H     0.41988  0.41988  0.00000  0.16025

   Total alpha = 32.00000, Total beta = 32.00000, Total charge = -0.00000
