  ==> Input File <==

--------------------------------------------------------------------------
set {
	reference rhf
	basis cc-pvtz
}

set_num_threads( 4 )
memory 2 gb

molecule MOL {
0 1

O	 1.847685	 1.294399	 -0.000190
C	 1.704209	 0.119472	 -0.000093
C	 0.380337	 -0.600947	 -0.000234
O	 2.715427	 -0.733672	 0.000025
C	 -0.824290	 0.329213	 -0.000115
H	 0.371455	 -1.255476	 -0.865660
H	 0.371410	 -1.255787	 0.864952
C	 -2.146151	 -0.432825	 -0.000068
H	 -0.773936	 0.979158	 -0.866319
H	 -0.773838	 0.979034	 0.866186
C	 -3.366283	 0.483552	 0.000557
H	 -2.189286	 -1.084450	 -0.869996
H	 -2.188867	 -1.085083	 0.869399
C	 -4.529108	 -0.066634	 -0.818312
H	 -3.082089	 1.458120	 -0.386236
H	 -3.691214	 0.646136	 1.024347
H	 -4.245309	 -0.207781	 -1.855987
H	 -5.377597	 0.607416	 -0.796950
H	 -4.859516	 -1.025999	 -0.434014
C	 4.020999	 -0.192556	 0.000019
H	 4.182809	 0.412891	 -0.879449
H	 4.692590	 -1.035653	 0.000152
H	 4.182726	 0.413087	 0.879368

	symmetry c1
}
set optking {
	frozen_dihedral = ("
		15 11 8 12
	")
}

ee = optimize('scf')
oeprop('DIPOLE', 'QUADRUPOLE', 'MULLIKEN_CHARGES')
f=open( 'psi4out.xyz', 'w' )
f.write( "23  " )
f.write( str(ee) + "\n" )
f.write( MOL.save_string_xyz() )
f.close()
--------------------------------------------------------------------------

    Molecular point group: c1
  Charge       = 0
  Multiplicity = 1
  Basis Set: CC-PVTZ
  Basis Set:
  @DF-RHF Final Energy:  -423.12735381544206
    Total Energy =                       -423.1273538154424614
    Molecular point group: c1
  Basis Set: CC-PVTZ
  Basis Set:
  Basis Set: CC-PVTZ
  Basis Set:
  @DF-RHF Final Energy:  -423.12765364886184
    Total Energy =                       -423.1276536488617239
  Basis Set: CC-PVTZ
  Basis Set:
  Basis Set: CC-PVTZ
  Basis Set:
  @DF-RHF Final Energy:  -423.12770350410074
    Total Energy =                       -423.1277035041013050
  Basis Set: CC-PVTZ
  Basis Set:
  Basis Set: CC-PVTZ
  Basis Set:
  @DF-RHF Final Energy:  -423.12752807747415
    Total Energy =                       -423.1275280774747216
  Basis Set: CC-PVTZ
  Basis Set:
  Basis Set: CC-PVTZ
  Basis Set:
  @DF-RHF Final Energy:  -423.12770921036463
    Total Energy =                       -423.1277092103642872
  Basis Set: CC-PVTZ
  Basis Set:
  Charge       = 0
  Multiplicity = 1
  Basis Set: CC-PVTZ
  Basis Set:

    Orbital Energies (a.u.)
    -----------------------

    Doubly Occupied:

       1A    -20.596349     2A    -20.534163     3A    -11.364631
       4A    -11.278506     5A    -11.233753     6A    -11.217750
       7A    -11.215567     8A    -11.214246     9A    -11.208235
      10A     -1.472249    11A     -1.365828    12A     -1.093653
      13A     -1.043965    14A     -0.988210    15A     -0.932741
      16A     -0.845115    17A     -0.796086    18A     -0.769536
      19A     -0.699227    20A     -0.686713    21A     -0.675646
      22A     -0.648109    23A     -0.610510    24A     -0.601045
      25A     -0.575089    26A     -0.566124    27A     -0.550829
      28A     -0.525842    29A     -0.522988    30A     -0.506836
      31A     -0.489344    32A     -0.471253    33A     -0.463048
      34A     -0.462103    35A     -0.456743    36A     -0.438404

  @DF-RHF Final Energy:  -423.12770939319404

   => Energetics <=

    Nuclear Repulsion Energy =            452.9723116251219039
    One-Electron Energy =               -1473.9591655096908198
    Two-Electron Energy =                 597.8591444913745363
    DFT Exchange-Correlation Energy =       0.0000000000000000
    Empirical Dispersion Energy =           0.0000000000000000
    PCM Polarization Energy =               0.0000000000000000
    EFP Energy =                            0.0000000000000000
    Total Energy =                       -423.1277093931944364
    Molecular point group: c1
  Basis Set: CC-PVTZ
  Basis Set:

  -Total Gradient:
     Atom            X                  Y                   Z
    ------   -----------------  -----------------  -----------------
       1       -0.000004654565     0.000001146790     0.000002258928
       2        0.000005075824     0.000000491173    -0.000006924055
       3       -0.000004479792    -0.000005194149     0.000004621715
       4        0.000003224182    -0.000005635492     0.000003760596
       5        0.000007860555     0.000016219990    -0.000008285964
       6        0.000001682825     0.000001873739    -0.000000845908
       7       -0.000000379351     0.000001623736    -0.000002168845
       8        0.002858286542     0.003944554822    -0.001914855487
       9       -0.000003007150    -0.000006591243     0.000003278216
      10       -0.000008673988    -0.000003061073    -0.000001472247
      11       -0.001819924236    -0.002269924887    -0.004369563064
      12       -0.002106431228    -0.002937262240     0.002314146919
      13        0.000001267499     0.000000622142     0.000005128660
      14       -0.000011473991    -0.000009573540    -0.000011619224
      15        0.001068728541     0.001261674107     0.003966156068
      16       -0.000002214917    -0.000004923661     0.000002874082
      17        0.000003297859     0.000004608025     0.000006610988
      18        0.000004007579     0.000004236736     0.000006862377
      19        0.000009636142     0.000004870670     0.000000510109
      20       -0.000001048135     0.000000757208    -0.000000805617
      21        0.000000011252    -0.000000020083     0.000000112358
      22       -0.000000700004    -0.000000467609     0.000000118225
      23       -0.000000091438    -0.000000025160     0.000000101173

  **** Optimization is complete! (in 6 steps) ****
    Final optimized geometry and variables:
    Molecular point group: c1

    Geometry (in Angstrom), charge = 0, multiplicity = 1:

    O            1.838589275743     1.268663820805     0.088233888243
    C            1.693490414722     0.093953068566     0.097310230245
    C            0.368727023349    -0.624594428180     0.083803182301
    O            2.703385008351    -0.760433712833     0.121327569112
    C           -0.833854798582     0.307320347088     0.055473085739
    H            0.371833032774    -1.287633983376    -0.775223477386
    H            0.345264556955    -1.270682372869     0.955195718121
    C           -2.156590965258    -0.450299808962     0.033376366959
    H           -0.766743994556     0.953129999852    -0.812503328290
    H           -0.800474498429     0.961751679234     0.919571626308
    C           -3.389264219125     0.464458106249     0.074365215060
    H           -2.208855519629    -1.097994411446    -0.838303473962
    H           -2.194399775252    -1.127981803515     0.883184357045
    C           -4.593173552253    -0.095457389070    -0.672884555071
    H           -3.129438876722     1.446758438866    -0.308411504165
    H           -3.663987493692     0.635507331970     1.111311945444
    H           -4.377005341345    -0.212930143211    -1.729453982549
    H           -5.452815117050     0.558209640319    -0.580156920684
    H           -4.874788813138    -1.068940478668    -0.284501706453
    C            4.009505416844    -0.221029743859     0.136416206648
    H            4.185872609631     0.375775166531    -0.746170161802
    H            4.679860503919    -1.064923649801     0.155006353337
    H            4.158531380058     0.392796648856     1.012343407559

  Mulliken Charges: (a.u.)
   Center  Symbol    Alpha    Beta     Spin     Total
       1     O     4.19699  4.19699  0.00000 -0.39397
       2     C     2.80646  2.80646  0.00000  0.38708
       3     C     3.10230  3.10230  0.00000 -0.20460
       4     O     4.14648  4.14648  0.00000 -0.29295
       5     C     3.08330  3.08330  0.00000 -0.16660
       6     H     0.43977  0.43977  0.00000  0.12047
       7     H     0.43997  0.43997  0.00000  0.12006
       8     C     3.09277  3.09277  0.00000 -0.18554
       9     H     0.44621  0.44621  0.00000  0.10758
      10     H     0.44541  0.44541  0.00000  0.10918
      11     C     3.08618  3.08618  0.00000 -0.17236
      12     H     0.45542  0.45542  0.00000  0.08915
      13     H     0.45469  0.45469  0.00000  0.09062
      14     C     3.14836  3.14836  0.00000 -0.29671
      15     H     0.45245  0.45245  0.00000  0.09510
      16     H     0.45290  0.45290  0.00000  0.09419
      17     H     0.45528  0.45528  0.00000  0.08944
      18     H     0.44856  0.44856  0.00000  0.10288
      19     H     0.45477  0.45477  0.00000  0.09046
      20     C     3.03771  3.03771  0.00000 -0.07542
      21     H     0.45434  0.45434  0.00000  0.09132
      22     H     0.44533  0.44533  0.00000  0.10934
      23     H     0.45436  0.45436  0.00000  0.09128

   Total alpha = 36.00000, Total beta = 36.00000, Total charge = -0.00000
