  ==> Input File <==

--------------------------------------------------------------------------
set {
	reference rhf
	basis 6-31G*
}

set_num_threads( 1 )
memory 2 gb

molecule MOL {
0 1

H	 -2.350607	 -0.389752	 -0.219421
O	 -1.422729	 -0.573567	 -0.196946
C	 -0.731407	 0.539437	 0.309156
C	 0.680193	 0.672443	 -0.251532
H	 -1.319765	 1.404033	 0.030086
H	 -0.700012	 0.506517	 1.397677
C	 1.599139	 -0.492137	 0.118598
H	 0.616402	 0.758534	 -1.332349
H	 1.107032	 1.602637	 0.117369
H	 1.239738	 -1.428634	 -0.297334
H	 2.601428	 -0.335055	 -0.265730
H	 1.674954	 -0.608418	 1.197020

	symmetry c1
}
set optking {
	frozen_dihedral = ("
		8 4 3 2
	")
}

ee = energy('scf')
oeprop('DIPOLE', 'QUADRUPOLE', 'MULLIKEN_CHARGES')
f=open( 'psi4out.xyz', 'w' )
f.write( "12  " )
f.write( str(ee) + "\n" )
f.write( MOL.save_string_xyz() )
f.close()
--------------------------------------------------------------------------

    Molecular point group: c1

    Geometry (in Angstrom), charge = 0, multiplicity = 1:

       Center              X                  Y                   Z               Mass
    ------------   -----------------  -----------------  -----------------  -----------------
           H         -2.329132459517    -0.406143579422    -0.212706708341     1.007825032070
           O         -1.401254459517    -0.589958579422    -0.190231708341    15.994914619560
           C         -0.709932459517     0.523045420578     0.315870291659    12.000000000000
           C          0.701667540483     0.656051420578    -0.244817708341    12.000000000000
           H         -1.298290459517     1.387641420578     0.036800291659     1.007825032070
           H         -0.678537459517     0.490125420578     1.404391291659     1.007825032070
           C          1.620613540483    -0.508528579422     0.125312291659    12.000000000000
           H          0.637876540483     0.742142420578    -1.325634708341     1.007825032070
           H          1.128506540483     1.586245420578     0.124083291659     1.007825032070
           H          1.261212540483    -1.445025579422    -0.290619708341     1.007825032070
           H          2.622902540483    -0.351446579422    -0.259015708341     1.007825032070
           H          1.696428540483    -0.624809579422     1.203734291659     1.007825032070

  Charge       = 0
  Multiplicity = 1
  Basis Set: 6-31G*
  Basis Set:

    Orbital Energies (a.u.)
    -----------------------

    Doubly Occupied:

       1A    -20.550544     2A    -11.268138     3A    -11.217172
       4A    -11.204648     5A     -1.358649     6A     -1.046389
       7A     -0.917961     8A     -0.800588     9A     -0.700734
      10A     -0.644009    11A     -0.588434    12A     -0.576524
      13A     -0.538786    14A     -0.500517    15A     -0.482347
      16A     -0.461993    17A     -0.429701

  @DF-RHF Final Energy:  -193.10770642640858

   => Energetics <=

    Nuclear Repulsion Energy =            132.4385371732949466
    One-Electron Energy =                -524.5181500548666236
    Two-Electron Energy =                 198.9719064551630936
    DFT Exchange-Correlation Energy =       0.0000000000000000
    Empirical Dispersion Energy =           0.0000000000000000
    PCM Polarization Energy =               0.0000000000000000
    EFP Energy =                            0.0000000000000000
    Total Energy =                       -193.1077064264085834

  Mulliken Charges: (a.u.)
   Center  Symbol    Alpha    Beta     Spin     Total
       1     H     0.27927  0.27927  0.00000  0.44145
       2     O     4.37272  4.37272  0.00000 -0.74545
       3     C     2.99223  2.99223  0.00000  0.01553
       4     C     3.15898  3.15898  0.00000 -0.31795
       5     H     0.43292  0.43292  0.00000  0.13416
       6     H     0.43059  0.43059  0.00000  0.13883
       7     C     3.24221  3.24221  0.00000 -0.48443
       8     H     0.41669  0.41669  0.00000  0.16662
       9     H     0.42256  0.42256  0.00000  0.15489
      10     H     0.40808  0.40808  0.00000  0.18384
      11     H     0.42065  0.42065  0.00000  0.15871
      12     H     0.42311  0.42311  0.00000  0.15379

   Total alpha = 17.00000, Total beta = 17.00000, Total charge =  0.00000
