                              Psi4 1.0.54 Driver

  ==> Input File <==

--------------------------------------------------------------------------
set {
	reference rhf
	basis cc-pvtz
}

set_num_threads( 4 )
memory 2 gb

molecule MOL {
0 1

H	 -1.752232	 -2.214755	 -0.011938
C	 -1.343852	 -1.221619	 -0.018179
N	 -0.058800	 -1.097635	 -0.261688
C	 -2.148159	 -0.124236	 0.219734
C	 0.449026	 0.119242	 -0.273393
H	 -3.196988	 -0.237571	 0.417076
N	 -1.655094	 1.094230	 0.209506
C	 -0.370318	 1.215445	 -0.035100
C	 1.924033	 0.265863	 -0.538106
H	 0.033214	 2.210441	 -0.046812
C	 2.384474	 -0.525881	 -1.763089
H	 2.137233	 1.317389	 -0.688442
H	 2.479460	 -0.053039	 0.335975
H	 3.441613	 -0.368506	 -1.940923
H	 1.840747	 -0.213491	 -2.644992
H	 2.221658	 -1.588826	 -1.624572

	symmetry c1
}
set optking {
	frozen_dihedral = ("
		12 9 5 3
	")
}

ee,wfn = optimize('scf', return_wfn=True)
oeprop( wfn, 'DIPOLE', 'QUADRUPOLE', 'MULLIKEN_CHARGES')
f=open( 'psi4out.xyz', 'w' )
f.write( "16  " )
f.write( str(ee) + "\n" )
f.write( MOL.save_string_xyz() )
f.close()
--------------------------------------------------------------------------

    Molecular point group: c1
  Charge       = 0
  Multiplicity = 1
  Basis Set: CC-PVTZ
  Basis Set:
  @DF-RHF Final Energy:  -340.87172136625117
    Total Energy =                       -340.8717213662508811
    Molecular point group: c1
  Basis Set: CC-PVTZ
  Basis Set:
  Basis Set: CC-PVTZ
  Basis Set:
  @DF-RHF Final Energy:  -340.87183601698155
    Total Energy =                       -340.8718360169817174
  Basis Set: CC-PVTZ
  Basis Set:
  Basis Set: CC-PVTZ
  Basis Set:
  @DF-RHF Final Energy:  -340.87186585989565
    Total Energy =                       -340.8718658598959337
  Basis Set: CC-PVTZ
  Basis Set:
  Basis Set: CC-PVTZ
  Basis Set:
  @DF-RHF Final Energy:  -340.87187242772728
    Total Energy =                       -340.8718724277272258
  Basis Set: CC-PVTZ
  Basis Set:
  Charge       = 0
  Multiplicity = 1
  Basis Set: CC-PVTZ
  Basis Set:

    Orbital Energies (a.u.)
    -----------------------

    Doubly Occupied:

       1A    -15.580680     2A    -15.575873     3A    -11.278889
       4A    -11.272798     5A    -11.268276     6A    -11.267984
       7A    -11.232301     8A    -11.213094     9A     -1.316297
      10A     -1.224319    11A     -1.085483    12A     -1.014910
      13A     -0.909338    14A     -0.893045    15A     -0.827502
      16A     -0.720115    17A     -0.711416    18A     -0.659529
      19A     -0.621463    20A     -0.603544    21A     -0.577219
      22A     -0.562025    23A     -0.523216    24A     -0.505098
      25A     -0.501463    26A     -0.488906    27A     -0.433603
      28A     -0.397485    29A     -0.346914

  @DF-RHF Final Energy:  -340.87187303687745

   => Energetics <=

    Nuclear Repulsion Energy =            350.5077707122273978
    One-Electron Energy =               -1155.5337142332496114
    Two-Electron Energy =                 464.1540704841448246
    DFT Exchange-Correlation Energy =       0.0000000000000000
    Empirical Dispersion Energy =           0.0000000000000000
    PCM Polarization Energy =               0.0000000000000000
    EFP Energy =                            0.0000000000000000
    Total Energy =                       -340.8718730368773890
    Molecular point group: c1
  Basis Set: CC-PVTZ
  Basis Set:

  -Total Gradient:
     Atom            X                  Y                   Z
    ------   -----------------  -----------------  -----------------
       1       -0.000027480066     0.000003381052    -0.000048005414
       2        0.000211234442    -0.000084502503     0.000075534379
       3       -0.000309205142    -0.000037106328    -0.000959364179
       4       -0.000014387976     0.000203239648     0.000058388186
       5        0.000201631597     0.000114020574     0.001064202809
       6       -0.000011911687    -0.000015065701    -0.000042513414
       7       -0.000174904295    -0.000136510347     0.000058728092
       8        0.000203889722    -0.000038884487    -0.000140834476
       9        0.000139333829     0.000147779385     0.000939039523
      10       -0.000002733133    -0.000008333748     0.000030818034
      11        0.000001279622    -0.000018169365    -0.000026225107
      12       -0.000229839649    -0.000138725358    -0.001056252588
      13        0.000036779871     0.000000270529     0.000002086625
      14       -0.000061442096    -0.000008157513     0.000016671304
      15        0.000041364377    -0.000020359593     0.000052572173
      16       -0.000003609415     0.000037123756    -0.000024845947

  **** Optimization is complete! (in 5 steps) ****
    Final optimized geometry and variables:
    Molecular point group: c1

    Geometry (in Angstrom), charge = 0, multiplicity = 1:

    H           -1.700046280845    -2.175421709203     0.330152786660
    C           -1.292326539253    -1.182106720865     0.320329039697
    N           -0.009035512829    -1.057934672341     0.065166406766
    C           -2.094439349649    -0.085811033868     0.564863995738
    C            0.499944579520     0.157364581307     0.051186191564
    H           -3.141496699323    -0.198896497408     0.771094210474
    N           -1.601112583201     1.133052684484     0.549420869172
    C           -0.319079294357     1.253797162004     0.294104280450
    C            1.974261943381     0.317785972952    -0.222797878540
    H            0.084067922480     2.248778279618     0.278551634994
    C            2.462556362288    -0.482353722496    -1.428587482590
    H            2.189779368213     1.368906644956    -0.373220954317
    H            2.521976719327     0.007093825799     0.661502305229
    H            3.526840170235    -0.336051704854    -1.568628838672
    H            1.957983456708    -0.166200245914    -2.334445973562
    H            2.276530772748    -1.538026196430    -1.292689788731

  Mulliken Charges: (a.u.)
   Center  Symbol    Alpha    Beta     Spin     Total
       1     H     0.41433  0.41433  0.00000  0.17134
       2     C     3.04256  3.04256  0.00000 -0.08511
       3     N     3.59391  3.59391  0.00000 -0.18783
       4     C     3.04788  3.04788  0.00000 -0.09576
       5     C     2.94182  2.94182  0.00000  0.11636
       6     H     0.41367  0.41367  0.00000  0.17265
       7     N     3.58662  3.58662  0.00000 -0.17323
       8     C     3.07821  3.07821  0.00000 -0.15642
       9     C     3.07528  3.07528  0.00000 -0.15056
      10     H     0.41640  0.41640  0.00000  0.16720
      11     C     3.14492  3.14492  0.00000 -0.28984
      12     H     0.44933  0.44933  0.00000  0.10135
      13     H     0.44750  0.44750  0.00000  0.10501
      14     H     0.45023  0.45023  0.00000  0.09954
      15     H     0.45422  0.45422  0.00000  0.09157
      16     H     0.44313  0.44313  0.00000  0.11374

   Total alpha = 29.00000, Total beta = 29.00000, Total charge = -0.00000

*** Psi4 exiting successfully. Buy a developer a beer!
