                              Psi4 1.0.54 Driver

  ==> Input File <==

--------------------------------------------------------------------------
set {
	reference rhf
	basis cc-pvtz
}

set_num_threads( 4 )
memory 2 gb

molecule MOL {
0 1

H	 -2.698799	 -0.000846	 0.036018
C	 -1.694291	 -0.000483	 0.434279
O	 -0.828718	 -0.000608	 -0.655022
H	 -1.576855	 0.881100	 1.056504
H	 -1.576401	 -0.881658	 1.057001
C	 0.557892	 0.000078	 -0.420099
C	 1.325431	 0.825194	 -1.446909
C	 0.909017	 0.386358	 1.012293
H	 0.832877	 -1.038077	 -0.558792
H	 1.024717	 0.552011	 -2.450901
H	 2.388520	 0.638872	 -1.347550
H	 1.167367	 1.889650	 -1.318333
H	 0.319590	 -0.191203	 1.713751
H	 1.957004	 0.184193	 1.201041
H	 0.739800	 1.439131	 1.206142

	symmetry c1
}
set optking {
	frozen_dihedral = ("
		9 6 3 2
	")
}

ee,wfn = optimize('scf', return_wfn=True)
oeprop( wfn, 'DIPOLE', 'QUADRUPOLE', 'MULLIKEN_CHARGES')
f=open( 'psi4out.xyz', 'w' )
f.write( "15  " )
f.write( str(ee) + "\n" )
f.write( MOL.save_string_xyz() )
f.close()
--------------------------------------------------------------------------

    Molecular point group: c1
  Charge       = 0
  Multiplicity = 1
  Basis Set: CC-PVTZ
  Basis Set:
  @DF-RHF Final Energy:  -232.21884874972719
    Total Energy =                       -232.2188487497272718
    Molecular point group: c1
  Basis Set: CC-PVTZ
  Basis Set:
  Basis Set: CC-PVTZ
  Basis Set:
  @DF-RHF Final Energy:  -231.21533233132311
    Total Energy =                       -231.2153323313229407
  Basis Set: CC-PVTZ
  Basis Set:
  Basis Set: CC-PVTZ
  Basis Set:
  @DF-RHF Final Energy:  -231.41019473221999
    Total Energy =                       -231.4101947322199635
  Basis Set: CC-PVTZ
  Basis Set:
  Basis Set: CC-PVTZ
  Basis Set:
  @DF-RHF Final Energy:  -231.74892192105770
    Total Energy =                       -231.7489219210575584
  Basis Set: CC-PVTZ
  Basis Set:
  @DF-RHF Final Energy:  -232.02348466991791
    Total Energy =                       -232.0234846699180480
  @DF-RHF Final Energy:  -232.18735249399626
    Total Energy =                       -232.1873524939964000
  @DF-RHF Final Energy:  -232.22093388382910
    Total Energy =                       -232.2209338838291046
  @DF-RHF Final Energy:  -232.22362699507119
    Total Energy =                       -232.2236269950711858
  Basis Set: CC-PVTZ
  Basis Set:
  @DF-RHF Final Energy:  -232.22377308052469
    Total Energy =                       -232.2237730805246656
  Basis Set: CC-PVTZ
  Basis Set:
  Basis Set: CC-PVTZ
  Basis Set:
  @DF-RHF Final Energy:  -232.22379816418507
    Total Energy =                       -232.2237981641850411
  Basis Set: CC-PVTZ
  Basis Set:
  Basis Set: CC-PVTZ
  Basis Set:
  @DF-RHF Final Energy:  -232.22380313958533
    Total Energy =                       -232.2238031395853568
  Basis Set: CC-PVTZ
  Basis Set:
  Charge       = 0
  Multiplicity = 1
  Basis Set: CC-PVTZ
  Basis Set:

    Orbital Energies (a.u.)
    -----------------------

    Doubly Occupied:

       1A    -20.540586     2A    -11.273252     3A    -11.259867
       4A    -11.213186     5A    -11.203112     6A     -1.371909
       7A     -1.054418     8A     -0.950315     9A     -0.914208
      10A     -0.784545    11A     -0.677925    12A     -0.643227
      13A     -0.632012    14A     -0.591327    15A     -0.551937
      16A     -0.542401    17A     -0.527785    18A     -0.504933
      19A     -0.494809    20A     -0.450559    21A     -0.403615

  @DF-RHF Final Energy:  -232.22380350518353

   => Energetics <=

    Nuclear Repulsion Energy =            198.1048527992227832
    One-Electron Energy =                -707.4854542981880741
    Two-Electron Energy =                 277.1567979937816517
    DFT Exchange-Correlation Energy =       0.0000000000000000
    Empirical Dispersion Energy =           0.0000000000000000
    PCM Polarization Energy =               0.0000000000000000
    EFP Energy =                            0.0000000000000000
    Total Energy =                       -232.2238035051836391
    Molecular point group: c1
  Basis Set: CC-PVTZ
  Basis Set:

  -Total Gradient:
     Atom            X                  Y                   Z
    ------   -----------------  -----------------  -----------------
       1       -0.000007819670     0.000003094373     0.000008982578
       2        0.002851080113     0.002288268057     0.001534874211
       3       -0.003727847627    -0.003255950837    -0.003168922514
       4       -0.000000065749    -0.000000032451    -0.000002706882
       5       -0.000008448265     0.000014891890     0.000004043483
       6       -0.001650703954     0.000235728767     0.005388899096
       7        0.000017665410    -0.000010364471    -0.000017108480
       8       -0.000002670664     0.000014468513     0.000018916159
       9        0.002549199068     0.000729070925    -0.003736113005
      10        0.000010167736     0.000011669092    -0.000018437972
      11        0.000007968351    -0.000001208192    -0.000000693527
      12       -0.000013420430    -0.000013007472     0.000000368008
      13       -0.000021488796    -0.000009407546     0.000028108946
      14       -0.000002632949     0.000004696914    -0.000020371929
      15       -0.000000982573    -0.000011917563    -0.000019838172

  **** Optimization is complete! (in 12 steps) ****
    Final optimized geometry and variables:
    Molecular point group: c1

    Geometry (in Angstrom), charge = 0, multiplicity = 1:

    H           -1.935154695160     1.963412226566    -0.052262337023
    C           -1.465536404551     1.103632068257     0.404143609654
    O           -0.566579232585     0.598803118291    -0.527386337477
    H           -0.981019214296     1.426409988638     1.318991421585
    H           -2.244259372188     0.388145550679     0.658165535915
    C            0.194023925718    -0.553516105992    -0.241903209365
    C            1.539259050891    -0.354743727685    -0.924093846807
    C            0.366779755505    -0.873753581318     1.236253583205
    H           -0.291595781625    -1.394642655563    -0.734112040674
    H            1.392502463441    -0.109732498743    -1.967967100225
    H            2.140064166563    -1.255316798533    -0.862680845974
    H            2.084997926761     0.458558666840    -0.459177298506
    H           -0.576243860275    -1.058526461003     1.733641915926
    H            0.966910344539    -1.770602598339     1.329816707601
    H            0.880625322180    -0.073774970704     1.756986776923

  Mulliken Charges: (a.u.)
   Center  Symbol    Alpha    Beta     Spin     Total
       1     H     0.44280  0.44280  0.00000  0.11440
       2     C     3.03821  3.03821  0.00000 -0.07642
       3     O     4.18568  4.18568  0.00000 -0.37135
       4     H     0.46929  0.46929  0.00000  0.06143
       5     H     0.47088  0.47088  0.00000  0.05825
       6     C     2.92066  2.92066  0.00000  0.15868
       7     C     3.13917  3.13917  0.00000 -0.27835
       8     C     3.17044  3.17044  0.00000 -0.34088
       9     H     0.46028  0.46028  0.00000  0.07943
      10     H     0.44593  0.44593  0.00000  0.10814
      11     H     0.46015  0.46015  0.00000  0.07970
      12     H     0.45708  0.45708  0.00000  0.08584
      13     H     0.44503  0.44503  0.00000  0.10993
      14     H     0.44401  0.44401  0.00000  0.11197
      15     H     0.45039  0.45039  0.00000  0.09922

   Total alpha = 21.00000, Total beta = 21.00000, Total charge = -0.00000

*** Psi4 exiting successfully. Buy a developer a beer!
