  ==> Input File <==

--------------------------------------------------------------------------
set {
	reference rhf
	basis 6-31G*
}

set_num_threads( 4 )
memory 2 gb

molecule MOL {
0 1

H	 2.652209	 0.763231	 0.000000
O	 2.263154	 -0.100023	 0.000000
C	 0.912879	 -0.015685	 0.000000
C	 0.215713	 -0.918288	 0.792369
C	 0.226922	 0.924455	 -0.751455
H	 0.766752	 -1.639167	 1.367258
C	 -1.164408	 -0.871602	 0.825462
H	 0.768438	 1.624292	 -1.365872
C	 -1.159233	 0.960033	 -0.708744
H	 -1.699717	 -1.572776	 1.440674
C	 -1.863456	 0.066217	 0.076635
H	 -1.684140	 1.693034	 -1.295151
H	 -2.937188	 0.096453	 0.107478

	symmetry c1
}
set optking {
	frozen_dihedral = ("
		4 3 2 1
	")
}

ee = optimize('scf')
oeprop('DIPOLE', 'QUADRUPOLE', 'MULLIKEN_CHARGES')
f=open( 'psi4out.xyz', 'w' )
f.write( "13  " )
f.write( str(ee) + "\n" )
f.write( MOL.save_string_xyz() )
f.close()
--------------------------------------------------------------------------

    Molecular point group: c1
  Charge       = 0
  Multiplicity = 1
  Basis Set: 6-31G*
  Basis Set:
  @DF-RHF Final Energy:  -305.55555241449701
    Total Energy =                       -305.5555524144969013
    Molecular point group: c1
  Basis Set: 6-31G*
  Basis Set:
  Basis Set: 6-31G*
  Basis Set:
  @DF-RHF Final Energy:  -305.55566787517984
    Total Energy =                       -305.5556678751798927
  Basis Set: 6-31G*
  Basis Set:
  Basis Set: 6-31G*
  Basis Set:
  @DF-RHF Final Energy:  -305.55568540568623
    Total Energy =                       -305.5556854056865745
  Basis Set: 6-31G*
  Basis Set:
  Charge       = 0
  Multiplicity = 1
  Basis Set: 6-31G*
  Basis Set:

    Orbital Energies (a.u.)
    -----------------------

    Doubly Occupied:

       1A    -20.584327     2A    -11.294115     3A    -11.236259
       4A    -11.234567     5A    -11.228000     6A    -11.224323
       7A    -11.223332     8A     -1.401373     9A     -1.147476
      10A     -1.018382    11A     -1.003853    12A     -0.841704
      13A     -0.822383    14A     -0.734433    15A     -0.682362
      16A     -0.647860    17A     -0.617858    18A     -0.592996
      19A     -0.588454    20A     -0.539832    21A     -0.513683
      22A     -0.491066    23A     -0.474522    24A     -0.337508
      25A     -0.315146

  @DF-RHF Final Energy:  -305.55568713379353

   => Energetics <=

    Nuclear Repulsion Energy =            272.9320464482386797
    One-Electron Energy =                -955.3838367463633858
    Two-Electron Energy =                 376.8961031643311230
    DFT Exchange-Correlation Energy =       0.0000000000000000
    Empirical Dispersion Energy =           0.0000000000000000
    PCM Polarization Energy =               0.0000000000000000
    EFP Energy =                            0.0000000000000000
    Total Energy =                       -305.5556871337935831
    Molecular point group: c1
  Basis Set: 6-31G*
  Basis Set:

  -Total Gradient:
     Atom            X                  Y                   Z
    ------   -----------------  -----------------  -----------------
       1       -0.000046510761    -0.000001661111     0.002571754208
       2        0.000163857906     0.000491099937    -0.002489216188
       3       -0.000318011605    -0.001573567557    -0.001535811255
       4       -0.000044493263     0.001179850020     0.001449863974
       5        0.000177397176    -0.000139096049     0.000006774727
       6        0.000031990234    -0.000014652246     0.000020214110
       7        0.000211380983    -0.000151969847     0.000045123243
       8       -0.000007933889     0.000006868966    -0.000001020826
       9       -0.000247142382    -0.000051719834     0.000084726552
      10        0.000014378680     0.000021588683    -0.000012925118
      11        0.000062023291     0.000242142512    -0.000139890403
      12        0.000015709714     0.000006713291     0.000005166084
      13       -0.000012646080    -0.000015596768    -0.000004759106

  **** Optimization is complete! (in 4 steps) ****
    Final optimized geometry and variables:
    Molecular point group: c1

    Geometry (in Angstrom), charge = 0, multiplicity = 1:

    H            2.650216922360     0.756917869724    -0.046078585841
    O            2.268089240112    -0.109499909163    -0.044274129455
    C            0.909452704694    -0.028749316392    -0.026560875608
    C            0.213002730087    -0.928162332404     0.765418858818
    C            0.226403576434     0.913058276821    -0.779175084856
    H            0.763672699007    -1.644803484474     1.345983304771
    C           -1.169851755490    -0.889381466816     0.789112661815
    H            0.774035205653     1.602156709063    -1.398839402096
    C           -1.158547043920     0.952469949331    -0.736877528659
    H           -1.707410705931    -1.591267047331     1.401484875252
    C           -1.863790346025     0.051875198515     0.042832425160
    H           -1.683801912406     1.686488679838    -1.321658553354
    H           -2.937889561739     0.081652026156     0.069866616744

  Mulliken Charges: (a.u.)
   Center  Symbol    Alpha    Beta     Spin     Total
       1     H     0.27220  0.27220  0.00000  0.45560
       2     O     4.38304  4.38304  0.00000 -0.76608
       3     C     2.80360  2.80360  0.00000  0.39280
       4     C     3.12059  3.12059  0.00000 -0.24118
       5     C     3.13513  3.13513  0.00000 -0.27025
       6     H     0.39189  0.39189  0.00000  0.21622
       7     C     3.09345  3.09345  0.00000 -0.18690
       8     H     0.40095  0.40095  0.00000  0.19810
       9     C     3.09291  3.09291  0.00000 -0.18582
      10     H     0.39798  0.39798  0.00000  0.20404
      11     C     3.10991  3.10991  0.00000 -0.21981
      12     H     0.39825  0.39825  0.00000  0.20350
      13     H     0.40012  0.40012  0.00000  0.19977

   Total alpha = 25.00000, Total beta = 25.00000, Total charge = -0.00000
