                              Psi4 1.0.54 Driver

  ==> Input File <==

--------------------------------------------------------------------------
set {
	reference rhf
	basis cc-pvtz
}

set_num_threads( 4 )
memory 2 gb

molecule MOL {
0 1

H	 -1.752232	 -2.214755	 -0.011938
C	 -1.343852	 -1.221619	 -0.018179
N	 -0.058800	 -1.097635	 -0.261688
C	 -2.148159	 -0.124236	 0.219734
C	 0.449026	 0.119242	 -0.273393
H	 -3.196988	 -0.237571	 0.417076
N	 -1.655094	 1.094230	 0.209506
C	 -0.370318	 1.215445	 -0.035100
C	 1.924033	 0.265863	 -0.538106
H	 0.033214	 2.210441	 -0.046812
C	 2.735576	 -0.926245	 -0.028472
H	 2.066761	 0.367510	 -1.607245
H	 2.282785	 1.178805	 -0.077618
H	 3.784951	 -0.800373	 -0.267011
H	 2.390611	 -1.844857	 -0.484685
H	 2.645443	 -1.028505	 1.047152

	symmetry c1
}
set optking {
	frozen_dihedral = ("
		12 9 5 3
	")
}

ee,wfn = optimize('scf', return_wfn=True)
oeprop( wfn, 'DIPOLE', 'QUADRUPOLE', 'MULLIKEN_CHARGES')
f=open( 'psi4out.xyz', 'w' )
f.write( "16  " )
f.write( str(ee) + "\n" )
f.write( MOL.save_string_xyz() )
f.close()
--------------------------------------------------------------------------

    Molecular point group: c1
  Charge       = 0
  Multiplicity = 1
  Basis Set: CC-PVTZ
  Basis Set:
  @DF-RHF Final Energy:  -340.87082840850525
    Total Energy =                       -340.8708284085053037
    Molecular point group: c1
  Basis Set: CC-PVTZ
  Basis Set:
  Basis Set: CC-PVTZ
  Basis Set:
  @DF-RHF Final Energy:  -340.87059381492253
    Total Energy =                       -340.8705938149224153
  Basis Set: CC-PVTZ
  Basis Set:
  Basis Set: CC-PVTZ
  Basis Set:
  @DF-RHF Final Energy:  -340.87132520129597
    Total Energy =                       -340.8713252012955763
  Basis Set: CC-PVTZ
  Basis Set:
  Basis Set: CC-PVTZ
  Basis Set:
  @DF-RHF Final Energy:  -340.87134539032036
    Total Energy =                       -340.8713453903203572
  Basis Set: CC-PVTZ
  Basis Set:
  Basis Set: CC-PVTZ
  Basis Set:
  @DF-RHF Final Energy:  -340.87136668078813
    Total Energy =                       -340.8713666807878440
  Basis Set: CC-PVTZ
  Basis Set:
  Basis Set: CC-PVTZ
  Basis Set:
  @DF-RHF Final Energy:  -340.87137002934105
    Total Energy =                       -340.8713700293408806
  Basis Set: CC-PVTZ
  Basis Set:
  Basis Set: CC-PVTZ
  Basis Set:
  @DF-RHF Final Energy:  -340.87137120373853
    Total Energy =                       -340.8713712037386472
  Basis Set: CC-PVTZ
  Basis Set:
  Charge       = 0
  Multiplicity = 1
  Basis Set: CC-PVTZ
  Basis Set:

    Orbital Energies (a.u.)
    -----------------------

    Doubly Occupied:

       1A    -15.580527     2A    -15.575356     3A    -11.279736
       4A    -11.271797     5A    -11.268706     6A    -11.267018
       7A    -11.232970     8A    -11.211949     9A     -1.316067
      10A     -1.224098    11A     -1.085060    12A     -1.015041
      13A     -0.910983    14A     -0.891689    15A     -0.826372
      16A     -0.720344    17A     -0.709863    18A     -0.658841
      19A     -0.625431    20A     -0.603826    21A     -0.573199
      22A     -0.561448    23A     -0.523589    24A     -0.504566
      25A     -0.501837    26A     -0.487838    27A     -0.434218
      28A     -0.397244    29A     -0.346271

  @DF-RHF Final Energy:  -340.87137134298320

   => Energetics <=

    Nuclear Repulsion Energy =            350.4055748931000949
    One-Electron Energy =               -1155.3421217409334076
    Two-Electron Energy =                 464.0651755048501172
    DFT Exchange-Correlation Energy =       0.0000000000000000
    Empirical Dispersion Energy =           0.0000000000000000
    PCM Polarization Energy =               0.0000000000000000
    EFP Energy =                            0.0000000000000000
    Total Energy =                       -340.8713713429832524
    Molecular point group: c1
  Basis Set: CC-PVTZ
  Basis Set:

  -Total Gradient:
     Atom            X                  Y                   Z
    ------   -----------------  -----------------  -----------------
       1        0.000012574476     0.000000186975     0.000030899069
       2       -0.000040737784     0.000027665533    -0.000066257282
       3        0.000157761935    -0.000104420455     0.000689819635
       4        0.000015893190    -0.000037849363    -0.000011222673
       5       -0.000198488407     0.000317433185    -0.000898440052
       6        0.000008201516    -0.000002494691     0.000007526806
       7        0.000039794104     0.000008896200    -0.000005713530
       8       -0.000009148602     0.000006797960     0.000031692366
       9        0.000071779022    -0.001008685745     0.000106232137
      10       -0.000003686985     0.000001217939    -0.000023012171
      11       -0.000028869891     0.000015519231     0.000004530809
      12       -0.000008627334     0.000782201047     0.000138647732
      13       -0.000013999643     0.000002948866    -0.000003152506
      14        0.000014388466     0.000012432483    -0.000007808923
      15       -0.000010666212    -0.000020405906    -0.000020230248
      16       -0.000006167853    -0.000001443260     0.000026488830

  **** Optimization is complete! (in 8 steps) ****
    Final optimized geometry and variables:
    Molecular point group: c1

    Geometry (in Angstrom), charge = 0, multiplicity = 1:

    H           -1.960031240996    -1.947930240371    -0.053493093550
    C           -1.457112422924    -1.001241540868     0.005568470612
    N           -0.159791567039    -0.991072293617    -0.225192333179
    C           -2.148377558846     0.148831362941     0.313749933376
    C            0.466480427183     0.162036530370    -0.154271066166
    H           -3.204850554269     0.130213778270     0.500288127131
    N           -1.532408790587     1.311655554494     0.394117045687
    C           -0.243184217106     1.317973722135     0.165532849632
    C            1.947735865789     0.215767809331    -0.441851721905
    H            0.261922697744     2.263274326893     0.235579861640
    C            2.714393834171    -1.038568941235    -0.038270842624
    H            2.079466552575     0.397902260526    -1.505067160030
    H            2.364345333280     1.080906522126     0.061573077438
    H            3.767522894134    -0.917351747005    -0.262222250377
    H            2.348620706847    -1.906748611959    -0.566933024715
    H            2.615050279770    -1.230336856805     1.023750802701

  Mulliken Charges: (a.u.)
   Center  Symbol    Alpha    Beta     Spin     Total
       1     H     0.41454  0.41454  0.00000  0.17092
       2     C     3.04416  3.04416  0.00000 -0.08832
       3     N     3.59140  3.59140  0.00000 -0.18280
       4     C     3.04766  3.04766  0.00000 -0.09531
       5     C     2.94404  2.94404  0.00000  0.11191
       6     H     0.41368  0.41368  0.00000  0.17265
       7     N     3.58673  3.58673  0.00000 -0.17347
       8     C     3.07663  3.07663  0.00000 -0.15326
       9     C     3.07732  3.07732  0.00000 -0.15465
      10     H     0.41669  0.41669  0.00000  0.16662
      11     C     3.14453  3.14453  0.00000 -0.28905
      12     H     0.44706  0.44706  0.00000  0.10589
      13     H     0.44877  0.44877  0.00000  0.10245
      14     H     0.45025  0.45025  0.00000  0.09950
      15     H     0.44351  0.44351  0.00000  0.11298
      16     H     0.45303  0.45303  0.00000  0.09394

   Total alpha = 29.00000, Total beta = 29.00000, Total charge = -0.00000

*** Psi4 exiting successfully. Buy a developer a beer!
