  ==> Input File <==

--------------------------------------------------------------------------
set {
	reference rhf
	basis 6-31G*
}

set_num_threads( 1 )
memory 2 gb

molecule MOL {
0 1

H	 -2.527896	 0.213258	 0.865564
O	 -2.035884	 -0.060112	 0.102722
C	 -0.955155	 0.788182	 -0.092531
C	 0.353668	 0.040312	 -0.004810
H	 -0.985057	 1.290372	 -1.054184
H	 -0.974469	 1.533190	 0.688632
F	 0.394464	 -0.937475	 -0.903053
F	 1.368604	 0.853376	 -0.249821
F	 0.546173	 -0.502608	 1.179981

	symmetry c1
}
set optking {
	frozen_dihedral = ("
		7 4 3 5
	")
}

ee = energy('scf')
oeprop('DIPOLE', 'QUADRUPOLE', 'MULLIKEN_CHARGES')
f=open( 'psi4out.xyz', 'w' )
f.write( "9  " )
f.write( str(ee) + "\n" )
f.write( MOL.save_string_xyz() )
f.close()
--------------------------------------------------------------------------

    Molecular point group: c1

    Geometry (in Angstrom), charge = 0, multiplicity = 1:

       Center              X                  Y                   Z               Mass
    ------------   -----------------  -----------------  -----------------  -----------------
           H         -2.523573794624     0.204313928880     0.850627511814     1.007825032070
           O         -2.031561794623    -0.069056071120     0.087785511814    15.994914619560
           C         -0.950832794624     0.779237928880    -0.107467488186    12.000000000000
           C          0.357990205376     0.031367928880    -0.019746488186    12.000000000000
           H         -0.980734794624     1.281427928880    -1.069120488186     1.007825032070
           H         -0.970146794624     1.524245928880     0.673695511814     1.007825032070
           F          0.398786205376    -0.946419071120    -0.917989488186    18.998403224000
           F          1.372926205376     0.844431928880    -0.264757488186    18.998403224000
           F          0.550495205376    -0.511552071120     1.165044511814    18.998403224000

  Charge       = 0
  Multiplicity = 1
  Basis Set: 6-31G*
  Basis Set:

    Orbital Energies (a.u.)
    -----------------------

    Doubly Occupied:

       1A    -26.340224     2A    -26.337273     3A    -26.329190
       4A    -20.589134     5A    -11.496456     6A    -11.310464
       7A     -1.733947     8A     -1.635237     9A     -1.626866
      10A     -1.402112    11A     -1.046885    12A     -0.918069
      13A     -0.824444    14A     -0.823598    15A     -0.788748
      16A     -0.737342    17A     -0.706804    18A     -0.695217
      19A     -0.664501    20A     -0.650010    21A     -0.636412
      22A     -0.634849    23A     -0.599025    24A     -0.528301
      25A     -0.479053

  @DF-RHF Final Energy:  -450.65836292083611

   => Energetics <=

    Nuclear Repulsion Energy =            276.3389872543060619
    One-Electron Energy =               -1174.9264906312232597
    Two-Electron Energy =                 447.9291404560811429
    DFT Exchange-Correlation Energy =       0.0000000000000000
    Empirical Dispersion Energy =           0.0000000000000000
    PCM Polarization Energy =               0.0000000000000000
    EFP Energy =                            0.0000000000000000
    Total Energy =                       -450.6583629208360549

  Mulliken Charges: (a.u.)
   Center  Symbol    Alpha    Beta     Spin     Total
       1     H     0.27041  0.27041  0.00000  0.45918
       2     O     4.36204  4.36204  0.00000 -0.72407
       3     C     3.05562  3.05562  0.00000 -0.11125
       4     C     2.45524  2.45524  0.00000  1.08952
       5     H     0.40249  0.40249  0.00000  0.19502
       6     H     0.41257  0.41257  0.00000  0.17485
       7     F     4.68101  4.68101  0.00000 -0.36201
       8     F     4.68245  4.68245  0.00000 -0.36490
       9     F     4.67817  4.67817  0.00000 -0.35634

   Total alpha = 25.00000, Total beta = 25.00000, Total charge = -0.00000
