  ==> Input File <==

--------------------------------------------------------------------------
set {
	reference rhf
	basis 6-31G*
}

set_num_threads( 4 )
memory 2 gb

molecule MOL {
0 1

O	 0.625848	 1.349995	 -0.000749
C	 0.486307	 0.169203	 0.000779
C	 1.608116	 -0.841643	 0.000302
O	 -0.698257	 -0.426125	 0.001050
C	 2.990107	 -0.200498	 -0.000684
H	 1.468623	 -1.481519	 -0.865924
H	 1.469683	 -1.481289	 0.866878
H	 3.129736	 0.423364	 -0.875135
H	 3.757882	 -0.966877	 -0.001197
H	 3.130964	 0.423383	 0.873533
C	 -1.844423	 0.389607	 0.220788
C	 -3.059395	 -0.512548	 0.173144
H	 -1.884334	 1.154503	 -0.542708
H	 -1.748807	 0.881253	 1.179294
H	 -3.137894	 -1.001593	 -0.791134
H	 -3.959550	 0.071119	 0.336551
H	 -3.001754	 -1.276352	 0.940306

	symmetry c1
}
set optking {
	frozen_dihedral = ("
		11 4 2 3
	")
}

ee = optimize('scf')
oeprop('DIPOLE', 'QUADRUPOLE', 'MULLIKEN_CHARGES')
f=open( 'psi4out.xyz', 'w' )
f.write( "17  " )
f.write( str(ee) + "\n" )
f.write( MOL.save_string_xyz() )
f.close()
--------------------------------------------------------------------------

    Molecular point group: c1
  Charge       = 0
  Multiplicity = 1
  Basis Set: 6-31G*
  Basis Set:
  @DF-RHF Final Energy:  -344.91134564075486
    Total Energy =                       -344.9113456407546892
    Molecular point group: c1
  Basis Set: 6-31G*
  Basis Set:
  Basis Set: 6-31G*
  Basis Set:
  @DF-RHF Final Energy:  -344.91016350139796
    Total Energy =                       -344.9101635013976193
  Basis Set: 6-31G*
  Basis Set:
  Basis Set: 6-31G*
  Basis Set:
  @DF-RHF Final Energy:  -344.91143046662063
    Total Energy =                       -344.9114304666207431
  Basis Set: 6-31G*
  Basis Set:
  Basis Set: 6-31G*
  Basis Set:
  @DF-RHF Final Energy:  -344.91146068943823
    Total Energy =                       -344.9114606894382860
  Basis Set: 6-31G*
  Basis Set:
  Basis Set: 6-31G*
  Basis Set:
  @DF-RHF Final Energy:  -344.91147350861212
    Total Energy =                       -344.9114735086121755
  Basis Set: 6-31G*
  Basis Set:
  Basis Set: 6-31G*
  Basis Set:
  @DF-RHF Final Energy:  -344.91147677694198
    Total Energy =                       -344.9114767769425498
  Basis Set: 6-31G*
  Basis Set:
  Charge       = 0
  Multiplicity = 1
  Basis Set: 6-31G*
  Basis Set:

    Orbital Energies (a.u.)
    -----------------------

    Doubly Occupied:

       1A    -20.600507     2A    -20.544447     3A    -11.371366
       4A    -11.284995     5A    -11.237659     6A    -11.222389
       7A    -11.215865     8A     -1.467298     9A     -1.361946
      10A     -1.069924    11A     -1.031902    12A     -0.910652
      13A     -0.847700    14A     -0.772726    15A     -0.695612
      16A     -0.689232    17A     -0.664459    18A     -0.629727
      19A     -0.582324    20A     -0.572714    21A     -0.558200
      22A     -0.523702    23A     -0.519698    24A     -0.514179
      25A     -0.504499    26A     -0.492637    27A     -0.452557
      28A     -0.435961

  @DF-RHF Final Energy:  -344.91147702482266

   => Energetics <=

    Nuclear Repulsion Energy =            314.6726364560822162
    One-Electron Energy =               -1093.6184708974881232
    Two-Electron Energy =                 434.0343574165833616
    DFT Exchange-Correlation Energy =       0.0000000000000000
    Empirical Dispersion Energy =           0.0000000000000000
    PCM Polarization Energy =               0.0000000000000000
    EFP Energy =                            0.0000000000000000
    Total Energy =                       -344.9114770248224886
    Molecular point group: c1
  Basis Set: 6-31G*
  Basis Set:

  -Total Gradient:
     Atom            X                  Y                   Z
    ------   -----------------  -----------------  -----------------
       1       -0.000014651768    -0.000015517991    -0.000011689679
       2        0.000178545692    -0.000041862179    -0.001876199518
       3       -0.000064836522    -0.000121626390     0.002175620905
       4       -0.000248110823     0.000692620562    -0.002659541989
       5       -0.000015561478     0.000002008107     0.000000254398
       6       -0.000000499577    -0.000007010469    -0.000002674100
       7       -0.000002536345    -0.000001326727    -0.000001675073
       8        0.000000652185     0.000001466818    -0.000001300787
       9       -0.000007171579    -0.000001103559     0.000000718690
      10        0.000002716760     0.000003181955     0.000002364242
      11        0.000130367940    -0.000493613855     0.002382272110
      12        0.000017014129    -0.000015696010    -0.000000243672
      13        0.000010049914     0.000004949144    -0.000009499322
      14        0.000008621419    -0.000005795688     0.000001022886
      15       -0.000000335327    -0.000000390896    -0.000000287807
      16        0.000010217207     0.000005175177    -0.000000368036
      17       -0.000004481826    -0.000005458000     0.000001226751

  **** Optimization is complete! (in 7 steps) ****
    Final optimized geometry and variables:
    Molecular point group: c1

    Geometry (in Angstrom), charge = 0, multiplicity = 1:

    O            0.627118521063     1.352522739229     0.069388348106
    C            0.485591688221     0.176224863002    -0.029251792929
    C            1.604601478224    -0.837359544981    -0.048500263232
    O           -0.700512525517    -0.413348571651    -0.096717409536
    C            2.987429473036    -0.200903371116    -0.110844605866
    H            1.436280008588    -1.506880001143    -0.885998115481
    H            1.492281387904    -1.445158716267     0.845090658756
    H            3.104091960650     0.391129589943    -1.010900698464
    H            3.753357613542    -0.969093197227    -0.106942268339
    H            3.153419343006     0.452925779088     0.736212988449
    C           -1.850434530246     0.395009247782     0.130466173754
    C           -3.061099365997    -0.512442865934     0.075058043858
    H           -1.895853216188     1.167783851093    -0.624385316153
    H           -1.755282709295     0.876719703060     1.094381771425
    H           -3.137897144102    -0.991757397703    -0.894237758142
    H           -3.963888233463     0.065315719180     0.244836941261
    H           -2.999283111254    -1.283959521317     0.834120329429

  Mulliken Charges: (a.u.)
   Center  Symbol    Alpha    Beta     Spin     Total
       1     O     4.28583  4.28583  0.00000 -0.57165
       2     C     2.60555  2.60555  0.00000  0.78889
       3     C     3.20504  3.20504  0.00000 -0.41007
       4     O     4.31344  4.31344  0.00000 -0.62688
       5     C     3.23913  3.23913  0.00000 -0.47827
       6     H     0.40083  0.40083  0.00000  0.19834
       7     H     0.40084  0.40084  0.00000  0.19832
       8     H     0.41141  0.41141  0.00000  0.17718
       9     H     0.41813  0.41813  0.00000  0.16373
      10     H     0.40839  0.40839  0.00000  0.18322
      11     C     3.00218  3.00218  0.00000 -0.00436
      12     C     3.24840  3.24840  0.00000 -0.49680
      13     H     0.40916  0.40916  0.00000  0.18169
      14     H     0.41166  0.41166  0.00000  0.17668
      15     H     0.41142  0.41142  0.00000  0.17715
      16     H     0.41632  0.41632  0.00000  0.16736
      17     H     0.41227  0.41227  0.00000  0.17546

   Total alpha = 28.00000, Total beta = 28.00000, Total charge =  0.00000
