  ==> Input File <==

--------------------------------------------------------------------------
set {
	reference rhf
	basis cc-pvtz
}

set_num_threads( 4 )
memory 2 gb

molecule MOL {
0 1

H	 -3.436473	 1.252944	 -1.023892
O	 -3.458596	 0.315260	 -0.960865
C	 -3.176635	 -0.080824	 0.355601
C	 -1.763371	 0.265266	 0.799691
H	 -3.321825	 -1.153438	 0.379502
H	 -3.895468	 0.357385	 1.043382
C	 -0.673390	 -0.426948	 -0.013392
H	 -1.631049	 1.344913	 0.747560
H	 -1.664587	 -0.001624	 1.849167
C	 0.737842	 -0.043159	 0.423759
H	 -0.806103	 -0.190518	 -1.063345
H	 -0.797221	 -1.503753	 0.074146
C	 1.824000	 -0.743224	 -0.390623
H	 0.850588	 1.033777	 0.343840
H	 0.868587	 -0.286314	 1.476203
C	 3.255957	 -0.453067	 0.062319
H	 1.718250	 -0.470599	 -1.438164
H	 1.658105	 -1.815850	 -0.339904
C	 3.492656	 -0.599406	 1.563553
H	 3.509748	 0.560778	 -0.231763
H	 3.940751	 -1.103835	 -0.475248
H	 2.817180	 0.035884	 2.127658
H	 4.505995	 -0.314229	 1.822511
H	 3.346208	 -1.618650	 1.900154

	symmetry c1
}
set optking {
	frozen_dihedral = ("
		20 16 13 17
	")
}

ee = optimize('scf')
oeprop('DIPOLE', 'QUADRUPOLE', 'MULLIKEN_CHARGES')
f=open( 'psi4out.xyz', 'w' )
f.write( "24  " )
f.write( str(ee) + "\n" )
f.write( MOL.save_string_xyz() )
f.close()
--------------------------------------------------------------------------

    Molecular point group: c1
  Charge       = 0
  Multiplicity = 1
  Basis Set: CC-PVTZ
  Basis Set:
  @DF-RHF Final Energy:  -349.37812743646253
    Total Energy =                       -349.3781274364627620
    Molecular point group: c1
  Basis Set: CC-PVTZ
  Basis Set:
  Basis Set: CC-PVTZ
  Basis Set:
  @DF-RHF Final Energy:  -349.37917935581834
    Total Energy =                       -349.3791793558181666
  Basis Set: CC-PVTZ
  Basis Set:
  Basis Set: CC-PVTZ
  Basis Set:
  @DF-RHF Final Energy:  -349.37969085364608
    Total Energy =                       -349.3796908536465367
  Basis Set: CC-PVTZ
  Basis Set:
  Basis Set: CC-PVTZ
  Basis Set:
  @DF-RHF Final Energy:  -349.37972609612189
    Total Energy =                       -349.3797260961219990
  Basis Set: CC-PVTZ
  Basis Set:
  Basis Set: CC-PVTZ
  Basis Set:
  @DF-RHF Final Energy:  -349.37972831689308
    Total Energy =                       -349.3797283168927379
  Basis Set: CC-PVTZ
  Basis Set:
  Charge       = 0
  Multiplicity = 1
  Basis Set: CC-PVTZ
  Basis Set:

    Orbital Energies (a.u.)
    -----------------------

    Doubly Occupied:

       1A    -20.546249     2A    -11.265461     3A    -11.215077
       4A    -11.212104     5A    -11.210019     6A    -11.209437
       7A    -11.208803     8A    -11.205485     9A     -1.364092
      10A     -1.089721    11A     -1.049154    12A     -0.986335
      13A     -0.916358    14A     -0.852713    15A     -0.801974
      16A     -0.773592    17A     -0.681712    18A     -0.656301
      19A     -0.626633    20A     -0.619665    21A     -0.597283
      22A     -0.587137    23A     -0.557048    24A     -0.543183
      25A     -0.518875    26A     -0.507759    27A     -0.499930
      28A     -0.471371    29A     -0.468787    30A     -0.460478
      31A     -0.457127    32A     -0.450801    33A     -0.420744

  @DF-RHF Final Energy:  -349.37973067077507

   => Energetics <=

    Nuclear Repulsion Energy =            385.1470274065106878
    One-Electron Energy =               -1236.9907046569176146
    Two-Electron Energy =                 502.4639465796321929
    DFT Exchange-Correlation Energy =       0.0000000000000000
    Empirical Dispersion Energy =           0.0000000000000000
    PCM Polarization Energy =               0.0000000000000000
    EFP Energy =                            0.0000000000000000
    Total Energy =                       -349.3797306707747339
    Molecular point group: c1
  Basis Set: CC-PVTZ
  Basis Set:

  -Total Gradient:
     Atom            X                  Y                   Z
    ------   -----------------  -----------------  -----------------
       1       -0.000000200451     0.000000466868    -0.000000020059
       2       -0.000001058766     0.000002723885     0.000002745405
       3        0.000005271105    -0.000009056763    -0.000004890477
       4        0.000005878418     0.000000435189     0.000001019918
       5       -0.000001603503    -0.000001935879    -0.000001131861
       6        0.000004672129    -0.000000390392     0.000001136314
       7       -0.000016395437     0.000023083536    -0.000010793888
       8        0.000004143655    -0.000002391369    -0.000002747873
       9       -0.000003043834     0.000001806265     0.000002627831
      10       -0.000004176192    -0.000015609026     0.000011684667
      11        0.000000729424    -0.000003369878    -0.000007865858
      12        0.000001668630     0.000004827364     0.000011576677
      13        0.001349258356    -0.003438848431    -0.001484612524
      14       -0.000013723116    -0.000002826512     0.000001785248
      15        0.000004319111     0.000000640946     0.000013024571
      16       -0.001366503629     0.001819308848     0.003321519305
      17       -0.000928660315     0.002633933368     0.000708701200
      18        0.000011496048     0.000011058456    -0.000001232256
      19        0.000009006099     0.000008836629    -0.000003715380
      20        0.000934544743    -0.001029603907    -0.002555605866
      21        0.000013190215    -0.000003342199    -0.000004317596
      22       -0.000002132437    -0.000001680681     0.000002249174
      23       -0.000008447230     0.000000923744     0.000000995062
      24        0.000001766984     0.000001009940    -0.000002131735

  **** Optimization is complete! (in 6 steps) ****
    Final optimized geometry and variables:
    Molecular point group: c1

    Geometry (in Angstrom), charge = 0, multiplicity = 1:

    H           -3.354328552519     1.545106871137    -1.251209426357
    O           -3.400210666542     0.606399506038    -1.231174493866
    C           -3.173210161203     0.146063108716     0.074910077126
    C           -1.768513498985     0.437438707169     0.581185839083
    H           -3.343866747527    -0.922671704221     0.045531359079
    H           -3.905234258605     0.570980503494     0.757101992783
    C           -0.667237600372    -0.244142623316    -0.225592412562
    H           -1.609659062386     1.514804232983     0.582306703625
    H           -1.712217151688     0.121996771252     1.620244870210
    C            0.736716069621     0.086700152743     0.274039117590
    H           -0.760174719603     0.039230100938    -1.268051178932
    H           -0.817130290325    -1.320757061523    -0.188343059488
    C            1.831858398700    -0.618971836929    -0.525432636546
    H            0.891461567115     1.162667124161     0.221329010380
    H            0.811580999672    -0.180474352947     1.323578953642
    C            3.262672181325    -0.213049075898    -0.162140828982
    H            1.672946893852    -0.392423684679    -1.575919848337
    H            1.719644781666    -1.694280508643    -0.413397462816
    C            3.625232080343    -0.341804801164     1.314262277994
    H            3.444745219726     0.802477905475    -0.503663163120
    H            3.941756840281    -0.834229618158    -0.739539203213
    H            3.064690339905     0.348676986232     1.932412808166
    H            4.678256182925    -0.135864247405     1.468294702453
    H            3.429607341594    -1.345713484923     1.678210981441

  Mulliken Charges: (a.u.)
   Center  Symbol    Alpha    Beta     Spin     Total
       1     H     0.39531  0.39531  0.00000  0.20937
       2     O     4.20371  4.20371  0.00000 -0.40743
       3     C     2.97789  2.97789  0.00000  0.04423
       4     C     3.10170  3.10170  0.00000 -0.20339
       5     H     0.45881  0.45881  0.00000  0.08237
       6     H     0.46027  0.46027  0.00000  0.07946
       7     C     3.08804  3.08804  0.00000 -0.17607
       8     H     0.45917  0.45917  0.00000  0.08166
       9     H     0.45343  0.45343  0.00000  0.09314
      10     C     3.09233  3.09233  0.00000 -0.18466
      11     H     0.44576  0.44576  0.00000  0.10849
      12     H     0.45541  0.45541  0.00000  0.08918
      13     C     3.09519  3.09519  0.00000 -0.19039
      14     H     0.45520  0.45520  0.00000  0.08961
      15     H     0.45330  0.45330  0.00000  0.09340
      16     C     3.08987  3.08987  0.00000 -0.17974
      17     H     0.45019  0.45019  0.00000  0.09962
      18     H     0.45252  0.45252  0.00000  0.09496
      19     C     3.15528  3.15528  0.00000 -0.31055
      20     H     0.45401  0.45401  0.00000  0.09199
      21     H     0.44973  0.44973  0.00000  0.10053
      22     H     0.45284  0.45284  0.00000  0.09432
      23     H     0.44578  0.44578  0.00000  0.10845
      24     H     0.45427  0.45427  0.00000  0.09145

   Total alpha = 33.00000, Total beta = 33.00000, Total charge = -0.00000
