  ==> Input File <==

--------------------------------------------------------------------------
set {
	reference rhf
	basis 6-31G*
}

set_num_threads( 4 )
memory 2 gb

molecule MOL {
0 1

O	 2.862325	 1.357334	 0.000267
C	 2.843464	 0.164689	 -0.000222
C	 1.546494	 -0.624492	 -0.000609
C	 4.124123	 -0.644674	 -0.000428
C	 0.291004	 0.242674	 0.000989
H	 1.557904	 -1.283758	 -0.867573
H	 1.558622	 -1.285963	 0.864672
C	 0.136273	 1.047902	 1.292278
H	 -0.578559	 -0.390080	 -0.146021
H	 0.321221	 0.913985	 -0.851406
C	 -1.120116	 1.920276	 1.305696
H	 0.110163	 0.368775	 2.143249
H	 1.012392	 1.679005	 1.434377
C	 -1.282035	 2.728742	 2.594175
H	 -1.996616	 1.290346	 1.164432
H	 -1.094681	 2.600172	 0.455936
C	 -2.539409	 3.597453	 2.600139
H	 -1.308787	 2.050108	 3.444213
H	 -0.407156	 3.359946	 2.735690
H	 -3.434896	 2.991592	 2.494375
H	 -2.626686	 4.157592	 3.526059
H	 -2.526358	 4.311498	 1.781535
H	 4.165367	 -1.288615	 -0.874074
H	 4.976217	 0.020734	 -0.001915
H	 4.166763	 -1.286207	 0.874930

	symmetry c1
}
set optking {
	frozen_dihedral = ("
		9 5 3 6
	")
}

ee = optimize('scf')
oeprop('DIPOLE', 'QUADRUPOLE', 'MULLIKEN_CHARGES')
f=open( 'psi4out.xyz', 'w' )
f.write( "25  " )
f.write( str(ee) + "\n" )
f.write( MOL.save_string_xyz() )
f.close()
--------------------------------------------------------------------------

    Molecular point group: c1
  Charge       = 0
  Multiplicity = 1
  Basis Set: 6-31G*
  Basis Set:
  @DF-RHF Final Energy:  -387.13471399380961
    Total Energy =                       -387.1347139938097826
    Molecular point group: c1
  Basis Set: 6-31G*
  Basis Set:
  Basis Set: 6-31G*
  Basis Set:
  @DF-RHF Final Energy:  -387.13558459948086
    Total Energy =                       -387.1355845994814899
  Basis Set: 6-31G*
  Basis Set:
  Basis Set: 6-31G*
  Basis Set:
  @DF-RHF Final Energy:  -387.13350612819846
    Total Energy =                       -387.1335061281979506
  Basis Set: 6-31G*
  Basis Set:
  Basis Set: 6-31G*
  Basis Set:
  @DF-RHF Final Energy:  -387.13590124479578
    Total Energy =                       -387.1359012447960595
  Basis Set: 6-31G*
  Basis Set:
  @DF-RHF Final Energy:  -387.13600395604487
    Total Energy =                       -387.1360039560444193
  @DF-RHF Final Energy:  -387.13604285827722
    Total Energy =                       -387.1360428582770510
  Basis Set: 6-31G*
  Basis Set:
  @DF-RHF Final Energy:  -387.13606614589924
    Total Energy =                       -387.1360661458995764
  Basis Set: 6-31G*
  Basis Set:
  Basis Set: 6-31G*
  Basis Set:
  @DF-RHF Final Energy:  -387.13607344854296
    Total Energy =                       -387.1360734485426747
  Basis Set: 6-31G*
  Basis Set:
  Basis Set: 6-31G*
  Basis Set:
  @DF-RHF Final Energy:  -387.13607763092978
    Total Energy =                       -387.1360776309298899
  Basis Set: 6-31G*
  Basis Set:
  Charge       = 0
  Multiplicity = 1
  Basis Set: 6-31G*
  Basis Set:

    Orbital Energies (a.u.)
    -----------------------

    Doubly Occupied:

       1A    -20.550732     2A    -11.327247     3A    -11.232373
       4A    -11.228929     5A    -11.217931     6A    -11.211907
       7A    -11.210689     8A    -11.209932     9A    -11.205741
      10A     -1.396312    11A     -1.090820    12A     -1.054724
      13A     -1.013617    14A     -0.967527    15A     -0.888777
      16A     -0.815194    17A     -0.787702    18A     -0.727097
      19A     -0.668137    20A     -0.637289    21A     -0.631730
      22A     -0.623281    23A     -0.592150    24A     -0.584902
      25A     -0.572746    26A     -0.556957    27A     -0.534130
      28A     -0.525823    29A     -0.516136    30A     -0.496164
      31A     -0.481908    32A     -0.475053    33A     -0.460318
      34A     -0.458590    35A     -0.439627    36A     -0.400392

  @DF-RHF Final Energy:  -387.13607826875295

   => Energetics <=

    Nuclear Repulsion Energy =            448.1607325058636206
    One-Electron Energy =               -1413.0084556055010125
    Two-Electron Energy =                 577.7116448308852341
    DFT Exchange-Correlation Energy =       0.0000000000000000
    Empirical Dispersion Energy =           0.0000000000000000
    PCM Polarization Energy =               0.0000000000000000
    EFP Energy =                            0.0000000000000000
    Total Energy =                       -387.1360782687521578
    Molecular point group: c1
  Basis Set: 6-31G*
  Basis Set:

  -Total Gradient:
     Atom            X                  Y                   Z
    ------   -----------------  -----------------  -----------------
       1        0.000041186309    -0.000005940186    -0.000053880169
       2       -0.000003985096     0.000000484176     0.000015869308
       3       -0.000458930709    -0.000695563496     0.000624791019
       4       -0.000008813288    -0.000000017354    -0.000011974057
       5        0.000148865816     0.000257436544    -0.000990839469
       6        0.000352453784     0.000551255353    -0.000382151676
       7        0.000010880708    -0.000008235626     0.000006826486
       8       -0.000028204844    -0.000008549960     0.000027544140
       9       -0.000048405620    -0.000111525319     0.000741701100
      10       -0.000009512500    -0.000001622668     0.000003646111
      11        0.000004657664     0.000002371256    -0.000007656217
      12       -0.000001775154    -0.000002298318     0.000001781498
      13       -0.000004518633    -0.000000969846     0.000000494330
      14       -0.000003053148    -0.000003860129     0.000002302639
      15        0.000003341436     0.000006365245    -0.000013559755
      16        0.000005865625     0.000010138766     0.000006306598
      17       -0.000006506817    -0.000005520497     0.000005750849
      18        0.000002259070     0.000002657221    -0.000000924772
      19        0.000002188493     0.000002583788    -0.000002258940
      20       -0.000003632826     0.000000920880     0.000001873133
      21        0.000000974879     0.000002134348    -0.000001064046
      22        0.000001580992    -0.000003319407    -0.000000748639
      23        0.000001981522     0.000017951807     0.000002906416
      24        0.000003758725     0.000003157192     0.000010919769
      25       -0.000002656389    -0.000010033767     0.000012344347

  **** Optimization is complete! (in 10 steps) ****
    Final optimized geometry and variables:
    Molecular point group: c1

    Geometry (in Angstrom), charge = 0, multiplicity = 1:

    O            2.151719413824     0.213552137117    -1.253714612825
    C            2.090692933095    -0.944415426414    -0.972672995556
    C            0.771013404520    -1.694381378094    -0.899432861570
    C            3.338986147280    -1.754560422192    -0.693215593849
    C           -0.469115279321    -0.802692466540    -0.851509149270
    H            0.741070946756    -2.327487462396    -1.786204920945
    H            0.796041271203    -2.375612875136    -0.051673300239
    C           -0.625446799079    -0.035211558543     0.463719279388
    H           -1.344490459257    -1.431197628424    -0.997792570867
    H           -0.435415682169    -0.104768344592    -1.680730663289
    C           -1.885330545007     0.831491329739     0.497349740565
    H           -0.656633106012    -0.744128980358     1.290750360520
    H            0.245229499174     0.593319547044     0.621924012711
    C           -2.056849670728     1.596865573189     1.810673980336
    H           -2.760889178746     0.205640836491     0.330181930704
    H           -1.854112217037     1.539791165365    -0.328466977524
    C           -3.315454829444     2.463423525945     1.837217455601
    H           -2.088043486694     0.890717127157     2.638001589585
    H           -1.183706052450     2.223783492510     1.977320341683
    H           -4.209838778504     1.860410497767     1.707055190293
    H           -3.408830093957     2.993737764588     2.779992731997
    H           -3.298302296924     3.203301908332     1.041990442647
    H            3.333815589864    -2.684811215160    -1.252918511946
    H            4.216485339577    -1.176770341443    -0.948254360451
    H            3.375867288471    -2.013012878961     0.361699449032

  Mulliken Charges: (a.u.)
   Center  Symbol    Alpha    Beta     Spin     Total
       1     O     4.26343  4.26343  0.00000 -0.52686
       2     C     2.73463  2.73463  0.00000  0.53073
       3     C     3.21176  3.21176  0.00000 -0.42353
       4     C     3.28730  3.28730  0.00000 -0.57460
       5     C     3.15022  3.15022  0.00000 -0.30043
       6     H     0.40471  0.40471  0.00000  0.19059
       7     H     0.41211  0.41211  0.00000  0.17579
       8     C     3.15739  3.15739  0.00000 -0.31477
       9     H     0.42118  0.42118  0.00000  0.15763
      10     H     0.40739  0.40739  0.00000  0.18522
      11     C     3.15137  3.15137  0.00000 -0.30275
      12     H     0.42857  0.42857  0.00000  0.14286
      13     H     0.40957  0.40957  0.00000  0.18086
      14     C     3.15157  3.15157  0.00000 -0.30313
      15     H     0.42599  0.42599  0.00000  0.14802
      16     H     0.42082  0.42082  0.00000  0.15835
      17     C     3.23930  3.23930  0.00000 -0.47859
      18     H     0.42456  0.42456  0.00000  0.15089
      19     H     0.42136  0.42136  0.00000  0.15729
      20     H     0.42263  0.42263  0.00000  0.15475
      21     H     0.41982  0.41982  0.00000  0.16036
      22     H     0.42114  0.42114  0.00000  0.15773
      23     H     0.41016  0.41016  0.00000  0.17968
      24     H     0.39672  0.39672  0.00000  0.20657
      25     H     0.40632  0.40632  0.00000  0.18735

   Total alpha = 36.00000, Total beta = 36.00000, Total charge =  0.00000
