  ==> Input File <==

--------------------------------------------------------------------------
set {
	reference rhf
	basis cc-pvtz
}

set_num_threads( 4 )
memory 2 gb

molecule MOL {
0 1

H	 -2.537000	 0.001000	 -0.000000
C	 -1.550000	 -0.447000	 -0.000000
C	 -0.484000	 0.654000	 -0.000000
H	 -1.459000	 -1.075000	 -0.878000
H	 -1.459000	 -1.075000	 0.878000
C	 0.883000	 0.105000	 0.000000
H	 -0.588000	 1.288000	 -0.873000
H	 -0.588000	 1.288000	 0.873000
N	 1.933000	 -0.328000	 -0.000000

	symmetry c1
}
ee = optimize('scf')
oeprop('DIPOLE', 'QUADRUPOLE', 'MULLIKEN_CHARGES')
f=open( 'psi4out.xyz', 'w' )
f.write( "9  " )
f.write( str(ee) + "\n" )
f.write( MOL.save_string_xyz() )
f.close()
--------------------------------------------------------------------------

    Molecular point group: c1
  Charge       = 0
  Multiplicity = 1
  Basis Set: CC-PVTZ
  Basis Set:
  @DF-RHF Final Energy:  -171.02325367378631
    Total Energy =                       -171.0232536737862006
    Molecular point group: c1
  Basis Set: CC-PVTZ
  Basis Set:
  Basis Set: CC-PVTZ
  Basis Set:
  @DF-RHF Final Energy:  -171.02346073803804
    Total Energy =                       -171.0234607380381249
  Basis Set: CC-PVTZ
  Basis Set:
  Charge       = 0
  Multiplicity = 1
  Basis Set: CC-PVTZ
  Basis Set:

    Orbital Energies (a.u.)
    -----------------------

    Doubly Occupied:

       1A    -15.556513     2A    -11.282559     3A    -11.261120
       4A    -11.244543     5A     -1.229104     6A     -1.084330
       7A     -0.913396     8A     -0.700322     9A     -0.661264
      10A     -0.589808    11A     -0.563053    12A     -0.545402
      13A     -0.540096    14A     -0.463948    15A     -0.463868

  @DF-RHF Final Energy:  -171.02346178565551

   => Energetics <=

    Nuclear Repulsion Energy =            103.7350154835047533
    One-Electron Energy =                -435.3183021115543170
    Two-Electron Energy =                 160.5598248423941072
    DFT Exchange-Correlation Energy =       0.0000000000000000
    Empirical Dispersion Energy =           0.0000000000000000
    PCM Polarization Energy =               0.0000000000000000
    EFP Energy =                            0.0000000000000000
    Total Energy =                       -171.0234617856554564
    Molecular point group: c1
  Basis Set: CC-PVTZ
  Basis Set:

  -Total Gradient:
     Atom            X                  Y                   Z
    ------   -----------------  -----------------  -----------------
       1       -0.000023362750    -0.000028717279     0.000000001983
       2       -0.000083547797    -0.000029784919     0.000000011465
       3        0.000031037368     0.000060888061     0.000000703040
       4        0.000005764400     0.000018524665     0.000015733133
       5        0.000005740409     0.000018515507    -0.000015728299
       6        0.000183623340    -0.000048012915    -0.000001389228
       7       -0.000019313525    -0.000006210261     0.000013453734
       8       -0.000019600909    -0.000006130276    -0.000013468622
       9       -0.000080340539     0.000020927417     0.000000682793

  **** Optimization is complete! (in 3 steps) ****
    Final optimized geometry and variables:
    Molecular point group: c1

    Geometry (in Angstrom), charge = 0, multiplicity = 1:

    H           -2.650205603516     0.008600824387     0.000001943989
    C           -1.665181211862    -0.439392137723    -0.000000612073
    C           -0.600948572860     0.658697250325    -0.000001945941
    H           -1.573490317339    -1.066311573087    -0.876727970292
    H           -1.573486485185    -1.066313153677     0.876725213923
    C            0.763408294055     0.112228789284    -0.000005523620
    H           -0.701741776838     1.291754264341    -0.871788789118
    H           -0.701737881793     1.291752615040     0.871786539215
    N            1.806008120476    -0.317179304141     0.000007145993

  Mulliken Charges: (a.u.)
   Center  Symbol    Alpha    Beta     Spin     Total
       1     H     0.44613  0.44613  0.00000  0.10775
       2     C     3.13543  3.13543  0.00000 -0.27087
       3     C     3.07958  3.07958  0.00000 -0.15917
       4     H     0.44486  0.44486  0.00000  0.11028
       5     H     0.44486  0.44486  0.00000  0.11028
       6     C     3.04250  3.04250  0.00000 -0.08499
       7     H     0.43207  0.43207  0.00000  0.13586
       8     H     0.43207  0.43207  0.00000  0.13586
       9     N     3.54250  3.54250  0.00000 -0.08500

   Total alpha = 15.00000, Total beta = 15.00000, Total charge = -0.00000
