  ==> Input File <==

--------------------------------------------------------------------------
set {
	reference rhf
	basis 6-31G*
}

set_num_threads( 1 )
memory 2 gb

molecule MOL {
0 1

O	 -0.460091	 -0.557105	 1.951918
C	 0.577085	 -0.818978	 1.433507
C	 1.245376	 -0.013843	 0.345420
O	 1.300572	 -1.884271	 1.754984
C	 0.455112	 1.231400	 -0.050772
H	 2.241827	 0.231668	 0.697554
H	 1.385927	 -0.675195	 -0.505789
C	 -0.998893	 1.219485	 0.433193
H	 0.482531	 1.345121	 -1.130325
H	 0.957290	 2.103070	 0.354729
C	 -1.883438	 0.145884	 -0.207175
H	 -1.431207	 2.195402	 0.224832
H	 -1.019646	 1.105716	 1.516076
C	 -3.347647	 0.245583	 0.225435
H	 -1.822183	 0.231698	 -1.291012
H	 -1.510341	 -0.844814	 0.042401
C	 -4.239992	 -0.825570	 -0.404234
H	 -3.732888	 1.230466	 -0.033079
H	 -3.408585	 0.170602	 1.310038
C	 -5.701275	 -0.716658	 0.029921
H	 -4.179496	 -0.752714	 -1.488058
H	 -3.859041	 -1.810759	 -0.143352
H	 -6.308102	 -1.488908	 -0.432678
H	 -6.122175	 0.245478	 -0.248167
H	 -5.799072	 -0.820114	 1.106957
C	 0.784347	 -2.730194	 2.766325
H	 0.672997	 -2.188594	 3.694643
H	 1.504031	 -3.525672	 2.881548
H	 -0.174561	 -3.132429	 2.472657

	symmetry c1
}
set optking {
	frozen_dihedral = ("
		21 17 14 11,
		17 14 11 15,
		15 11 8 5,
		11 8 5 9,
		2 4 26 27,
		1 2 4 26,
		6 3 2 1
	")
}

ee = energy('scf')
oeprop('DIPOLE', 'QUADRUPOLE', 'MULLIKEN_CHARGES')
f=open( 'psi4out.xyz', 'w' )
f.write( "29  " )
f.write( str(ee) + "\n" )
f.write( MOL.save_string_xyz() )
f.close()
--------------------------------------------------------------------------

    Molecular point group: c1

    Geometry (in Angstrom), charge = 0, multiplicity = 1:

       Center              X                  Y                   Z               Mass
    ------------   -----------------  -----------------  -----------------  -----------------
           O          0.654446251601    -0.097774816312     1.172495258283    15.994914619560
           C          1.691622251601    -0.359647816312     0.654084258283    12.000000000000
           C          2.359913251601     0.445487183688    -0.434002741717    12.000000000000
           O          2.415109251601    -1.424940816312     0.975561258283    15.994914619560
           C          1.569649251601     1.690730183688    -0.830194741717    12.000000000000
           H          3.356364251601     0.690998183688    -0.081868741717     1.007825032070
           H          2.500464251601    -0.215864816312    -1.285211741717     1.007825032070
           C          0.115644251601     1.678815183688    -0.346229741717    12.000000000000
           H          1.597068251601     1.804451183688    -1.909747741717     1.007825032070
           H          2.071827251601     2.562400183688    -0.424693741717     1.007825032070
           C         -0.768900748399     0.605214183688    -0.986597741717    12.000000000000
           H         -0.316669748399     2.654732183688    -0.554590741717     1.007825032070
           H          0.094891251601     1.565046183688     0.736653258283     1.007825032070
           C         -2.233109748399     0.704913183688    -0.553987741717    12.000000000000
           H         -0.707645748399     0.691028183688    -2.070434741717     1.007825032070
           H         -0.395803748399    -0.385483816312    -0.737021741717     1.007825032070
           C         -3.125454748399    -0.366239816312    -1.183656741717    12.000000000000
           H         -2.618350748399     1.689796183688    -0.812501741717     1.007825032070
           H         -2.294047748399     0.629932183688     0.530615258283     1.007825032070
           C         -4.586737748399    -0.257327816312    -0.749501741717    12.000000000000
           H         -3.064958748399    -0.293383816312    -2.267480741717     1.007825032070
           H         -2.744503748399    -1.351428816312    -0.922774741717     1.007825032070
           H         -5.193564748399    -1.029577816312    -1.212100741717     1.007825032070
           H         -5.007637748399     0.704808183688    -1.027589741717     1.007825032070
           H         -4.684534748399    -0.360783816312     0.327534258283     1.007825032070
           C          1.898884251601    -2.270863816312     1.986902258283    12.000000000000
           H          1.787534251601    -1.729263816312     2.915220258283     1.007825032070
           H          2.618568251601    -3.066341816312     2.102125258283     1.007825032070
           H          0.939976251601    -2.673098816312     1.693234258283     1.007825032070

  Charge       = 0
  Multiplicity = 1
  Basis Set: 6-31G*
  Basis Set:

    Orbital Energies (a.u.)
    -----------------------

    Doubly Occupied:

       1A    -20.607579     2A    -20.544415     3A    -11.377824
       4A    -11.283891     5A    -11.236494     6A    -11.216955
       7A    -11.204989     8A    -11.200584     9A    -11.199273
      10A    -11.195721    11A    -11.188541    12A     -1.475264
      13A     -1.372050    14A     -1.088004    15A     -1.059624
      16A     -1.012829    17A     -0.973632    18A     -0.920214
      19A     -0.855618    20A     -0.792580    21A     -0.778121
      22A     -0.773820    23A     -0.699655    24A     -0.686560
      25A     -0.673968    26A     -0.641740    27A     -0.628029
      28A     -0.614441    29A     -0.577644    30A     -0.569582
      31A     -0.557271    32A     -0.540154    33A     -0.538389
      34A     -0.524419    35A     -0.515205    36A     -0.504244
      37A     -0.495182    38A     -0.478097    39A     -0.465131
      40A     -0.461087    41A     -0.447921    42A     -0.439861
      43A     -0.423473    44A     -0.403060

  @DF-RHF Final Energy:  -501.00716320460174

   => Energetics <=

    Nuclear Repulsion Energy =            656.0034588375467592
    One-Electron Energy =               -1983.5349935164654198
    Two-Electron Energy =                 826.5243714743157852
    DFT Exchange-Correlation Energy =       0.0000000000000000
    Empirical Dispersion Energy =           0.0000000000000000
    PCM Polarization Energy =               0.0000000000000000
    EFP Energy =                            0.0000000000000000
    Total Energy =                       -501.0071632046028753

  Mulliken Charges: (a.u.)
   Center  Symbol    Alpha    Beta     Spin     Total
       1     O     4.28867  4.28867  0.00000 -0.57733
       2     C     2.60440  2.60440  0.00000  0.79120
       3     C     3.21087  3.21087  0.00000 -0.42173
       4     O     4.30568  4.30568  0.00000 -0.61137
       5     C     3.15764  3.15764  0.00000 -0.31528
       6     H     0.39581  0.39581  0.00000  0.20837
       7     H     0.39662  0.39662  0.00000  0.20676
       8     C     3.16809  3.16809  0.00000 -0.33617
       9     H     0.41769  0.41769  0.00000  0.16463
      10     H     0.41645  0.41645  0.00000  0.16709
      11     C     3.14502  3.14502  0.00000 -0.29005
      12     H     0.43019  0.43019  0.00000  0.13961
      13     H     0.38571  0.38571  0.00000  0.22858
      14     C     3.14974  3.14974  0.00000 -0.29948
      15     H     0.43236  0.43236  0.00000  0.13528
      16     H     0.42410  0.42410  0.00000  0.15180
      17     C     3.15070  3.15070  0.00000 -0.30139
      18     H     0.42665  0.42665  0.00000  0.14670
      19     H     0.41937  0.41937  0.00000  0.16125
      20     C     3.23882  3.23882  0.00000 -0.47764
      21     H     0.42542  0.42542  0.00000  0.14915
      22     H     0.42476  0.42476  0.00000  0.15047
      23     H     0.42168  0.42168  0.00000  0.15664
      24     H     0.42275  0.42275  0.00000  0.15449
      25     H     0.42210  0.42210  0.00000  0.15581
      26     C     3.09286  3.09286  0.00000 -0.18572
      27     H     0.40898  0.40898  0.00000  0.18204
      28     H     0.40754  0.40754  0.00000  0.18492
      29     H     0.40931  0.40931  0.00000  0.18137

   Total alpha = 44.00000, Total beta = 44.00000, Total charge = -0.00000
