  ==> Input File <==

--------------------------------------------------------------------------
set {
	reference rhf
	basis cc-pvtz
}

set_num_threads( 4 )
memory 2 gb

molecule MOL {
0 1

H	 -1.745089	 1.118974	 -0.330982
N	 -1.851927	 0.161443	 -0.071573
C	 -0.561396	 -0.500007	 0.035200
H	 -2.417862	 -0.271984	 -0.770996
C	 0.575129	 0.507849	 -0.048832
H	 -0.478089	 -1.200753	 -0.788956
H	 -0.456191	 -1.081816	 0.952176
C	 1.951750	 -0.141983	 0.035101
H	 0.478254	 1.061643	 -0.975981
H	 0.467676	 1.231891	 0.755499
H	 2.101550	 -0.848142	 -0.774949
H	 2.738260	 0.600794	 -0.026526
H	 2.078939	 -0.679792	 0.968824

	symmetry c1
}
set optking {
	frozen_dihedral = ("
		1 2 3 6
	")
}

ee = optimize('scf')
oeprop('DIPOLE', 'QUADRUPOLE', 'MULLIKEN_CHARGES')
f=open( 'psi4out.xyz', 'w' )
f.write( "13  " )
f.write( str(ee) + "\n" )
f.write( MOL.save_string_xyz() )
f.close()
--------------------------------------------------------------------------

    Molecular point group: c1
  Charge       = 0
  Multiplicity = 1
  Basis Set: CC-PVTZ
  Basis Set:
  @DF-RHF Final Energy:  -173.34778519821322
    Total Energy =                       -173.3477851982131313
    Molecular point group: c1
  Basis Set: CC-PVTZ
  Basis Set:
  Basis Set: CC-PVTZ
  Basis Set:
  @DF-RHF Final Energy:  -173.34896159345948
    Total Energy =                       -173.3489615934595349
  Basis Set: CC-PVTZ
  Basis Set:
  Basis Set: CC-PVTZ
  Basis Set:
  @DF-RHF Final Energy:  -173.34912995419185
    Total Energy =                       -173.3491299541920512
  Basis Set: CC-PVTZ
  Basis Set:
  Basis Set: CC-PVTZ
  Basis Set:
  @DF-RHF Final Energy:  -173.34913487681516
    Total Energy =                       -173.3491348768152704
  Basis Set: CC-PVTZ
  Basis Set:
  Charge       = 0
  Multiplicity = 1
  Basis Set: CC-PVTZ
  Basis Set:

    Orbital Energies (a.u.)
    -----------------------

    Doubly Occupied:

       1A    -15.522909     2A    -11.237902     3A    -11.216366
       4A    -11.209918     5A     -1.175277     6A     -1.038790
       7A     -0.900420     8A     -0.806972     9A     -0.658525
      10A     -0.633907    11A     -0.605860    12A     -0.554062
      13A     -0.547721    14A     -0.497499    15A     -0.481055
      16A     -0.471186    17A     -0.377474

  @DF-RHF Final Energy:  -173.34913563750655

   => Energetics <=

    Nuclear Repulsion Energy =            132.0133057132812269
    One-Electron Energy =                -494.8531988993438517
    Two-Electron Energy =                 189.4907575485559335
    DFT Exchange-Correlation Energy =       0.0000000000000000
    Empirical Dispersion Energy =           0.0000000000000000
    PCM Polarization Energy =               0.0000000000000000
    EFP Energy =                            0.0000000000000000
    Total Energy =                       -173.3491356375066914
    Molecular point group: c1
  Basis Set: CC-PVTZ
  Basis Set:

  -Total Gradient:
     Atom            X                  Y                   Z
    ------   -----------------  -----------------  -----------------
       1        0.000207227121     0.000442459689     0.001750640382
       2       -0.000468419474    -0.000853639625    -0.001921743521
       3        0.000933485625     0.001655764596    -0.000795169861
       4        0.000018481227    -0.000005005571    -0.000008542328
       5       -0.000123595759    -0.000046629778    -0.000008890815
       6       -0.000636173169    -0.001191616293     0.000950481402
       7        0.000012435537     0.000005489901     0.000014700589
       8        0.000043214932     0.000007909963     0.000038040024
       9       -0.000012488345    -0.000010451786     0.000006643683
      10        0.000012537606    -0.000008149733    -0.000021337200
      11       -0.000017093466     0.000017089883    -0.000001876314
      12        0.000028693036    -0.000009515682     0.000005725256
      13        0.000001695131    -0.000003705565    -0.000008671297

  **** Optimization is complete! (in 5 steps) ****
    Final optimized geometry and variables:
    Molecular point group: c1

    Geometry (in Angstrom), charge = 0, multiplicity = 1:

    H           -1.802114249706     1.108726876567    -0.266384208153
    N           -1.870522887168     0.148528049746    -0.010172152261
    C           -0.565419288070    -0.502190347332     0.015731107650
    H           -2.505910293450    -0.296521649299    -0.633501529772
    C            0.578702473758     0.499193593634    -0.040360400591
    H           -0.464533084497    -1.213256022729    -0.800944225069
    H           -0.477338719670    -1.080931927941     0.931021106957
    C            1.949216051664    -0.155427453959     0.088797273815
    H            0.523728730148     1.050127566612    -0.975771334577
    H            0.445654878337     1.225064000286     0.757174957531
    H            2.119885055185    -0.868967490265    -0.710375462031
    H            2.740483117849     0.583576277474     0.045610451908
    H            2.042702534023    -0.685188478626     1.030468534449

  Mulliken Charges: (a.u.)
   Center  Symbol    Alpha    Beta     Spin     Total
       1     H     0.42885  0.42885  0.00000  0.14229
       2     N     3.69623  3.69623  0.00000 -0.39245
       3     C     3.01182  3.01182  0.00000 -0.02365
       4     H     0.42750  0.42750  0.00000  0.14500
       5     C     3.08592  3.08592  0.00000 -0.17184
       6     H     0.46642  0.46642  0.00000  0.06716
       7     H     0.46467  0.46467  0.00000  0.07065
       8     C     3.15206  3.15206  0.00000 -0.30412
       9     H     0.45775  0.45775  0.00000  0.08451
      10     H     0.45146  0.45146  0.00000  0.09708
      11     H     0.45574  0.45574  0.00000  0.08853
      12     H     0.44791  0.44791  0.00000  0.10419
      13     H     0.45368  0.45368  0.00000  0.09264

   Total alpha = 17.00000, Total beta = 17.00000, Total charge =  0.00000
