  ==> Input File <==

--------------------------------------------------------------------------
set {
	reference rhf
	basis 6-31G*
}

set_num_threads( 1 )
memory 2 gb

molecule MOL {
0 1

O	 1.205420	 0.534792	 -0.992196
C	 1.705091	 0.115954	 0.001797
C	 1.285642	 0.463147	 1.409415
O	 2.721346	 -0.737485	 -0.000216
C	 0.116754	 1.441771	 1.469748
H	 1.046189	 -0.467946	 1.915817
H	 2.158764	 0.860710	 1.919630
C	 -0.287616	 1.775045	 2.906576
H	 -0.729780	 1.020977	 0.936362
H	 0.384247	 2.351389	 0.941212
C	 -1.459517	 2.754964	 2.985728
H	 -0.551230	 0.858469	 3.432307
H	 0.566114	 2.194384	 3.436842
C	 -1.862302	 3.088522	 4.421609
H	 -2.313998	 2.336396	 2.458658
H	 -1.197386	 3.671410	 2.461752
H	 -2.163413	 2.195585	 4.962175
H	 -2.694695	 3.784976	 4.444524
H	 -1.037706	 3.540824	 4.965460
C	 4.024888	 -0.184556	 -0.001949
H	 4.179030	 0.422472	 -0.882452
H	 4.701782	 -1.024608	 -0.003642
H	 4.181981	 0.421185	 0.878906

	symmetry c1
}
set optking {
	frozen_dihedral = ("
		15 11 8 12,
		9 5 8 12,
		1 2 3 6,
		9 5 3 6
	")
}

ee = energy('scf')
oeprop('DIPOLE', 'QUADRUPOLE', 'MULLIKEN_CHARGES')
f=open( 'psi4out.xyz', 'w' )
f.write( "23  " )
f.write( str(ee) + "\n" )
f.write( MOL.save_string_xyz() )
f.close()
--------------------------------------------------------------------------

    Molecular point group: c1

    Geometry (in Angstrom), charge = 0, multiplicity = 1:

       Center              X                  Y                   Z               Mass
    ------------   -----------------  -----------------  -----------------  -----------------
           O          0.347117963220    -0.484088962343    -2.333927673276    15.994914619560
           C          0.846788963220    -0.902926962343    -1.339934673276    12.000000000000
           C          0.427339963220    -0.555733962343     0.067683326724    12.000000000000
           O          1.863043963220    -1.756365962343    -1.341947673276    15.994914619560
           C         -0.741548036780     0.422890037657     0.128016326724    12.000000000000
           H          0.187886963220    -1.486826962343     0.574085326724     1.007825032070
           H          1.300461963220    -0.158170962343     0.577898326724     1.007825032070
           C         -1.145918036780     0.756164037657     1.564844326724    12.000000000000
           H         -1.588082036780     0.002096037657    -0.405369673276     1.007825032070
           H         -0.474055036780     1.332508037657    -0.400519673276     1.007825032070
           C         -2.317819036780     1.736083037657     1.643996326724    12.000000000000
           H         -1.409532036780    -0.160411962343     2.090575326724     1.007825032070
           H         -0.292188036780     1.175503037657     2.095110326724     1.007825032070
           C         -2.720604036780     2.069641037657     3.079877326724    12.000000000000
           H         -3.172300036780     1.317515037657     1.116926326724     1.007825032070
           H         -2.055688036780     2.652529037657     1.120020326724     1.007825032070
           H         -3.021715036780     1.176704037657     3.620443326724     1.007825032070
           H         -3.552997036780     2.766095037657     3.102792326724     1.007825032070
           H         -1.896008036780     2.521943037657     3.623728326724     1.007825032070
           C          3.166585963220    -1.203436962343    -1.343680673276    12.000000000000
           H          3.320727963220    -0.596408962343    -2.224183673276     1.007825032070
           H          3.843479963220    -2.043488962343    -1.345373673276     1.007825032070
           H          3.323678963220    -0.597695962343    -0.462825673276     1.007825032070

  Charge       = 0
  Multiplicity = 1
  Basis Set: 6-31G*
  Basis Set:

    Orbital Energies (a.u.)
    -----------------------

    Doubly Occupied:

       1A    -20.587198     2A    -20.554950     3A    -11.373631
       4A    -11.295461     5A    -11.237156     6A    -11.220206
       7A    -11.219124     8A    -11.217488     9A    -11.210638
      10A     -1.464000    11A     -1.367305    12A     -1.093775
      13A     -1.041396    14A     -0.986627    15A     -0.943646
      16A     -0.849902    17A     -0.796635    18A     -0.768478
      19A     -0.695366    20A     -0.682034    21A     -0.676677
      22A     -0.650032    23A     -0.618598    24A     -0.606280
      25A     -0.578917    26A     -0.568041    27A     -0.556860
      28A     -0.538220    29A     -0.509557    30A     -0.492772
      31A     -0.486708    32A     -0.479986    33A     -0.469979
      34A     -0.466872    35A     -0.450588    36A     -0.429944

  @DF-RHF Final Energy:  -422.95466550660268

   => Energetics <=

    Nuclear Repulsion Energy =            454.1489005509714048
    One-Electron Energy =               -1475.8372877043821063
    Two-Electron Energy =                 598.7337216468104089
    DFT Exchange-Correlation Energy =       0.0000000000000000
    Empirical Dispersion Energy =           0.0000000000000000
    PCM Polarization Energy =               0.0000000000000000
    EFP Energy =                            0.0000000000000000
    Total Energy =                       -422.9546655066003495

  Mulliken Charges: (a.u.)
   Center  Symbol    Alpha    Beta     Spin     Total
       1     O     4.25879  4.25879  0.00000 -0.51757
       2     C     2.61446  2.61446  0.00000  0.77107
       3     C     3.21281  3.21281  0.00000 -0.42563
       4     O     4.31036  4.31036  0.00000 -0.62073
       5     C     3.15309  3.15309  0.00000 -0.30618
       6     H     0.39851  0.39851  0.00000  0.20297
       7     H     0.40831  0.40831  0.00000  0.18339
       8     C     3.15298  3.15298  0.00000 -0.30596
       9     H     0.41028  0.41028  0.00000  0.17944
      10     H     0.41307  0.41307  0.00000  0.17385
      11     C     3.15156  3.15156  0.00000 -0.30312
      12     H     0.42375  0.42375  0.00000  0.15249
      13     H     0.42536  0.42536  0.00000  0.14929
      14     C     3.23958  3.23958  0.00000 -0.47915
      15     H     0.42085  0.42085  0.00000  0.15830
      16     H     0.42157  0.42157  0.00000  0.15686
      17     H     0.42166  0.42166  0.00000  0.15668
      18     H     0.41828  0.41828  0.00000  0.16345
      19     H     0.42219  0.42219  0.00000  0.15562
      20     C     3.09333  3.09333  0.00000 -0.18667
      21     H     0.40728  0.40728  0.00000  0.18545
      22     H     0.40090  0.40090  0.00000  0.19820
      23     H     0.42103  0.42103  0.00000  0.15793

   Total alpha = 36.00000, Total beta = 36.00000, Total charge =  0.00000
