  ==> Input File <==

--------------------------------------------------------------------------
set {
	reference rhf
	basis 6-31G*
}

set_num_threads( 1 )
memory 2 gb

molecule MOL {
0 1

O	 -2.099195	 -0.943702	 1.498153
C	 -1.740069	 0.060429	 0.973728
C	 -2.471735	 1.374041	 1.032343
O	 -0.632575	 0.154573	 0.251549
H	 -2.728808	 1.695132	 0.029467
H	 -3.366632	 1.264395	 1.626458
H	 -1.829117	 2.132039	 1.465052
C	 0.160891	 -1.019931	 0.106212
C	 1.589627	 -0.672828	 0.480843
H	 0.089836	 -1.367806	 -0.916050
H	 -0.238459	 -1.792301	 0.749618
C	 2.246377	 0.346236	 -0.452210
H	 2.163194	 -1.597435	 0.473358
H	 1.604769	 -0.303424	 1.502885
C	 3.691736	 0.652107	 -0.061850
H	 2.219579	 -0.032311	 -1.472055
H	 1.666466	 1.263317	 -0.447249
H	 4.134505	 1.377213	 -0.737283
H	 4.305508	 -0.243868	 -0.089969
H	 3.748266	 1.059562	 0.943567

	symmetry c1
}
set optking {
	frozen_dihedral = ("
		16 12 9 8,
		12 9 8 10,
		1 2 4 8
	")
}

ee = energy('scf')
oeprop('DIPOLE', 'QUADRUPOLE', 'MULLIKEN_CHARGES')
f=open( 'psi4out.xyz', 'w' )
f.write( "20  " )
f.write( str(ee) + "\n" )
f.write( MOL.save_string_xyz() )
f.close()
--------------------------------------------------------------------------

    Molecular point group: c1

    Geometry (in Angstrom), charge = 0, multiplicity = 1:

       Center              X                  Y                   Z               Mass
    ------------   -----------------  -----------------  -----------------  -----------------
           O         -2.184380897812    -0.941463458004     1.014989679793    15.994914619560
           C         -1.825254897812     0.062667541996     0.490564679793    12.000000000000
           C         -2.556920897812     1.376279541996     0.549179679793    12.000000000000
           O         -0.717760897812     0.156811541996    -0.231614320207    15.994914619560
           H         -2.813993897812     1.697370541996    -0.453696320207     1.007825032070
           H         -3.451817897812     1.266633541996     1.143294679793     1.007825032070
           H         -1.914302897812     2.134277541996     0.981888679793     1.007825032070
           C          0.075705102188    -1.017692458004    -0.376951320207    12.000000000000
           C          1.504441102188    -0.670589458004    -0.002320320207    12.000000000000
           H          0.004650102188    -1.365567458004    -1.399213320207     1.007825032070
           H         -0.323644897812    -1.790062458004     0.266454679793     1.007825032070
           C          2.161191102188     0.348474541996    -0.935373320207    12.000000000000
           H          2.078008102188    -1.595196458004    -0.009805320207     1.007825032070
           H          1.519583102188    -0.301185458004     1.019721679793     1.007825032070
           C          3.606550102188     0.654345541996    -0.545013320207    12.000000000000
           H          2.134393102188    -0.030072458004    -1.955218320207     1.007825032070
           H          1.581280102188     1.265555541996    -0.930412320207     1.007825032070
           H          4.049319102188     1.379451541996    -1.220446320207     1.007825032070
           H          4.220322102188    -0.241629458004    -0.573132320207     1.007825032070
           H          3.663080102188     1.061800541996     0.460403679793     1.007825032070

  Charge       = 0
  Multiplicity = 1
  Basis Set: 6-31G*
  Basis Set:

    Orbital Energies (a.u.)
    -----------------------

    Doubly Occupied:

       1A    -20.601900     2A    -20.543864     3A    -11.376297
       4A    -11.278106     5A    -11.234274     6A    -11.223216
       7A    -11.219184     8A    -11.212392     9A     -1.468870
      10A     -1.362920    11A     -1.084411    12A     -1.028589
      13A     -0.980181    14A     -0.881060    15A     -0.814941
      16A     -0.766831    17A     -0.697423    18A     -0.685363
      19A     -0.661536    20A     -0.629959    21A     -0.597954
      22A     -0.592088    23A     -0.569654    24A     -0.561846
      25A     -0.541227    26A     -0.525885    27A     -0.517289
      28A     -0.487955    29A     -0.474262    30A     -0.464314
      31A     -0.445926    32A     -0.438473

  @DF-RHF Final Energy:  -383.94288497469074

   => Energetics <=

    Nuclear Repulsion Energy =            386.4339285261372652
    One-Electron Energy =               -1288.8174637761139820
    Two-Electron Energy =                 518.4406502752865435
    DFT Exchange-Correlation Energy =       0.0000000000000000
    Empirical Dispersion Energy =           0.0000000000000000
    PCM Polarization Energy =               0.0000000000000000
    EFP Energy =                            0.0000000000000000
    Total Energy =                       -383.9428849746901733

  Mulliken Charges: (a.u.)
   Center  Symbol    Alpha    Beta     Spin     Total
       1     O     4.28391  4.28391  0.00000 -0.56783
       2     C     2.61901  2.61901  0.00000  0.76198
       3     C     3.28285  3.28285  0.00000 -0.56570
       4     O     4.30716  4.30716  0.00000 -0.61431
       5     H     0.39986  0.39986  0.00000  0.20028
       6     H     0.39666  0.39666  0.00000  0.20668
       7     H     0.40073  0.40073  0.00000  0.19854
       8     C     3.01856  3.01856  0.00000 -0.03711
       9     C     3.16089  3.16089  0.00000 -0.32178
      10     H     0.41516  0.41516  0.00000  0.16969
      11     H     0.38807  0.38807  0.00000  0.22386
      12     C     3.15479  3.15479  0.00000 -0.30958
      13     H     0.42009  0.42009  0.00000  0.15981
      14     H     0.41605  0.41605  0.00000  0.16791
      15     C     3.24015  3.24015  0.00000 -0.48030
      16     H     0.42343  0.42343  0.00000  0.15313
      17     H     0.41202  0.41202  0.00000  0.17595
      18     H     0.41796  0.41796  0.00000  0.16407
      19     H     0.42173  0.42173  0.00000  0.15654
      20     H     0.42091  0.42091  0.00000  0.15818

   Total alpha = 32.00000, Total beta = 32.00000, Total charge =  0.00000
