                              Psi4 1.0.54 Driver

  ==> Input File <==

--------------------------------------------------------------------------
set {
	reference rhf
	basis cc-pvtz
}

set_num_threads( 4 )
memory 2 gb

molecule MOL {
0 1

H	 -3.034039	 -0.667848	 0.004703
O	 -2.240597	 -1.171748	 0.000934
C	 -1.159675	 -0.364500	 0.000370
C	 -0.220452	 -0.385822	 -1.010482
C	 -1.016844	 0.505814	 1.070046
H	 -0.328166	 -1.061083	 -1.839626
C	 0.863545	 0.472078	 -0.938482
H	 -1.763450	 0.495767	 1.840379
C	 0.063475	 1.362276	 1.139043
H	 1.597949	 0.456291	 -1.721536
C	 1.011551	 1.338430	 0.120922
C	 0.206416	 2.325466	 2.290337
H	 1.859604	 1.995334	 0.162668
H	 1.228108	 2.354544	 2.648276
H	 -0.433993	 2.049431	 3.117033
H	 -0.061362	 3.330659	 1.982885

	symmetry c1
}
set optking {
	frozen_dihedral = ("
		5 3 2 1
	")
}

ee,wfn = optimize('scf', return_wfn=True)
oeprop( wfn, 'DIPOLE', 'QUADRUPOLE', 'MULLIKEN_CHARGES')
f=open( 'psi4out.xyz', 'w' )
f.write( "16  " )
f.write( str(ee) + "\n" )
f.write( MOL.save_string_xyz() )
f.close()
--------------------------------------------------------------------------

    Molecular point group: c1
  Charge       = 0
  Multiplicity = 1
  Basis Set: CC-PVTZ
  Basis Set:
  @DF-RHF Final Energy:  -344.71590724501635
    Total Energy =                       -344.7159072450162967
    Molecular point group: c1
  Basis Set: CC-PVTZ
  Basis Set:
  Basis Set: CC-PVTZ
  Basis Set:
  @DF-RHF Final Energy:  -344.71721265620084
    Total Energy =                       -344.7172126562013545
  Basis Set: CC-PVTZ
  Basis Set:
  Basis Set: CC-PVTZ
  Basis Set:
  @DF-RHF Final Energy:  -344.71729598306058
    Total Energy =                       -344.7172959830604668
  Basis Set: CC-PVTZ
  Basis Set:
  Basis Set: CC-PVTZ
  Basis Set:
  @DF-RHF Final Energy:  -344.71730402995149
    Total Energy =                       -344.7173040299515492
  Basis Set: CC-PVTZ
  Basis Set:
  Basis Set: CC-PVTZ
  Basis Set:
  @DF-RHF Final Energy:  -344.71730640092557
    Total Energy =                       -344.7173064009252812
  Basis Set: CC-PVTZ
  Basis Set:
  Charge       = 0
  Multiplicity = 1
  Basis Set: CC-PVTZ
  Basis Set:

    Orbital Energies (a.u.)
    -----------------------

    Doubly Occupied:

       1A    -20.572616     2A    -11.288603     3A    -11.241266
       4A    -11.230748     5A    -11.221557     6A    -11.219739
       7A    -11.217413     8A    -11.217086     9A     -1.400271
      10A     -1.154920    11A     -1.047263    12A     -1.007025
      13A     -0.940042    14A     -0.836997    15A     -0.805322
      16A     -0.726583    17A     -0.681000    18A     -0.655538
      19A     -0.619478    20A     -0.594537    21A     -0.578919
      22A     -0.569908    23A     -0.555258    24A     -0.522712
      25A     -0.505260    26A     -0.485168    27A     -0.468872
      28A     -0.334049    29A     -0.318986

  @DF-RHF Final Energy:  -344.71730699580093

   => Energetics <=

    Nuclear Repulsion Energy =            345.9743870016112055
    One-Electron Energy =               -1153.3491131800383300
    Two-Electron Energy =                 462.6574191826264268
    DFT Exchange-Correlation Energy =       0.0000000000000000
    Empirical Dispersion Energy =           0.0000000000000000
    PCM Polarization Energy =               0.0000000000000000
    EFP Energy =                            0.0000000000000000
    Total Energy =                       -344.7173069958007545
    Molecular point group: c1
  Basis Set: CC-PVTZ
  Basis Set:

  -Total Gradient:
     Atom            X                  Y                   Z
    ------   -----------------  -----------------  -----------------
       1        0.000019199751     0.000111482023    -0.002272151671
       2        0.000430271759    -0.000750191929     0.003243372405
       3       -0.001354655205     0.001783032888    -0.001788354210
       4        0.000049152786     0.000022145257    -0.000015562196
       5        0.000881278486    -0.001177490264     0.000834932959
       6       -0.000021895468    -0.000011926061     0.000006389851
       7       -0.000019190027    -0.000008414662    -0.000001650402
       8        0.000016183186     0.000007474483    -0.000010835210
       9        0.000015908537     0.000000934728     0.000016312491
      10       -0.000002425791     0.000002097358     0.000001831407
      11       -0.000014631726     0.000005526506    -0.000018297859
      12        0.000000912908     0.000004320444    -0.000016093535
      13       -0.000006204075     0.000008466011     0.000011915894
      14        0.000002705770    -0.000016684928     0.000009243528
      15       -0.000013511867     0.000009868205     0.000003204760
      16        0.000016900971     0.000009359938    -0.000004258213

  **** Optimization is complete! (in 6 steps) ****
    Final optimized geometry and variables:
    Molecular point group: c1

    Geometry (in Angstrom), charge = 0, multiplicity = 1:

    H           -2.673497132403    -1.240080677723    -0.384133420835
    O           -1.855303871593    -1.703873864245    -0.399948819350
    C           -0.807654812903    -0.832966169625    -0.351814307449
    C            0.134083819192    -0.871185436752    -1.357284785771
    C           -0.652992190339     0.027414675467     0.721745762865
    H            0.006318983961    -1.554523031628    -2.173339418494
    C            1.228512125659    -0.029370388990    -1.282574692428
    H           -1.385943125285     0.015799864903     1.507090185673
    C            0.433822418853     0.880938910718     0.792631887303
    H            1.968387290127    -0.054708508658    -2.060086842150
    C            1.378602059473     0.841970798604    -0.223837073215
    C            0.587709446631     1.840180543613     1.946218935770
    H            2.234448193348     1.489273163861    -0.181851635907
    H            1.611266912156     1.863944976605     2.298945234959
    H           -0.048044829473     1.563093321051     2.776520401837
    H            0.321576202739     2.848137935768     1.646139728614

  Mulliken Charges: (a.u.)
   Center  Symbol    Alpha    Beta     Spin     Total
       1     H     0.38659  0.38659  0.00000  0.22681
       2     O     4.18838  4.18838  0.00000 -0.37676
       3     C     2.85449  2.85449  0.00000  0.29103
       4     C     3.12243  3.12243  0.00000 -0.24486
       5     C     3.15134  3.15134  0.00000 -0.30268
       6     H     0.41690  0.41690  0.00000  0.16619
       7     C     3.05623  3.05623  0.00000 -0.11245
       8     H     0.42447  0.42447  0.00000  0.15106
       9     C     2.94570  2.94570  0.00000  0.10861
      10     H     0.42249  0.42249  0.00000  0.15501
      11     C     3.11115  3.11115  0.00000 -0.22229
      12     C     3.14636  3.14636  0.00000 -0.29271
      13     H     0.42722  0.42722  0.00000  0.14557
      14     H     0.44775  0.44775  0.00000  0.10451
      15     H     0.45128  0.45128  0.00000  0.09743
      16     H     0.44723  0.44723  0.00000  0.10555

   Total alpha = 29.00000, Total beta = 29.00000, Total charge = -0.00000

*** Psi4 exiting successfully. Buy a developer a beer!
