                              Psi4 1.0.54 Driver

  ==> Input File <==

--------------------------------------------------------------------------
set {
	reference rhf
	basis cc-pvtz
}

set_num_threads( 4 )
memory 2 gb

molecule MOL {
0 1

H	 -3.268214	 -0.875720	 0.463107
C	 -2.806015	 0.000007	 0.024886
N	 -1.391133	 0.000016	 0.301321
H	 -3.029448	 0.000055	 -1.045738
H	 -3.268126	 0.875758	 0.463150
C	 -0.979205	 -1.158876	 1.063463
C	 -0.956163	 1.220671	 0.945009
H	 -1.467428	 -1.186750	 2.042090
H	 -1.271479	 -2.053579	 0.526650
C	 0.525014	 -1.163610	 1.261745
H	 -1.231607	 2.063131	 0.321727
H	 -1.442811	 1.355007	 1.915563
C	 0.548056	 1.215937	 1.143292
H	 0.800459	 -2.006070	 1.885027
H	 1.011662	 -1.297946	 0.291191
N	 0.959984	 0.057045	 1.905434
H	 0.840330	 2.110640	 1.680105
H	 1.036279	 1.243810	 0.164665
C	 2.374866	 0.057054	 2.181869
H	 2.629771	 -0.791279	 2.804699
H	 2.646658	 0.957953	 2.717659
H	 2.984589	 0.006070	 1.275339

	symmetry c1
}
set optking {
	frozen_dihedral = ("
		6 3 2 4
	")
}

ee,wfn = optimize('scf', return_wfn=True)
oeprop( wfn, 'DIPOLE', 'QUADRUPOLE', 'MULLIKEN_CHARGES')
f=open( 'psi4out.xyz', 'w' )
f.write( "22  " )
f.write( str(ee) + "\n" )
f.write( MOL.save_string_xyz() )
f.close()
--------------------------------------------------------------------------

    Molecular point group: c1
  Charge       = 0
  Multiplicity = 1
  Basis Set: CC-PVTZ
  Basis Set:
  @DF-RHF Final Energy:  -344.34385714973610
    Total Energy =                       -344.3438571497359817
    Molecular point group: c1
  Basis Set: CC-PVTZ
  Basis Set:
  Basis Set: CC-PVTZ
  Basis Set:
  @DF-RHF Final Energy:  -344.34399444957592
    Total Energy =                       -344.3439944495760301
  Basis Set: CC-PVTZ
  Basis Set:
  Basis Set: CC-PVTZ
  Basis Set:
  @DF-RHF Final Energy:  -344.34463377430569
    Total Energy =                       -344.3446337743059757
  Basis Set: CC-PVTZ
  Basis Set:
  Basis Set: CC-PVTZ
  Basis Set:
  @DF-RHF Final Energy:  -344.34465463353064
    Total Energy =                       -344.3446546335306948
  Basis Set: CC-PVTZ
  Basis Set:
  Basis Set: CC-PVTZ
  Basis Set:
  @DF-RHF Final Energy:  -344.34465762139064
    Total Energy =                       -344.3446576213908656
  Basis Set: CC-PVTZ
  Basis Set:
  Charge       = 0
  Multiplicity = 1
  Basis Set: CC-PVTZ
  Basis Set:

    Orbital Energies (a.u.)
    -----------------------

    Doubly Occupied:

       1A    -15.537078     2A    -15.533684     3A    -11.237299
       4A    -11.237250     5A    -11.236263     6A    -11.236250
       7A    -11.234026     8A    -11.233861     9A     -1.254997
      10A     -1.203135    11A     -1.025549    12A     -0.991761
      13A     -0.912712    14A     -0.867696    15A     -0.836583
      16A     -0.754208    17A     -0.665854    18A     -0.636104
      19A     -0.631646    20A     -0.624793    21A     -0.620741
      22A     -0.580336    23A     -0.551815    24A     -0.550263
      25A     -0.542602    26A     -0.519806    27A     -0.497885
      28A     -0.487607    29A     -0.466203    30A     -0.456461
      31A     -0.350913    32A     -0.341355

  @DF-RHF Final Energy:  -344.34465787091602

   => Energetics <=

    Nuclear Repulsion Energy =            421.3753384867151794
    One-Electron Energy =               -1301.7265185461392321
    Two-Electron Energy =                 536.0065221885081428
    DFT Exchange-Correlation Energy =       0.0000000000000000
    Empirical Dispersion Energy =           0.0000000000000000
    PCM Polarization Energy =               0.0000000000000000
    EFP Energy =                            0.0000000000000000
    Total Energy =                       -344.3446578709158530
    Molecular point group: c1
  Basis Set: CC-PVTZ
  Basis Set:

  -Total Gradient:
     Atom            X                  Y                   Z
    ------   -----------------  -----------------  -----------------
       1        0.000006708084    -0.000004320124     0.000011617094
       2       -0.000018514277     0.001521005873    -0.000171509236
       3       -0.000269617328     0.000183656596     0.001232110527
       4        0.000059808537    -0.001316200083    -0.000172934030
       5        0.000010114447    -0.000002082447     0.000014443654
       6        0.000213439308    -0.000382355715    -0.000912636994
       7       -0.000021480885    -0.000008615021    -0.000003456650
       8       -0.000001872111     0.000006251510    -0.000001437074
       9       -0.000003514963     0.000000614437    -0.000004676898
      10        0.000013208347     0.000020012660     0.000014103390
      11       -0.000002904910     0.000000863471    -0.000004206263
      12       -0.000000886644    -0.000002253244     0.000000150968
      13        0.000012932150    -0.000012892801     0.000014951409
      14        0.000003773015    -0.000002874035     0.000003966027
      15       -0.000001626315    -0.000000743175    -0.000004357379
      16       -0.000013595774    -0.000002354230    -0.000019565606
      17        0.000004543294     0.000002779724     0.000004430656
      18       -0.000001866337    -0.000002299677    -0.000002772995
      19        0.000002919049     0.000002621548    -0.000000948765
      20        0.000001271342    -0.000001612261     0.000001292721
      21        0.000002002734     0.000001345450     0.000001929689
      22        0.000005159235    -0.000000548449    -0.000000494244

  **** Optimization is complete! (in 6 steps) ****
    Final optimized geometry and variables:
    Molecular point group: c1

    Geometry (in Angstrom), charge = 0, multiplicity = 1:

    H           -3.055265344110    -0.913318924520    -0.889845488125
    C           -2.581722236197     0.026254125827    -1.151822681362
    N           -1.176309889208     0.022893358846    -0.786092570896
    H           -2.709970199989     0.166917306970    -2.219831013108
    H           -3.129931432473     0.810550740933    -0.638933200721
    C           -0.732873565291    -1.201632509472    -0.158651978643
    C           -0.768349690144     1.187080827700    -0.033288070100
    H           -1.220280874136    -1.360989422577     0.808021436038
    H           -0.991183503287    -2.037747140777    -0.797122545171
    C            0.770617264722    -1.183490856830     0.045943402466
    H           -1.054546182816     2.077799259904    -0.580021373641
    H           -1.260462121537     1.227471103745     0.943177766026
    C            0.735007984276     1.194536688158     0.171822489837
    H            1.069031555000    -2.078976729344     0.578362006151
    H            1.262507367151    -1.200766621229    -0.931302900525
    N            1.170127886056    -0.025642853665     0.815936707644
    H            1.005863419031     2.037280521554     0.796995177046
    H            1.225683206158     1.330471129024    -0.796666982677
    C            2.582529264058    -0.019757079004     1.104063957717
    H            2.854400112013    -0.921015554869     1.639334038699
    H            2.828295144319     0.827939023171     1.731524901284
    H            3.199730846125     0.036972089227     0.202794335002

  Mulliken Charges: (a.u.)
   Center  Symbol    Alpha    Beta     Spin     Total
       1     H     0.46023  0.46023  0.00000  0.07953
       2     C     3.09212  3.09212  0.00000 -0.18424
       3     N     3.61540  3.61540  0.00000 -0.23079
       4     H     0.45010  0.45010  0.00000  0.09979
       5     H     0.46182  0.46182  0.00000  0.07636
       6     C     3.03544  3.03544  0.00000 -0.07088
       7     C     3.03561  3.03561  0.00000 -0.07122
       8     H     0.46855  0.46855  0.00000  0.06289
       9     H     0.45350  0.45350  0.00000  0.09300
      10     C     3.03704  3.03704  0.00000 -0.07408
      11     H     0.45336  0.45336  0.00000  0.09328
      12     H     0.46850  0.46850  0.00000  0.06301
      13     C     3.03725  3.03725  0.00000 -0.07450
      14     H     0.45412  0.45412  0.00000  0.09177
      15     H     0.46877  0.46877  0.00000  0.06247
      16     N     3.61294  3.61294  0.00000 -0.22588
      17     H     0.45413  0.45413  0.00000  0.09175
      18     H     0.46872  0.46872  0.00000  0.06255
      19     C     3.09824  3.09824  0.00000 -0.19647
      20     H     0.45199  0.45199  0.00000  0.09603
      21     H     0.45198  0.45198  0.00000  0.09604
      22     H     0.47021  0.47021  0.00000  0.05959

   Total alpha = 32.00000, Total beta = 32.00000, Total charge =  0.00000

*** Psi4 exiting successfully. Buy a developer a beer!
