  ==> Input File <==

--------------------------------------------------------------------------
set {
	reference rhf
	basis 6-31G*
}

set_num_threads( 4 )
memory 2 gb

molecule MOL {
0 1

O	 -2.035333	 -0.204121	 0.747299
C	 -1.083277	 0.139568	 0.115197
C	 0.323299	 -0.082943	 0.642902
C	 -1.225338	 0.832008	 -1.222029
C	 1.355627	 -0.005344	 -0.493127
H	 0.396251	 -1.044647	 1.143147
H	 0.528637	 0.693580	 1.371677
C	 2.786168	 -0.195604	 0.007473
H	 1.132807	 -0.760304	 -1.243899
H	 1.259610	 0.958506	 -0.981915
H	 3.495561	 -0.130713	 -0.811210
H	 2.912696	 -1.165395	 0.480041
H	 3.049284	 0.565503	 0.735850
H	 -0.646172	 1.750576	 -1.243659
H	 -2.266203	 1.049226	 -1.417353
H	 -0.837199	 0.190005	 -2.008404

	symmetry c1
}
set optking {
	frozen_dihedral = ("
		4 2 3 5
	")
}

ee = optimize('scf')
oeprop('DIPOLE', 'QUADRUPOLE', 'MULLIKEN_CHARGES')
f=open( 'psi4out.xyz', 'w' )
f.write( "16  " )
f.write( str(ee) + "\n" )
f.write( MOL.save_string_xyz() )
f.close()
--------------------------------------------------------------------------

    Molecular point group: c1
  Charge       = 0
  Multiplicity = 1
  Basis Set: 6-31G*
  Basis Set:
  @DF-RHF Final Energy:  -270.02421432805011
    Total Energy =                       -270.0242143280499931
    Molecular point group: c1
  Basis Set: 6-31G*
  Basis Set:
  Basis Set: 6-31G*
  Basis Set:
  @DF-RHF Final Energy:  -270.02662611498135
    Total Energy =                       -270.0266261149814682
  Basis Set: 6-31G*
  Basis Set:
  Basis Set: 6-31G*
  Basis Set:
  @DF-RHF Final Energy:  -270.02815543373316
    Total Energy =                       -270.0281554337330476
  Basis Set: 6-31G*
  Basis Set:
  Basis Set: 6-31G*
  Basis Set:
  @DF-RHF Final Energy:  -270.02822165431508
    Total Energy =                       -270.0282216543151321
  Basis Set: 6-31G*
  Basis Set:
  @DF-RHF Final Energy:  -270.02830005493149
    Total Energy =                       -270.0283000549317194
  @DF-RHF Final Energy:  -270.02835586995980
    Total Energy =                       -270.0283558699597961
  Basis Set: 6-31G*
  Basis Set:
  @DF-RHF Final Energy:  -270.02824245233933
    Total Energy =                       -270.0282424523394411
  Basis Set: 6-31G*
  Basis Set:
  Basis Set: 6-31G*
  Basis Set:
  @DF-RHF Final Energy:  -270.02835796520446
    Total Energy =                       -270.0283579652045205
  Basis Set: 6-31G*
  Basis Set:
  Basis Set: 6-31G*
  Basis Set:
  @DF-RHF Final Energy:  -270.02836251537991
    Total Energy =                       -270.0283625153797971
  Basis Set: 6-31G*
  Basis Set:
  Charge       = 0
  Multiplicity = 1
  Basis Set: 6-31G*
  Basis Set:

    Orbital Energies (a.u.)
    -----------------------

    Doubly Occupied:

       1A    -20.546132     2A    -11.326205     3A    -11.234210
       4A    -11.231381     5A    -11.228070     6A    -11.221436
       7A     -1.392975     8A     -1.085189     9A     -1.009011
      10A     -0.952253    11A     -0.834942    12A     -0.733544
      13A     -0.656509    14A     -0.652239    15A     -0.623431
      16A     -0.598928    17A     -0.577125    18A     -0.552795
      19A     -0.538982    20A     -0.520800    21A     -0.504020
      22A     -0.490131    23A     -0.469805    24A     -0.398007

  @DF-RHF Final Energy:  -270.02836267253076

   => Energetics <=

    Nuclear Repulsion Energy =            236.6442239202262670
    One-Electron Energy =                -834.5889264935066194
    Two-Electron Energy =                 327.9163399007495059
    DFT Exchange-Correlation Energy =       0.0000000000000000
    Empirical Dispersion Energy =           0.0000000000000000
    PCM Polarization Energy =               0.0000000000000000
    EFP Energy =                            0.0000000000000000
    Total Energy =                       -270.0283626725308181
    Molecular point group: c1
  Basis Set: 6-31G*
  Basis Set:

  -Total Gradient:
     Atom            X                  Y                   Z
    ------   -----------------  -----------------  -----------------
       1       -0.000008614138    -0.000009085578     0.000000091186
       2        0.000043990937     0.002076106758     0.000881421339
       3       -0.000161873812    -0.002106456637    -0.000507644952
       4        0.000014681159    -0.001001168862    -0.000517107491
       5        0.000099068234     0.001083754693     0.000178611233
       6        0.000015287017    -0.000008276732    -0.000006566920
       7       -0.000018851445    -0.000003166505     0.000004362731
       8        0.000008820149    -0.000004428838    -0.000010741356
       9        0.000014352843     0.000003460051    -0.000017385424
      10       -0.000012419679     0.000000311807     0.000012370970
      11        0.000008292646    -0.000007000188     0.000001551509
      12       -0.000006015408     0.000007133938     0.000004912837
      13        0.000001482182     0.000004571637    -0.000006448748
      14       -0.000001141233    -0.000022817607    -0.000000229342
      15        0.000000439995    -0.000001457181    -0.000004159372
      16        0.000002500548    -0.000011480756    -0.000013038205

  **** Optimization is complete! (in 10 steps) ****
    Final optimized geometry and variables:
    Molecular point group: c1

    Geometry (in Angstrom), charge = 0, multiplicity = 1:

    O           -2.023274817457    -0.282255269594     0.841096752971
    C           -1.127105437687     0.075466554249     0.138673237905
    C            0.313126526185    -0.137082818296     0.588510672155
    C           -1.402866555370     0.757668427979    -1.184046576184
    C            1.406388512490    -0.088543674449    -0.481373046082
    H            0.334189622559    -1.083249454320     1.118390364583
    H            0.507714498716     0.629574914238     1.337624843408
    C            2.793933420403    -0.330639248014     0.112344618568
    H            1.210483012273    -0.837331671119    -1.245001516581
    H            1.397371728944     0.874344514174    -0.983574480673
    H            3.558441986205    -0.296208025511    -0.656942611453
    H            2.850337110300    -1.302454687300     0.593396702890
    H            3.038131985241     0.421438951326     0.856929160133
    H           -0.927105747434     1.733144042477    -1.222352779384
    H           -2.470783304924     0.871106054929    -1.306481669826
    H           -1.004855763524     0.172596691210    -2.007060088272

  Mulliken Charges: (a.u.)
   Center  Symbol    Alpha    Beta     Spin     Total
       1     O     4.26328  4.26328  0.00000 -0.52656
       2     C     2.73516  2.73516  0.00000  0.52969
       3     C     3.20441  3.20441  0.00000 -0.40883
       4     C     3.29217  3.29217  0.00000 -0.58434
       5     C     3.16205  3.16205  0.00000 -0.32410
       6     H     0.39882  0.39882  0.00000  0.20236
       7     H     0.40378  0.40378  0.00000  0.19244
       8     C     3.24017  3.24017  0.00000 -0.48035
       9     H     0.41812  0.41812  0.00000  0.16375
      10     H     0.41866  0.41866  0.00000  0.16269
      11     H     0.41560  0.41560  0.00000  0.16881
      12     H     0.41781  0.41781  0.00000  0.16438
      13     H     0.41923  0.41923  0.00000  0.16153
      14     H     0.40882  0.40882  0.00000  0.18237
      15     H     0.39542  0.39542  0.00000  0.20916
      16     H     0.40651  0.40651  0.00000  0.18699

   Total alpha = 24.00000, Total beta = 24.00000, Total charge =  0.00000
