  ==> Input File <==

--------------------------------------------------------------------------
set {
	reference rhf
	basis cc-pvtz
}

set_num_threads( 4 )
memory 2 gb

molecule MOL {
0 1

O	 -2.817697	 1.304178	 0.001046
C	 -2.664672	 0.129869	 0.003507
C	 -3.797908	 -0.860100	 -0.001145
O	 -1.481217	 -0.452708	 0.001092
H	 -4.408836	 -0.679689	 -0.875387
H	 -3.443486	 -1.878443	 -0.002770
H	 -4.412123	 -0.683688	 0.871605
C	 -0.332055	 0.384012	 -0.000250
C	 0.892252	 -0.506059	 -0.000295
H	 -0.360822	 1.020205	 -0.874146
H	 -0.359817	 1.021310	 0.872861
C	 1.094574	 -1.204757	 -1.341656
H	 0.791577	 -1.242918	 0.790005
H	 1.763745	 0.094225	 0.240171
C	 2.324450	 -2.108061	 -1.365588
H	 0.213238	 -1.795236	 -1.579476
H	 1.183303	 -0.459938	 -2.128641
C	 2.527659	 -2.805536	 -2.706201
H	 2.236132	 -2.853880	 -0.580724
H	 3.205830	 -1.519064	 -1.128229
H	 1.676417	 -3.430098	 -2.955510
H	 3.407673	 -3.437840	 -2.689701
H	 2.653302	 -2.084921	 -3.507313

	symmetry c1
}
set optking {
	frozen_dihedral = ("
		13 9 8 10
	")
}

ee = optimize('scf')
oeprop('DIPOLE', 'QUADRUPOLE', 'MULLIKEN_CHARGES')
f=open( 'psi4out.xyz', 'w' )
f.write( "23  " )
f.write( str(ee) + "\n" )
f.write( MOL.save_string_xyz() )
f.close()
--------------------------------------------------------------------------

    Molecular point group: c1
  Charge       = 0
  Multiplicity = 1
  Basis Set: CC-PVTZ
  Basis Set:
  @DF-RHF Final Energy:  -423.13416674734327
    Total Energy =                       -423.1341667473432153
    Molecular point group: c1
  Basis Set: CC-PVTZ
  Basis Set:
  Basis Set: CC-PVTZ
  Basis Set:
  @DF-RHF Final Energy:  -423.13412615186479
    Total Energy =                       -423.1341261518645069
  Basis Set: CC-PVTZ
  Basis Set:
  Basis Set: CC-PVTZ
  Basis Set:
  @DF-RHF Final Energy:  -423.13349728502214
    Total Energy =                       -423.1334972850221448
  Basis Set: CC-PVTZ
  Basis Set:
  Basis Set: CC-PVTZ
  Basis Set:
  @DF-RHF Final Energy:  -423.13437019646989
    Total Energy =                       -423.1343701964696038
  Basis Set: CC-PVTZ
  Basis Set:
  Basis Set: CC-PVTZ
  Basis Set:
  @DF-RHF Final Energy:  -423.13437670067555
    Total Energy =                       -423.1343767006751477
  Basis Set: CC-PVTZ
  Basis Set:
  Basis Set: CC-PVTZ
  Basis Set:
  @DF-RHF Final Energy:  -423.13438022317371
    Total Energy =                       -423.1343802231739346
  Basis Set: CC-PVTZ
  Basis Set:
  Charge       = 0
  Multiplicity = 1
  Basis Set: CC-PVTZ
  Basis Set:

    Orbital Energies (a.u.)
    -----------------------

    Doubly Occupied:

       1A    -20.596031     2A    -20.529725     3A    -11.366663
       4A    -11.280202     5A    -11.231103     6A    -11.223311
       7A    -11.217670     8A    -11.216611     9A    -11.209676
      10A     -1.471204    11A     -1.364115    12A     -1.093273
      13A     -1.042523    14A     -1.003637    15A     -0.931731
      16A     -0.843403    17A     -0.801259    18A     -0.779123
      19A     -0.691151    20A     -0.686015    21A     -0.669593
      22A     -0.644821    23A     -0.609088    24A     -0.586021
      25A     -0.579351    26A     -0.574250    27A     -0.560017
      28A     -0.533909    29A     -0.530415    30A     -0.508570
      31A     -0.496608    32A     -0.474672    33A     -0.469861
      34A     -0.462906    35A     -0.449128    36A     -0.440888

  @DF-RHF Final Energy:  -423.13438053243948

   => Energetics <=

    Nuclear Repulsion Energy =            458.4348312120721971
    One-Electron Energy =               -1484.8013787723318728
    Two-Electron Energy =                 603.2321670278199690
    DFT Exchange-Correlation Energy =       0.0000000000000000
    Empirical Dispersion Energy =           0.0000000000000000
    PCM Polarization Energy =               0.0000000000000000
    EFP Energy =                            0.0000000000000000
    Total Energy =                       -423.1343805324397636
    Molecular point group: c1
  Basis Set: CC-PVTZ
  Basis Set:

  -Total Gradient:
     Atom            X                  Y                   Z
    ------   -----------------  -----------------  -----------------
       1        0.000002517784    -0.000014676343    -0.000018809045
       2       -0.000020432564     0.000025141979     0.000034977794
       3        0.000002951478    -0.000002030978    -0.000039524008
       4        0.000033383963     0.000000826778     0.000014616318
       5       -0.000007872785     0.000004485410     0.000011028498
       6        0.000000273943     0.000001906131     0.000001549221
       7        0.000005331094    -0.000005151171     0.000010728380
       8        0.000940090272     0.001281800385     0.000804139752
       9        0.000744847281     0.000978650736     0.001110441305
      10       -0.000897963630    -0.001206527755    -0.000856432419
      11       -0.000000390111    -0.000009963884     0.000000935390
      12       -0.000003998677     0.000007360682     0.000003930601
      13       -0.000788945187    -0.001055735489    -0.001085208551
      14        0.000002027371     0.000003578090     0.000003591786
      15       -0.000010390748    -0.000007765982     0.000011832410
      16       -0.000001582829    -0.000001860451    -0.000001279107
      17       -0.000003402278    -0.000003388562    -0.000003091980
      18        0.000005568309     0.000007339792    -0.000004774540
      19       -0.000000103860    -0.000003301297     0.000001437496
      20       -0.000003474838    -0.000003594205     0.000000314802
      21        0.000001773569    -0.000000105687     0.000004469709
      22        0.000001840305     0.000003190029    -0.000001331505
      23       -0.000002047870    -0.000000178205    -0.000003542303

  **** Optimization is complete! (in 7 steps) ****
    Final optimized geometry and variables:
    Molecular point group: c1

    Geometry (in Angstrom), charge = 0, multiplicity = 1:

    O           -2.330787435413     1.985683165529     0.610420891461
    C           -2.180535359892     0.810957501358     0.613377541537
    C           -3.317016032377    -0.175654618026     0.618013971595
    O           -0.998625969304     0.225837402531     0.613446513627
    H           -3.927734188162    -0.000786881965    -0.257591346666
    H           -2.966227243995    -1.195302773646     0.625022157458
    H           -3.930276269291     0.010340964608     1.489488392149
    C            0.154360694150     1.061730202569     0.610700624282
    C            1.379768081886     0.171283443207     0.579265802306
    H            0.107613900638     1.706462950664    -0.256131774498
    H            0.136347964754     1.681377373492     1.495523100926
    C            1.597796266669    -0.531004329284    -0.758725896946
    H            1.288246351748    -0.570222744953     1.366455419583
    H            2.243759994796     0.785285932683     0.815255031431
    C            2.823464565190    -1.439827096610    -0.763329099790
    H            0.716554130689    -1.114171167886    -1.006089520983
    H            1.702692307558     0.216433950021    -1.541712259045
    C            3.047338081827    -2.134452544093    -2.102242587805
    H            2.717376872034    -2.188289441180     0.017125552482
    H            3.704725870904    -0.857254391760    -0.508273428157
    H            2.196848379553    -2.753015483425    -2.368684832016
    H            3.923310460028    -2.772034930500    -2.072096734470
    H            3.191434617460    -1.412071542662    -2.898757347908

  Mulliken Charges: (a.u.)
   Center  Symbol    Alpha    Beta     Spin     Total
       1     O     4.20275  4.20275  0.00000 -0.40549
       2     C     2.81293  2.81293  0.00000  0.37413
       3     C     3.13989  3.13989  0.00000 -0.27978
       4     O     4.14896  4.14896  0.00000 -0.29792
       5     H     0.44199  0.44199  0.00000  0.11601
       6     H     0.44234  0.44234  0.00000  0.11533
       7     H     0.44160  0.44160  0.00000  0.11681
       8     C     2.99086  2.99086  0.00000  0.01829
       9     C     3.08732  3.08732  0.00000 -0.17464
      10     H     0.45171  0.45171  0.00000  0.09658
      11     H     0.44402  0.44402  0.00000  0.11195
      12     C     3.08954  3.08954  0.00000 -0.17908
      13     H     0.45133  0.45133  0.00000  0.09735
      14     H     0.45020  0.45020  0.00000  0.09959
      15     C     3.08535  3.08535  0.00000 -0.17071
      16     H     0.44848  0.44848  0.00000  0.10303
      17     H     0.45502  0.45502  0.00000  0.08996
      18     C     3.14959  3.14959  0.00000 -0.29919
      19     H     0.45368  0.45368  0.00000  0.09264
      20     H     0.45483  0.45483  0.00000  0.09033
      21     H     0.45480  0.45480  0.00000  0.09041
      22     H     0.44803  0.44803  0.00000  0.10395
      23     H     0.45478  0.45478  0.00000  0.09044

   Total alpha = 36.00000, Total beta = 36.00000, Total charge = -0.00000
