  ==> Input File <==

--------------------------------------------------------------------------
set {
	reference rhf
	basis 6-31G*
}

set_num_threads( 4 )
memory 2 gb

molecule MOL {
0 1

H	 -0.821032	 -1.655889	 0.000000
O	 -1.037828	 -0.728600	 0.000000
C	 0.100509	 -0.036935	 0.000000
C	 -0.134617	 1.426628	 0.242074
O	 1.156393	 -0.550761	 -0.174107
H	 -0.787456	 1.822987	 -0.526962
H	 0.809032	 1.950672	 0.234641
H	 -0.629651	 1.563272	 1.196530

	symmetry c1
}
set optking {
	frozen_dihedral = ("
		4 3 2 1
	")
}

ee = optimize('scf')
oeprop('DIPOLE', 'QUADRUPOLE', 'MULLIKEN_CHARGES')
f=open( 'psi4out.xyz', 'w' )
f.write( "8  " )
f.write( str(ee) + "\n" )
f.write( MOL.save_string_xyz() )
f.close()
--------------------------------------------------------------------------

    Molecular point group: c1
  Charge       = 0
  Multiplicity = 1
  Basis Set: 6-31G*
  Basis Set:
  @DF-RHF Final Energy:  -227.80962460154916
    Total Energy =                       -227.8096246015491317
    Molecular point group: c1
  Basis Set: 6-31G*
  Basis Set:
  Basis Set: 6-31G*
  Basis Set:
  @DF-RHF Final Energy:  -227.80854323898922
    Total Energy =                       -227.8085432389892162
  Basis Set: 6-31G*
  Basis Set:
  Basis Set: 6-31G*
  Basis Set:
  @DF-RHF Final Energy:  -227.80969199003508
    Total Energy =                       -227.8096919900349917
  Basis Set: 6-31G*
  Basis Set:
  Basis Set: 6-31G*
  Basis Set:
  @DF-RHF Final Energy:  -227.80970524983195
    Total Energy =                       -227.8097052498320068
  Basis Set: 6-31G*
  Basis Set:
  Basis Set: 6-31G*
  Basis Set:
  @DF-RHF Final Energy:  -227.80972933150463
    Total Energy =                       -227.8097293315045704
  Basis Set: 6-31G*
  Basis Set:
  Basis Set: 6-31G*
  Basis Set:
  @DF-RHF Final Energy:  -227.80973049319266
    Total Energy =                       -227.8097304931927454
  Basis Set: 6-31G*
  Basis Set:
  Charge       = 0
  Multiplicity = 1
  Basis Set: 6-31G*
  Basis Set:

    Orbital Energies (a.u.)
    -----------------------

    Doubly Occupied:

       1A    -20.615004     2A    -20.553386     3A    -11.386077
       4A    -11.240551     5A     -1.476768     6A     -1.368223
       7A     -1.027109     8A     -0.831443     9A     -0.702700
      10A     -0.682918    11A     -0.653820    12A     -0.581753
      13A     -0.572958    14A     -0.560745    15A     -0.480529
      16A     -0.449135

  @DF-RHF Final Energy:  -227.80973057897125

   => Energetics <=

    Nuclear Repulsion Energy =            122.4409053799117402
    One-Electron Energy =                -554.1350310120792528
    Two-Electron Energy =                 203.8843950531963287
    DFT Exchange-Correlation Energy =       0.0000000000000000
    Empirical Dispersion Energy =           0.0000000000000000
    PCM Polarization Energy =               0.0000000000000000
    EFP Energy =                            0.0000000000000000
    Total Energy =                       -227.8097305789711982
    Molecular point group: c1
  Basis Set: 6-31G*
  Basis Set:

  -Total Gradient:
     Atom            X                  Y                   Z
    ------   -----------------  -----------------  -----------------
       1       -0.000209695418     0.000001844386     0.003743471225
       2        0.000269149149    -0.000182186440    -0.003577851282
       3       -0.000081070308     0.000536022526    -0.002556633009
       4        0.000075886814    -0.000352241099     0.002394649226
       5       -0.000051067550    -0.000004293462    -0.000006211033
       6       -0.000002793976     0.000002997175    -0.000000620192
       7       -0.000003129217     0.000000687049     0.000002052539
       8        0.000002720507    -0.000002830133     0.000001142526

  **** Optimization is complete! (in 7 steps) ****
    Final optimized geometry and variables:
    Molecular point group: c1

    Geometry (in Angstrom), charge = 0, multiplicity = 1:

    H           -0.832719878318    -1.648228335380    -0.070799080437
    O           -1.041887949007    -0.719383128188    -0.083801743304
    C            0.100162357665    -0.034895480681    -0.021759863045
    C           -0.137649391978     1.430549704246     0.205223622777
    O            1.161260910734    -0.560718774146    -0.100383106068
    H           -0.847853338851     1.814235371171    -0.517132663021
    H            0.797361810675     1.965340982071     0.134123544050
    H           -0.564972427518     1.566982377572     1.192483861792

  Mulliken Charges: (a.u.)
   Center  Symbol    Alpha    Beta     Spin     Total
       1     H     0.26719  0.26719  0.00000  0.46561
       2     O     4.34480  4.34480  0.00000 -0.68959
       3     C     2.63804  2.63804  0.00000  0.72392
       4     C     3.28494  3.28494  0.00000 -0.56987
       5     O     4.27483  4.27483  0.00000 -0.54966
       6     H     0.39814  0.39814  0.00000  0.20372
       7     H     0.39473  0.39473  0.00000  0.21054
       8     H     0.39733  0.39733  0.00000  0.20534

   Total alpha = 16.00000, Total beta = 16.00000, Total charge = -0.00000
