  ==> Input File <==

--------------------------------------------------------------------------
set {
	reference rhf
	basis cc-pvtz
}

set_num_threads( 4 )
memory 2 gb

molecule MOL {
0 1

H	 1.897814	 -1.455566	 0.938157
O	 1.393245	 -0.919293	 0.355169
C	 0.845001	 0.169365	 1.052500
C	 0.027642	 1.012027	 0.090274
H	 1.635319	 0.782755	 1.477846
H	 0.227044	 -0.179679	 1.875154
C	 -1.138737	 0.285728	 -0.581921
H	 0.696858	 1.388917	 -0.676285
H	 -0.343917	 1.876067	 0.635796
C	 -1.933983	 -0.631436	 0.343653
H	 -0.763151	 -0.285569	 -1.422081
H	 -1.808359	 1.035291	 -0.992333
H	 -2.789188	 -1.049673	 -0.174718
H	 -1.335629	 -1.461368	 0.700418
H	 -2.305435	 -0.092167	 1.209725

	symmetry c1
}
set optking {
	frozen_dihedral = ("
		8 4 7 11
	")
}

ee = optimize('scf')
oeprop('DIPOLE', 'QUADRUPOLE', 'MULLIKEN_CHARGES')
f=open( 'psi4out.xyz', 'w' )
f.write( "15  " )
f.write( str(ee) + "\n" )
f.write( MOL.save_string_xyz() )
f.close()
--------------------------------------------------------------------------

    Molecular point group: c1
  Charge       = 0
  Multiplicity = 1
  Basis Set: CC-PVTZ
  Basis Set:
  @DF-RHF Final Energy:  -232.23575319409684
    Total Energy =                       -232.2357531940972422
    Molecular point group: c1
  Basis Set: CC-PVTZ
  Basis Set:
  Basis Set: CC-PVTZ
  Basis Set:
  @DF-RHF Final Energy:  -232.23593352982877
    Total Energy =                       -232.2359335298289125
  Basis Set: CC-PVTZ
  Basis Set:
  Basis Set: CC-PVTZ
  Basis Set:
  @DF-RHF Final Energy:  -232.23608445858224
    Total Energy =                       -232.2360844585825816
  Basis Set: CC-PVTZ
  Basis Set:
  Basis Set: CC-PVTZ
  Basis Set:
  @DF-RHF Final Energy:  -232.23609425052558
    Total Energy =                       -232.2360942505254684
  Basis Set: CC-PVTZ
  Basis Set:
  Basis Set: CC-PVTZ
  Basis Set:
  @DF-RHF Final Energy:  -232.23609636166321
    Total Energy =                       -232.2360963616633285
  Basis Set: CC-PVTZ
  Basis Set:
  Charge       = 0
  Multiplicity = 1
  Basis Set: CC-PVTZ
  Basis Set:

    Orbital Energies (a.u.)
    -----------------------

    Doubly Occupied:

       1A    -20.546774     2A    -11.264829     3A    -11.211111
       4A    -11.208059     5A    -11.201844     6A     -1.364366
       7A     -1.064329     8A     -0.971017     9A     -0.871212
      10A     -0.772066    11A     -0.707921    12A     -0.650629
      13A     -0.609576    14A     -0.573830    15A     -0.563914
      16A     -0.532039    17A     -0.514582    18A     -0.475718
      19A     -0.463648    20A     -0.452077    21A     -0.434462

  @DF-RHF Final Energy:  -232.23609662135073

   => Energetics <=

    Nuclear Repulsion Energy =            193.0704314554081975
    One-Electron Energy =                -697.7050496542244673
    Two-Electron Energy =                 272.3985215774655444
    DFT Exchange-Correlation Energy =       0.0000000000000000
    Empirical Dispersion Energy =           0.0000000000000000
    PCM Polarization Energy =               0.0000000000000000
    EFP Energy =                            0.0000000000000000
    Total Energy =                       -232.2360966213507254
    Molecular point group: c1
  Basis Set: CC-PVTZ
  Basis Set:

  -Total Gradient:
     Atom            X                  Y                   Z
    ------   -----------------  -----------------  -----------------
       1        0.000008903450    -0.000000230327    -0.000001639285
       2        0.000002573269    -0.000000822155     0.000004508236
       3       -0.000001128105    -0.000010106984    -0.000010603490
       4       -0.002804875158     0.005109694239    -0.000800919940
       5       -0.000004498637    -0.000006262121    -0.000009940046
       6        0.000000234463     0.000006280096    -0.000003478891
       7        0.001256508339    -0.004824848546     0.003144530946
       8        0.002184997254    -0.003547270250     0.000193444397
       9       -0.000008876181     0.000012987133    -0.000007713049
      10       -0.000033216267     0.000027262828    -0.000006578522
      11       -0.000604167284     0.003267645653    -0.002566801905
      12        0.000013808110     0.000002124817     0.000027413606
      13        0.000002945640    -0.000019257870     0.000007948255
      14        0.000006227696    -0.000003967044     0.000021571211
      15       -0.000019436594    -0.000013229473     0.000008258479

  **** Optimization is complete! (in 6 steps) ****
    Final optimized geometry and variables:
    Molecular point group: c1

    Geometry (in Angstrom), charge = 0, multiplicity = 1:

    H            2.066881514392    -1.377132837710     0.632701079992
    O            1.537243718420    -0.848062706653     0.065600545541
    C            0.987485853734     0.228321572905     0.781065042922
    C            0.141386495572     1.063756322832    -0.163245197485
    H            1.777279670342     0.850846266431     1.194105036129
    H            0.391127845447    -0.133951341516     1.613542982543
    C           -1.013414695111     0.316954579319    -0.843105238802
    H            0.810407431601     1.439226865604    -0.930326823033
    H           -0.238425010072     1.914748984874     0.394451623771
    C           -1.853362562959    -0.571294382399     0.068229022076
    H           -0.625747907435    -0.258028206773    -1.675371792420
    H           -1.662015481989     1.064557094147    -1.291844233980
    H           -2.702026150746    -0.973432833863    -0.472954219503
    H           -1.281237565970    -1.408402177514     0.447717724510
    H           -2.240481689959    -0.015230922976     0.916893665728

  Mulliken Charges: (a.u.)
   Center  Symbol    Alpha    Beta     Spin     Total
       1     H     0.39539  0.39539  0.00000  0.20922
       2     O     4.20116  4.20116  0.00000 -0.40232
       3     C     2.98136  2.98136  0.00000  0.03728
       4     C     3.09677  3.09677  0.00000 -0.19354
       5     H     0.45960  0.45960  0.00000  0.08081
       6     H     0.46889  0.46889  0.00000  0.06223
       7     C     3.08135  3.08135  0.00000 -0.16271
       8     H     0.44996  0.44996  0.00000  0.10008
       9     H     0.45210  0.45210  0.00000  0.09581
      10     C     3.15883  3.15883  0.00000 -0.31767
      11     H     0.44865  0.44865  0.00000  0.10271
      12     H     0.45275  0.45275  0.00000  0.09450
      13     H     0.44627  0.44627  0.00000  0.10745
      14     H     0.45035  0.45035  0.00000  0.09929
      15     H     0.45658  0.45658  0.00000  0.08684

   Total alpha = 21.00000, Total beta = 21.00000, Total charge =  0.00000
