  ==> Input File <==

--------------------------------------------------------------------------
set {
	reference rhf
	basis cc-pvtz
}

set_num_threads( 4 )
memory 2 gb

molecule MOL {
0 1

O	 2.398339	 2.080408	 -0.260613
C	 1.395509	 2.402121	 -0.809196
C	 0.146150	 1.545266	 -0.782126
C	 1.299524	 3.700688	 -1.577789
C	 0.288398	 0.247429	 0.000314
H	 -0.659220	 2.153537	 -0.376597
H	 -0.135705	 1.344731	 -1.813314
C	 -0.993089	 -0.581367	 -0.000217
H	 0.578526	 0.476664	 1.019329
H	 1.102629	 -0.332792	 -0.418620
C	 -2.258482	 0.271340	 0.000669
H	 -1.002280	 -1.233920	 -0.870484
H	 -1.002061	 -1.235367	 0.868958
C	 -3.544441	 -0.550271	 -0.000253
H	 -2.250545	 0.925250	 -0.867923
H	 -2.250598	 0.923423	 0.870642
C	 -4.804551	 0.308747	 0.000556
H	 -3.553737	 -1.201524	 -0.870151
H	 -3.553831	 -1.203282	 0.868313
H	 -4.842050	 0.949078	 -0.874436
H	 -5.698404	 -0.304480	 -0.000254
H	 -4.842277	 0.947103	 0.876982
H	 0.512667	 4.322409	 -1.165033
H	 2.240977	 4.225705	 -1.528634
H	 1.044795	 3.504146	 -2.613417

	symmetry c1
}
set optking {
	frozen_dihedral = ("
		9 5 8 12
	")
}

ee = optimize('scf')
oeprop('DIPOLE', 'QUADRUPOLE', 'MULLIKEN_CHARGES')
f=open( 'psi4out.xyz', 'w' )
f.write( "25  " )
f.write( str(ee) + "\n" )
f.write( MOL.save_string_xyz() )
f.close()
--------------------------------------------------------------------------

    Molecular point group: c1
  Charge       = 0
  Multiplicity = 1
  Basis Set: CC-PVTZ
  Basis Set:
  @DF-RHF Final Energy:  -387.26644856698363
    Total Energy =                       -387.2664485669845362
    Molecular point group: c1
  Basis Set: CC-PVTZ
  Basis Set:
  Basis Set: CC-PVTZ
  Basis Set:
  @DF-RHF Final Energy:  -387.26794525994313
    Total Energy =                       -387.2679452599428487
  Basis Set: CC-PVTZ
  Basis Set:
  Basis Set: CC-PVTZ
  Basis Set:
  @DF-RHF Final Energy:  -387.26975150765713
    Total Energy =                       -387.2697515076563377
  Basis Set: CC-PVTZ
  Basis Set:
  Basis Set: CC-PVTZ
  Basis Set:
  @DF-RHF Final Energy:  -387.26989813396278
    Total Energy =                       -387.2698981339624424
  Basis Set: CC-PVTZ
  Basis Set:
  Basis Set: CC-PVTZ
  Basis Set:
  @DF-RHF Final Energy:  -387.26979301735958
    Total Energy =                       -387.2697930173587793
  Basis Set: CC-PVTZ
  Basis Set:
  Basis Set: CC-PVTZ
  Basis Set:
  @DF-RHF Final Energy:  -387.26994424420178
    Total Energy =                       -387.2699442442016107
  Basis Set: CC-PVTZ
  Basis Set:
  Basis Set: CC-PVTZ
  Basis Set:
  @DF-RHF Final Energy:  -387.26995275804029
    Total Energy =                       -387.2699527580400627
  Basis Set: CC-PVTZ
  Basis Set:
  Charge       = 0
  Multiplicity = 1
  Basis Set: CC-PVTZ
  Basis Set:

    Orbital Energies (a.u.)
    -----------------------

    Doubly Occupied:

       1A    -20.538755     2A    -11.320381     3A    -11.229804
       4A    -11.226435     5A    -11.215854     6A    -11.215361
       7A    -11.214991     8A    -11.214545     9A    -11.209094
      10A     -1.398860    11A     -1.095381    12A     -1.057042
      13A     -1.015225    14A     -0.969013    15A     -0.900909
      16A     -0.817620    17A     -0.787300    18A     -0.730158
      19A     -0.660072    20A     -0.655191    21A     -0.635594
      22A     -0.624439    23A     -0.597336    24A     -0.583602
      25A     -0.569135    26A     -0.562964    27A     -0.544937
      28A     -0.529739    29A     -0.519223    30A     -0.495580
      31A     -0.492246    32A     -0.476651    33A     -0.460779
      34A     -0.457331    35A     -0.448579    36A     -0.402928

  @DF-RHF Final Energy:  -387.26995288690313

   => Energetics <=

    Nuclear Repulsion Energy =            446.0702540451910068
    One-Electron Energy =               -1408.9343065336793188
    Two-Electron Energy =                 575.5940996015849578
    DFT Exchange-Correlation Energy =       0.0000000000000000
    Empirical Dispersion Energy =           0.0000000000000000
    PCM Polarization Energy =               0.0000000000000000
    EFP Energy =                            0.0000000000000000
    Total Energy =                       -387.2699528869034111
    Molecular point group: c1
  Basis Set: CC-PVTZ
  Basis Set:

  -Total Gradient:
     Atom            X                  Y                   Z
    ------   -----------------  -----------------  -----------------
       1       -0.000001195763    -0.000001173730    -0.000001771619
       2       -0.000003085116     0.000007050726     0.000003940833
       3        0.000019113856    -0.000015926417    -0.000024508963
       4        0.000000198503     0.000008446064     0.000007536986
       5       -0.003246014525     0.004871839073     0.000464468194
       6        0.000008906092    -0.000000639895     0.000007320597
       7       -0.000006509195     0.000005306690     0.000000313073
       8       -0.002321065503     0.003866561339    -0.003613837296
       9        0.003081481277    -0.004699405660     0.000187131571
      10        0.000005425829     0.000006609915    -0.000000418596
      11       -0.000003519113    -0.000012955466     0.000028795809
      12        0.002492408169    -0.004042766678     0.002952972365
      13       -0.000008434828     0.000004275158    -0.000005053754
      14       -0.000000794534     0.000007970424     0.000003582897
      15       -0.000001474598    -0.000011030956     0.000005676841
      16       -0.000005693726     0.000005267061     0.000001957967
      17       -0.000010742188    -0.000003061397    -0.000010730375
      18       -0.000001141698    -0.000001597126     0.000002256419
      19        0.000006155364     0.000005607366    -0.000000875509
      20       -0.000002248662     0.000003498567     0.000001575357
      21       -0.000006244039     0.000002482342    -0.000002838283
      22        0.000001757994    -0.000004241687    -0.000000685275
      23       -0.000000640105    -0.000000363119    -0.000005583419
      24        0.000000137964     0.000001962697     0.000000062259
      25        0.000003218550    -0.000003715289    -0.000001288081

  **** Optimization is complete! (in 8 steps) ****
    Final optimized geometry and variables:
    Molecular point group: c1

    Geometry (in Angstrom), charge = 0, multiplicity = 1:

    O            3.151422038183     0.953755341996     0.158869877262
    C            2.199379170604     1.350569232757    -0.429259585126
    C            0.877522498887     0.608348047633    -0.434367329992
    C            2.242872258690     2.639226951562    -1.219527388565
    C            0.890346339531    -0.682393885434     0.371585779417
    H            0.121461472408     1.298491802466    -0.072617892986
    H            0.618249346822     0.412934075193    -1.472782929734
    C           -0.390082427308    -1.527205877930     0.292102164713
    H            1.136257578012    -0.478486650082     1.407226325141
    H            1.715793002011    -1.290296024063     0.019871033530
    C           -1.714076922511    -0.771775034586     0.362497789451
    H           -0.356801935964    -2.154911396508    -0.594810271713
    H           -0.357889419340    -2.231144317622     1.119587004920
    C           -2.924067472902    -1.700165418719     0.426880251798
    H           -1.820453314740    -0.118972524589    -0.498995002357
    H           -1.714897369613    -0.125270821462     1.237821392381
    C           -4.252050154693    -0.952429309892     0.481787119322
    H           -2.916681167421    -2.357827003807    -0.438126025988
    H           -2.836599961341    -2.343143338705     1.298064548987
    H           -4.386849336467    -0.327805096565    -0.395161695320
    H           -5.088504399571    -1.640208525383     0.528430233249
    H           -4.303744846259    -0.309972270318     1.354619166451
    H            1.502196260682     3.335080433287    -0.841142246500
    H            3.225246222915     3.079971583051    -1.147689611785
    H            2.003693165807     2.448165003601    -2.259877299578

  Mulliken Charges: (a.u.)
   Center  Symbol    Alpha    Beta     Spin     Total
       1     O     4.16998  4.16998  0.00000 -0.33995
       2     C     2.86269  2.86269  0.00000  0.27462
       3     C     3.11704  3.11704  0.00000 -0.23408
       4     C     3.15115  3.15115  0.00000 -0.30229
       5     C     3.09197  3.09197  0.00000 -0.18394
       6     H     0.44160  0.44160  0.00000  0.11681
       7     H     0.44395  0.44395  0.00000  0.11211
       8     C     3.09935  3.09935  0.00000 -0.19871
       9     H     0.44421  0.44421  0.00000  0.11159
      10     H     0.44216  0.44216  0.00000  0.11567
      11     C     3.09212  3.09212  0.00000 -0.18424
      12     H     0.45109  0.45109  0.00000  0.09783
      13     H     0.44913  0.44913  0.00000  0.10174
      14     C     3.08483  3.08483  0.00000 -0.16967
      15     H     0.45358  0.45358  0.00000  0.09283
      16     H     0.45326  0.45326  0.00000  0.09348
      17     C     3.14986  3.14986  0.00000 -0.29973
      18     H     0.45432  0.45432  0.00000  0.09135
      19     H     0.45256  0.45256  0.00000  0.09489
      20     H     0.45599  0.45599  0.00000  0.08802
      21     H     0.44774  0.44774  0.00000  0.10452
      22     H     0.45505  0.45505  0.00000  0.08990
      23     H     0.45060  0.45060  0.00000  0.09881
      24     H     0.43512  0.43512  0.00000  0.12977
      25     H     0.45067  0.45067  0.00000  0.09867

   Total alpha = 36.00000, Total beta = 36.00000, Total charge = -0.00000
