  ==> Input File <==

--------------------------------------------------------------------------
set {
	reference rhf
	basis cc-pvtz
}

set_num_threads( 4 )
memory 2 gb

molecule MOL {
0 1

H	 -2.816458	 -0.841657	 -0.064679
N	 -1.878861	 -0.711874	 0.250184
C	 -1.341419	 0.551458	 -0.220231
H	 -1.333674	 -1.468530	 -0.105118
C	 -2.448551	 1.564953	 -0.398376
H	 -0.589911	 0.976790	 0.443751
H	 -0.870576	 0.391115	 -1.183894
O	 -3.005840	 1.846875	 0.849686
H	 -2.048498	 2.474880	 -0.843531
H	 -3.207321	 1.163708	 -1.066357
C	 -4.086318	 2.718968	 0.814450
H	 -4.429603	 2.864096	 1.828590
H	 -3.804671	 3.684544	 0.399681
H	 -4.904050	 2.315556	 0.221884

	symmetry c1
}
set optking {
	frozen_dihedral = ("
		6 3 2 4
	")
}

ee = optimize('scf')
oeprop('DIPOLE', 'QUADRUPOLE', 'MULLIKEN_CHARGES')
f=open( 'psi4out.xyz', 'w' )
f.write( "14  " )
f.write( str(ee) + "\n" )
f.write( MOL.save_string_xyz() )
f.close()
--------------------------------------------------------------------------

    Molecular point group: c1
  Charge       = 0
  Multiplicity = 1
  Basis Set: CC-PVTZ
  Basis Set:
  @DF-RHF Final Energy:  -248.21814528171618
    Total Energy =                       -248.2181452817160334
    Molecular point group: c1
  Basis Set: CC-PVTZ
  Basis Set:
  Basis Set: CC-PVTZ
  Basis Set:
  @DF-RHF Final Energy:  -248.21966043688218
    Total Energy =                       -248.2196604368820090
  Basis Set: CC-PVTZ
  Basis Set:
  Basis Set: CC-PVTZ
  Basis Set:
  @DF-RHF Final Energy:  -248.21984289240018
    Total Energy =                       -248.2198428924002656
  Basis Set: CC-PVTZ
  Basis Set:
  Charge       = 0
  Multiplicity = 1
  Basis Set: CC-PVTZ
  Basis Set:

    Orbital Energies (a.u.)
    -----------------------

    Doubly Occupied:

       1A    -20.548844     2A    -15.523809     3A    -11.269640
       4A    -11.263051     5A    -11.241343     6A     -1.384857
       7A     -1.175425     8A     -1.001992     9A     -0.907728
      10A     -0.821121    11A     -0.685512    12A     -0.669843
      13A     -0.654312    14A     -0.613259    15A     -0.583420
      16A     -0.578854    17A     -0.519457    18A     -0.500112
      19A     -0.470798    20A     -0.420135    21A     -0.380965

  @DF-RHF Final Energy:  -248.21984760439156

   => Energetics <=

    Nuclear Repulsion Energy =            194.0198902593291166
    One-Electron Energy =                -722.0505260497853897
    Two-Electron Energy =                 279.8107881860646557
    DFT Exchange-Correlation Energy =       0.0000000000000000
    Empirical Dispersion Energy =           0.0000000000000000
    PCM Polarization Energy =               0.0000000000000000
    EFP Energy =                            0.0000000000000000
    Total Energy =                       -248.2198476043915889
    Molecular point group: c1
  Basis Set: CC-PVTZ
  Basis Set:

  -Total Gradient:
     Atom            X                  Y                   Z
    ------   -----------------  -----------------  -----------------
       1        0.000060942089     0.000006519206     0.000028538270
       2        0.000933515535     0.000164225663     0.001536054263
       3        0.000809025802    -0.000753794826    -0.001104507035
       4       -0.000939222608    -0.000158135378    -0.001123672119
       5        0.000340403691     0.000089025247    -0.000230363416
       6       -0.001035245268     0.000685935846     0.000648262025
       7        0.000000909175    -0.000042557151    -0.000007635314
       8       -0.000124039583    -0.000013056292     0.000150371780
       9       -0.000055632438     0.000024991989     0.000001688754
      10        0.000018886134     0.000001265352     0.000124895781
      11        0.000021817162    -0.000044185959    -0.000031362192
      12       -0.000012324227     0.000014691405     0.000006465703
      13       -0.000001297538     0.000007697319    -0.000000734660
      14       -0.000017737925     0.000017377580     0.000001998162

  **** Optimization is complete! (in 4 steps) ****
    Final optimized geometry and variables:
    Molecular point group: c1

    Geometry (in Angstrom), charge = 0, multiplicity = 1:

    H           -0.191802503321    -2.097065102001    -0.280340796501
    N            0.746999932289    -1.918986819989     0.006451374043
    C            1.219358650447    -0.638450743799    -0.498419729012
    H            1.307123923021    -2.670572725550    -0.332694152835
    C            0.103820724426     0.374340447103    -0.642193445228
    H            1.951216627357    -0.233997918293     0.191726748570
    H            1.697443856677    -0.723029828737    -1.473142042108
    O           -0.470056191052     0.641108916898     0.595345439364
    H            0.509396001117     1.287784669142    -1.075583354665
    H           -0.652925504180    -0.002585028828    -1.332804242027
    C           -1.505780903457     1.564609452764     0.559428118620
    H           -1.869293990892     1.693608338827     1.568390173020
    H           -1.168933295909     2.528507210496     0.182834988733
    H           -2.326965841925     1.220741015155    -0.066518236312

  Mulliken Charges: (a.u.)
   Center  Symbol    Alpha    Beta     Spin     Total
       1     H     0.43305  0.43305  0.00000  0.13390
       2     N     3.68102  3.68102  0.00000 -0.36204
       3     C     3.01693  3.01693  0.00000 -0.03386
       4     H     0.43169  0.43169  0.00000  0.13661
       5     C     2.97029  2.97029  0.00000  0.05941
       6     H     0.46026  0.46026  0.00000  0.07949
       7     H     0.46918  0.46918  0.00000  0.06164
       8     O     4.16804  4.16804  0.00000 -0.33608
       9     H     0.46782  0.46782  0.00000  0.06437
      10     H     0.47832  0.47832  0.00000  0.04337
      11     C     3.03226  3.03226  0.00000 -0.06453
      12     H     0.44550  0.44550  0.00000  0.10899
      13     H     0.47261  0.47261  0.00000  0.05478
      14     H     0.47302  0.47302  0.00000  0.05396

   Total alpha = 21.00000, Total beta = 21.00000, Total charge = -0.00000
