  ==> Input File <==

--------------------------------------------------------------------------
set {
	reference rhf
	basis cc-pvtz
}

set_num_threads( 4 )
memory 2 gb

molecule MOL {
0 1

H	 -1.024821	 -0.546942	 1.316451
C	 -0.214332	 0.164388	 1.205659
N	 0.526300	 -0.128137	 0.000000
H	 0.432388	 0.062119	 2.067828
H	 -0.648934	 1.166110	 1.221296
C	 -0.247113	 0.037112	 -1.209233
H	 1.346317	 0.437156	 -0.040925
H	 -0.996493	 -0.743733	 -1.271440
H	 0.397975	 -0.057351	 -2.073512
H	 -0.763794	 0.997171	 -1.271673

	symmetry c1
}
set optking {
	frozen_dihedral = ("
		2 3 6 8
	")
}

ee = optimize('scf')
oeprop('DIPOLE', 'QUADRUPOLE', 'MULLIKEN_CHARGES')
f=open( 'psi4out.xyz', 'w' )
f.write( "10  " )
f.write( str(ee) + "\n" )
f.write( MOL.save_string_xyz() )
f.close()
--------------------------------------------------------------------------

    Molecular point group: c1
  Charge       = 0
  Multiplicity = 1
  Basis Set: CC-PVTZ
  Basis Set:
  @DF-RHF Final Energy:  -134.29297271143207
    Total Energy =                       -134.2929727114320713
    Molecular point group: c1
  Basis Set: CC-PVTZ
  Basis Set:
  Basis Set: CC-PVTZ
  Basis Set:
  @DF-RHF Final Energy:  -134.29298341449939
    Total Energy =                       -134.2929834144994174
  Basis Set: CC-PVTZ
  Basis Set:
  Charge       = 0
  Multiplicity = 1
  Basis Set: CC-PVTZ
  Basis Set:

    Orbital Energies (a.u.)
    -----------------------

    Doubly Occupied:

       1A    -15.532739     2A    -11.234293     3A    -11.234274
       4A     -1.201143     5A     -0.948416     6A     -0.854562
       7A     -0.662590     8A     -0.614036     9A     -0.592442
      10A     -0.539740    11A     -0.510013    12A     -0.506745
      13A     -0.364913

  @DF-RHF Final Energy:  -134.29298424126461

   => Energetics <=

    Nuclear Repulsion Energy =             84.7444853180988531
    One-Electron Energy =                -348.4831286374868000
    Two-Electron Energy =                 129.4456590781233842
    DFT Exchange-Correlation Energy =       0.0000000000000000
    Empirical Dispersion Energy =           0.0000000000000000
    PCM Polarization Energy =               0.0000000000000000
    EFP Energy =                            0.0000000000000000
    Total Energy =                       -134.2929842412645769
    Molecular point group: c1
  Basis Set: CC-PVTZ
  Basis Set:

  -Total Gradient:
     Atom            X                  Y                   Z
    ------   -----------------  -----------------  -----------------
       1       -0.000012374558     0.000000789378     0.000024714120
       2        0.000298897959     0.000731848337    -0.000087710618
       3       -0.000231510918    -0.001181739038    -0.000073657629
       4       -0.000010715610     0.000005936428     0.000012155086
       5       -0.000008885961     0.000006155284     0.000002910532
       6       -0.000659142815     0.001069776189     0.000691164498
       7       -0.000054872000    -0.000036062997    -0.000032673798
       8        0.000704381922    -0.000625764184    -0.000520770056
       9       -0.000024480182    -0.000004855198    -0.000007805925
      10       -0.000001297839     0.000033915801    -0.000008326210

  **** Optimization is complete! (in 3 steps) ****
    Final optimized geometry and variables:
    Molecular point group: c1

    Geometry (in Angstrom), charge = 0, multiplicity = 1:

    H           -1.037148942898    -0.590631685575     1.319104815106
    C           -0.226041577660     0.120187731796     1.208266633307
    N            0.514097858221    -0.170839485150     0.001784356750
    H            0.420765348476     0.016720129589     2.070225604324
    H           -0.660150962304     1.121987272836     1.224072249803
    C           -0.260964256573    -0.006002776178    -1.206898195944
    H            1.328958916967     0.401715661758    -0.039340510458
    H           -1.010631787067    -0.786553945983    -1.271910918522
    H            0.384589934940    -0.106272081899    -2.070315069991
    H           -0.770743186267     0.957157590821    -1.272922397201

  Mulliken Charges: (a.u.)
   Center  Symbol    Alpha    Beta     Spin     Total
       1     H     0.45708  0.45708  0.00000  0.08583
       2     C     3.08130  3.08130  0.00000 -0.16260
       3     N     3.62825  3.62825  0.00000 -0.25650
       4     H     0.45246  0.45246  0.00000  0.09508
       5     H     0.47459  0.47459  0.00000  0.05083
       6     C     3.08012  3.08012  0.00000 -0.16025
       7     H     0.44073  0.44073  0.00000  0.11853
       8     H     0.45653  0.45653  0.00000  0.08694
       9     H     0.45321  0.45321  0.00000  0.09358
      10     H     0.47572  0.47572  0.00000  0.04856

   Total alpha = 13.00000, Total beta = 13.00000, Total charge =  0.00000
