  ==> Input File <==

--------------------------------------------------------------------------
set {
	reference rhf
	basis 6-31G*
}

set_num_threads( 4 )
memory 2 gb

molecule MOL {
0 1

O	 1.846825	 1.296220	 0.000415
C	 1.705091	 0.115954	 0.001797
C	 0.381791	 -0.609817	 0.001258
O	 2.721346	 -0.737485	 -0.000216
C	 -0.823008	 0.326187	 0.001381
H	 0.371250	 -1.265087	 -0.865474
H	 0.370908	 -1.265746	 0.867490
C	 -2.149452	 -0.435131	 -0.000098
H	 -0.770201	 0.977095	 -0.865636
H	 -0.771220	 0.975655	 0.869608
C	 -3.368779	 0.488503	 -0.000883
H	 -2.193746	 -1.087250	 -0.871175
H	 -2.195311	 -1.087803	 0.870418
C	 -4.668177	 -0.238606	 0.342813
H	 -3.464194	 0.956630	 -0.978070
H	 -3.207884	 1.296312	 0.709537
H	 -4.874934	 -1.031140	 -0.370879
H	 -5.513574	 0.442338	 0.334379
H	 -4.616397	 -0.689181	 1.330038
C	 4.024888	 -0.184556	 -0.001949
H	 4.179030	 0.422472	 -0.882452
H	 4.701782	 -1.024608	 -0.003642
H	 4.181981	 0.421185	 0.878906

	symmetry c1
}
set optking {
	frozen_dihedral = ("
		15 11 8 12
	")
}

ee = optimize('scf')
oeprop('DIPOLE', 'QUADRUPOLE', 'MULLIKEN_CHARGES')
f=open( 'psi4out.xyz', 'w' )
f.write( "23  " )
f.write( str(ee) + "\n" )
f.write( MOL.save_string_xyz() )
f.close()
--------------------------------------------------------------------------

    Molecular point group: c1
  Charge       = 0
  Multiplicity = 1
  Basis Set: 6-31G*
  Basis Set:
  @DF-RHF Final Energy:  -422.97554759873515
    Total Energy =                       -422.9755475987352611
    Molecular point group: c1
  Basis Set: 6-31G*
  Basis Set:
  Basis Set: 6-31G*
  Basis Set:
  @DF-RHF Final Energy:  -422.97556247279988
    Total Energy =                       -422.9755624727993109
  Basis Set: 6-31G*
  Basis Set:
  Basis Set: 6-31G*
  Basis Set:
  @DF-RHF Final Energy:  -422.97541061557661
    Total Energy =                       -422.9754106155761519
  Basis Set: 6-31G*
  Basis Set:
  Basis Set: 6-31G*
  Basis Set:
  @DF-RHF Final Energy:  -422.97565666870372
    Total Energy =                       -422.9756566687037775
  Basis Set: 6-31G*
  Basis Set:
  Basis Set: 6-31G*
  Basis Set:
  @DF-RHF Final Energy:  -422.97566505590152
    Total Energy =                       -422.9756650559010041
  Basis Set: 6-31G*
  Basis Set:
  Charge       = 0
  Multiplicity = 1
  Basis Set: 6-31G*
  Basis Set:

    Orbital Energies (a.u.)
    -----------------------

    Doubly Occupied:

       1A    -20.603587     2A    -20.545388     3A    -11.372215
       4A    -11.280823     5A    -11.235453     6A    -11.219154
       7A    -11.217921     8A    -11.216500     9A    -11.209470
      10A     -1.469279    11A     -1.362725    12A     -1.093004
      13A     -1.043433    14A     -0.986943    15A     -0.931943
      16A     -0.843272    17A     -0.794833    18A     -0.767224
      19A     -0.696786    20A     -0.683824    21A     -0.671487
      22A     -0.651770    23A     -0.609829    24A     -0.599178
      25A     -0.572752    26A     -0.561045    27A     -0.554051
      28A     -0.523782    29A     -0.521534    30A     -0.506773
      31A     -0.485268    32A     -0.469018    33A     -0.466550
      34A     -0.460720    35A     -0.455589    36A     -0.435307

  @DF-RHF Final Energy:  -422.97566558072964

   => Energetics <=

    Nuclear Repulsion Energy =            452.1488422736521784
    One-Electron Energy =               -1472.0121489534285502
    Two-Electron Energy =                 596.8876410990470731
    DFT Exchange-Correlation Energy =       0.0000000000000000
    Empirical Dispersion Energy =           0.0000000000000000
    PCM Polarization Energy =               0.0000000000000000
    EFP Energy =                            0.0000000000000000
    Total Energy =                       -422.9756655807292418
    Molecular point group: c1
  Basis Set: 6-31G*
  Basis Set:

  -Total Gradient:
     Atom            X                  Y                   Z
    ------   -----------------  -----------------  -----------------
       1        0.000005143942    -0.000006919996    -0.000019152920
       2        0.000000245308    -0.000000365070     0.000057322706
       3        0.000003105936     0.000007091795     0.000014648107
       4       -0.000004214912     0.000007204871    -0.000015279424
       5        0.000005984964     0.000010677135    -0.000028268054
       6       -0.000012711317     0.000000691697    -0.000003186302
       7        0.000011103819    -0.000003790712    -0.000000626844
       8       -0.002045394224    -0.002648057090     0.001478127817
       9        0.000005211397     0.000001175031    -0.000006102272
      10        0.000001387554     0.000011600249     0.000000109244
      11        0.002179139406     0.002874558920     0.000726205529
      12        0.001351905941     0.001746714045    -0.001387927993
      13       -0.000000653420     0.000014613514    -0.000019032650
      14       -0.000009104392    -0.000003306429     0.000007741012
      15       -0.001481208177    -0.001997553554    -0.000810291761
      16        0.000003220716    -0.000004522997     0.000000030954
      17        0.000001763269    -0.000012073468    -0.000002976415
      18       -0.000007635208     0.000003165339    -0.000006497961
      19       -0.000013262696    -0.000000933047     0.000012065199
      20        0.000003202681    -0.000001732561     0.000008689625
      21       -0.000000679899     0.000000530458    -0.000002744921
      22        0.000002039868     0.000000706869    -0.000002073676
      23        0.000001409433     0.000000525001    -0.000000778998

  **** Optimization is complete! (in 6 steps) ****
    Final optimized geometry and variables:
    Molecular point group: c1

    Geometry (in Angstrom), charge = 0, multiplicity = 1:

    O            1.844951871408     1.291697933856    -0.031536588972
    C            1.703174818663     0.111496149296    -0.040446044635
    C            0.379854268665    -0.614287624943    -0.034568253606
    O            2.719338446862    -0.741913292208    -0.057450778847
    C           -0.825055801958     0.321348237442    -0.016255101987
    H            0.361670797054    -1.263188813648    -0.905946225082
    H            0.376866903274    -1.276722622322     0.826849032360
    C           -2.152433486667    -0.440449803473    -0.002070791095
    H           -0.783882661645     0.974910959878    -0.882253441729
    H           -0.762006698143     0.968412837020     0.852880749777
    C           -3.369286015027     0.488752156290    -0.029061165732
    H           -2.188756649491    -1.097641749393    -0.869254196028
    H           -2.196283347908    -1.077605788750     0.879243444861
    C           -4.679060012327    -0.241599795689     0.270567656355
    H           -3.444546010943     0.947311085026    -1.012156639344
    H           -3.232892334625     1.295112668421     0.687144616038
    H           -4.848322292499    -1.048903831758    -0.436746354719
    H           -5.527881251571     0.432579330422     0.211019897156
    H           -4.668652514341    -0.673609154926     1.267252433879
    C            4.022878275826    -0.188959699584    -0.064669075821
    H            4.170306615885     0.425267838471    -0.941317675544
    H            4.699725104243    -1.028994400304    -0.078545349910
    H            4.186794036301     0.409474271484     0.819936676593

  Mulliken Charges: (a.u.)
   Center  Symbol    Alpha    Beta     Spin     Total
       1     O     4.28607  4.28607  0.00000 -0.57215
       2     C     2.60490  2.60490  0.00000  0.79020
       3     C     3.20823  3.20823  0.00000 -0.41645
       4     O     4.30739  4.30739  0.00000 -0.61478
       5     C     3.15286  3.15286  0.00000 -0.30573
       6     H     0.40075  0.40075  0.00000  0.19851
       7     H     0.40071  0.40071  0.00000  0.19858
       8     C     3.15349  3.15349  0.00000 -0.30697
       9     H     0.41190  0.41190  0.00000  0.17619
      10     H     0.41168  0.41168  0.00000  0.17665
      11     C     3.15180  3.15180  0.00000 -0.30360
      12     H     0.42354  0.42354  0.00000  0.15292
      13     H     0.42360  0.42360  0.00000  0.15279
      14     C     3.23973  3.23973  0.00000 -0.47946
      15     H     0.42112  0.42112  0.00000  0.15776
      16     H     0.42056  0.42056  0.00000  0.15888
      17     H     0.42202  0.42202  0.00000  0.15596
      18     H     0.41879  0.41879  0.00000  0.16242
      19     H     0.42181  0.42181  0.00000  0.15637
      20     C     3.09244  3.09244  0.00000 -0.18487
      21     H     0.40908  0.40908  0.00000  0.18184
      22     H     0.40844  0.40844  0.00000  0.18312
      23     H     0.40909  0.40909  0.00000  0.18182

   Total alpha = 36.00000, Total beta = 36.00000, Total charge =  0.00000
