  ==> Input File <==

--------------------------------------------------------------------------
set {
	reference rhf
	basis cc-pvtz
}

set_num_threads( 4 )
memory 2 gb

molecule MOL {
0 1

H	 -3.162190	 0.493205	 -0.000107
C	 -2.363908	 -0.234727	 0.000005
O	 -1.158738	 0.454634	 -0.000087
H	 -2.464314	 -0.863616	 -0.882153
H	 -2.464327	 -0.863359	 0.882345
C	 -0.064145	 -0.297517	 0.419974
C	 1.181174	 0.564736	 0.374205
H	 0.058914	 -1.169667	 -0.222560
H	 -0.229660	 -0.665042	 1.432976
C	 2.428380	 -0.189425	 0.821496
H	 1.309776	 0.932345	 -0.637848
H	 1.023511	 1.432919	 1.004563
H	 2.618696	 -1.049563	 0.188227
H	 3.302026	 0.449287	 0.778944
H	 2.330643	 -0.545380	 1.841698

	symmetry c1
}
set optking {
	frozen_dihedral = ("
		6 3 2 4
	")
}

ee = optimize('scf')
oeprop('DIPOLE', 'QUADRUPOLE', 'MULLIKEN_CHARGES')
f=open( 'psi4out.xyz', 'w' )
f.write( "15  " )
f.write( str(ee) + "\n" )
f.write( MOL.save_string_xyz() )
f.close()
--------------------------------------------------------------------------

    Molecular point group: c1
  Charge       = 0
  Multiplicity = 1
  Basis Set: CC-PVTZ
  Basis Set:
  @DF-RHF Final Energy:  -232.22734162923254
    Total Energy =                       -232.2273416292325123
    Molecular point group: c1
  Basis Set: CC-PVTZ
  Basis Set:
  Basis Set: CC-PVTZ
  Basis Set:
  @DF-RHF Final Energy:  -232.22738255658547
    Total Energy =                       -232.2273825565853826
  Basis Set: CC-PVTZ
  Basis Set:
  Charge       = 0
  Multiplicity = 1
  Basis Set: CC-PVTZ
  Basis Set:

    Orbital Energies (a.u.)
    -----------------------

    Doubly Occupied:

       1A    -20.546782     2A    -11.264509     3A    -11.261588
       4A    -11.212638     5A    -11.210663     6A     -1.380699
       7A     -1.058395     8A     -0.956231     9A     -0.877243
      10A     -0.809428    11A     -0.676306    12A     -0.655323
      13A     -0.632091    14A     -0.608617    15A     -0.564706
      16A     -0.542327    17A     -0.503526    18A     -0.489823
      19A     -0.478657    20A     -0.462691    21A     -0.415517

  @DF-RHF Final Energy:  -232.22738685271744

   => Energetics <=

    Nuclear Repulsion Energy =            189.9168381404768127
    One-Electron Energy =                -691.0729328689615159
    Two-Electron Energy =                 268.9287078757672589
    DFT Exchange-Correlation Energy =       0.0000000000000000
    Empirical Dispersion Energy =           0.0000000000000000
    PCM Polarization Energy =               0.0000000000000000
    EFP Energy =                            0.0000000000000000
    Total Energy =                       -232.2273868527174727
    Molecular point group: c1
  Basis Set: CC-PVTZ
  Basis Set:

  -Total Gradient:
     Atom            X                  Y                   Z
    ------   -----------------  -----------------  -----------------
       1        0.000036883721    -0.000007187234     0.000001429332
       2        0.001190642570    -0.002116640915     0.002190378192
       3        0.000159543728    -0.000234893522    -0.002884717042
       4       -0.001048801953     0.001823187262    -0.001168445424
       5        0.000013182015     0.000017689743     0.000026372754
       6       -0.000286228377     0.000475400215     0.001910029270
       7       -0.000050865202     0.000029502224    -0.000033660682
       8       -0.000000393970     0.000012016241    -0.000018342358
       9        0.000007642656    -0.000002795278    -0.000004476061
      10       -0.000029938227    -0.000027677739    -0.000017026187
      11        0.000021468916     0.000014827622    -0.000006172052
      12       -0.000000550448     0.000010107621     0.000002626972
      13        0.000002999443    -0.000003849796     0.000002488885
      14       -0.000013430337     0.000009346019    -0.000004244276
      15       -0.000002154534     0.000000967534     0.000003758675

  **** Optimization is complete! (in 3 steps) ****
    Final optimized geometry and variables:
    Molecular point group: c1

    Geometry (in Angstrom), charge = 0, multiplicity = 1:

    H           -3.137464445136     0.448718718427    -0.332587800674
    C           -2.340554057503    -0.282018886291    -0.324144971039
    O           -1.132589129681     0.404691694337    -0.311050262775
    H           -2.438136839745    -0.897407239445    -1.215733430284
    H           -2.457507830320    -0.910701510241     0.554695688356
    C           -0.034562681092    -0.347799801774     0.100320351816
    C            1.208737875671     0.517025252327     0.048893051898
    H            0.088992028131    -1.219079797701    -0.543803959671
    H           -0.194756835814    -0.716400481215     1.113315984715
    C            2.458502182502    -0.233408072643     0.495519533198
    H            1.334730984958     0.882382963383    -0.964361670587
    H            1.050390709492     1.386617980571     0.677301771518
    H            2.649115693222    -1.095077146083    -0.135649395216
    H            3.330871801802     0.406913244066     0.449191072483
    H            2.363685116716    -0.586555548096     1.517039145512

  Mulliken Charges: (a.u.)
   Center  Symbol    Alpha    Beta     Spin     Total
       1     H     0.44882  0.44882  0.00000  0.10235
       2     C     3.03268  3.03268  0.00000 -0.06536
       3     O     4.17269  4.17269  0.00000 -0.34539
       4     H     0.46768  0.46768  0.00000  0.06463
       5     H     0.47401  0.47401  0.00000  0.05197
       6     C     2.95608  2.95608  0.00000  0.08784
       7     C     3.08062  3.08062  0.00000 -0.16123
       8     H     0.47693  0.47693  0.00000  0.04614
       9     H     0.47444  0.47444  0.00000  0.05112
      10     C     3.15581  3.15581  0.00000 -0.31162
      11     H     0.45101  0.45101  0.00000  0.09798
      12     H     0.45120  0.45120  0.00000  0.09759
      13     H     0.45582  0.45582  0.00000  0.08835
      14     H     0.44627  0.44627  0.00000  0.10745
      15     H     0.45591  0.45591  0.00000  0.08817

   Total alpha = 21.00000, Total beta = 21.00000, Total charge = -0.00000
