                              Psi4 1.0.54 Driver

  ==> Input File <==

--------------------------------------------------------------------------
set {
	reference rhf
	basis cc-pvtz
}

set_num_threads( 4 )
memory 2 gb

molecule MOL {
0 1

O	 3.219313	 0.959291	 -0.614106
C	 2.698710	 0.058177	 -0.050237
C	 1.246364	 -0.005813	 0.348416
O	 3.344101	 -1.038700	 0.312317
C	 0.453207	 1.232821	 -0.049003
H	 0.839270	 -0.907818	 -0.092281
H	 1.216683	 -0.160521	 1.422434
C	 -0.998367	 1.217982	 0.432195
H	 0.481498	 1.345443	 -1.127236
H	 0.951413	 2.105557	 0.354893
C	 -1.882951	 0.151251	 -0.211235
H	 -1.429490	 2.193659	 0.228843
H	 -1.019755	 1.099323	 1.513279
C	 -1.848179	 -1.180972	 0.532916
H	 -2.907629	 0.513803	 -0.249479
H	 -1.579690	 -0.015134	 -1.240742
C	 -2.723670	 -2.256173	 -0.104447
H	 -2.164420	 -1.025758	 1.561624
H	 -0.822123	 -1.538283	 0.581929
C	 -2.685080	 -3.583463	 0.645612
H	 -3.749284	 -1.900662	 -0.153924
H	 -2.407073	 -2.414505	 -1.131848
H	 -3.316216	 -4.323739	 0.167447
H	 -3.029941	 -3.465579	 1.667514
H	 -1.676974	 -3.982905	 0.682698
C	 4.720529	 -1.114346	 0.001449
H	 4.874321	 -1.055557	 -1.065852
H	 5.057824	 -2.067950	 0.373977
H	 5.264321	 -0.313596	 0.480350

	symmetry c1
}
set optking {
	frozen_dihedral = ("
		15 11 8 5
	")
}

ee,wfn = optimize('scf', return_wfn=True)
oeprop( wfn, 'DIPOLE', 'QUADRUPOLE', 'MULLIKEN_CHARGES')
f=open( 'psi4out.xyz', 'w' )
f.write( "29  " )
f.write( str(ee) + "\n" )
f.write( MOL.save_string_xyz() )
f.close()
--------------------------------------------------------------------------

    Molecular point group: c1
  Charge       = 0
  Multiplicity = 1
  Basis Set: CC-PVTZ
  Basis Set:
  @DF-RHF Final Energy:  -501.21807750876758
    Total Energy =                       -501.2180775087678057
    Molecular point group: c1
  Basis Set: CC-PVTZ
  Basis Set:
  Basis Set: CC-PVTZ
  Basis Set:
  @DF-RHF Final Energy:  -501.21977324740124
    Total Energy =                       -501.2197732474003260
  Basis Set: CC-PVTZ
  Basis Set:
  Basis Set: CC-PVTZ
  Basis Set:
  @DF-RHF Final Energy:  -501.22009623021722
    Total Energy =                       -501.2200962302167682
  Basis Set: CC-PVTZ
  Basis Set:
  Basis Set: CC-PVTZ
  Basis Set:
  @DF-RHF Final Energy:  -501.21886250580189
    Total Energy =                       -501.2188625058020079
  Basis Set: CC-PVTZ
  Basis Set:
  Basis Set: CC-PVTZ
  Basis Set:
  @DF-RHF Final Energy:  -501.22014772482339
    Total Energy =                       -501.2201477248231640
  Basis Set: CC-PVTZ
  Basis Set:
  Basis Set: CC-PVTZ
  Basis Set:
  @DF-RHF Final Energy:  -501.22016250161539
    Total Energy =                       -501.2201625016145954
  Basis Set: CC-PVTZ
  Basis Set:
  Charge       = 0
  Multiplicity = 1
  Basis Set: CC-PVTZ
  Basis Set:

    Orbital Energies (a.u.)
    -----------------------

    Doubly Occupied:

       1A    -20.596172     2A    -20.534103     3A    -11.364360
       4A    -11.278393     5A    -11.233056     6A    -11.217141
       7A    -11.215939     8A    -11.214496     9A    -11.214288
      10A    -11.212842    11A    -11.207886    12A     -1.472122
      13A     -1.365698    14A     -1.098079    15A     -1.067006
      16A     -1.020379    17A     -0.977578    18A     -0.932796
      19A     -0.863447    20A     -0.803897    21A     -0.785743
      22A     -0.765550    23A     -0.703054    24A     -0.685868
      25A     -0.675697    26A     -0.650613    27A     -0.628046
      28A     -0.606894    29A     -0.596598    30A     -0.576543
      31A     -0.567059    32A     -0.563233    33A     -0.537616
      34A     -0.527487    35A     -0.519215    36A     -0.503481
      37A     -0.500886    38A     -0.479929    39A     -0.472245
      40A     -0.463564    41A     -0.460656    42A     -0.456901
      43A     -0.439816    44A     -0.436890

  @DF-RHF Final Energy:  -501.22016367034371

   => Energetics <=

    Nuclear Repulsion Energy =            625.6925651742242280
    One-Electron Energy =               -1922.8389321817560358
    Two-Electron Energy =                 795.9262033371876441
    DFT Exchange-Correlation Energy =       0.0000000000000000
    Empirical Dispersion Energy =           0.0000000000000000
    PCM Polarization Energy =               0.0000000000000000
    EFP Energy =                            0.0000000000000000
    Total Energy =                       -501.2201636703441636
    Molecular point group: c1
  Basis Set: CC-PVTZ
  Basis Set:

  -Total Gradient:
     Atom            X                  Y                   Z
    ------   -----------------  -----------------  -----------------
       1        0.000060968306    -0.000036458034    -0.000001559971
       2       -0.000032618028     0.000001811933     0.000003037573
       3        0.000014443155     0.000009325606    -0.000004987269
       4        0.000008182878     0.000041115623    -0.000021000576
       5        0.000167572105    -0.000345585850     0.000501152686
       6       -0.000004762267    -0.000005210395    -0.000001102296
       7       -0.000017945957    -0.000007207013     0.000005510518
       8       -0.000279963541     0.000441319067    -0.000544250855
       9        0.000002516045    -0.000005571701     0.000005437251
      10        0.000018390239     0.000003608850     0.000004007207
      11        0.000208518188     0.000149814142    -0.000725717084
      12        0.000004703234     0.000019003794     0.000002600150
      13        0.000007900782     0.000000343166    -0.000001526542
      14       -0.000026957783    -0.000020508997    -0.000007106162
      15       -0.000136245131    -0.000238880833     0.000771390172
      16       -0.000001372751    -0.000021413727     0.000010036645
      17        0.000008865143     0.000000855370     0.000005289582
      18        0.000001153448    -0.000000571996    -0.000008782155
      19        0.000013873327    -0.000002087481     0.000001905236
      20        0.000003766048     0.000000721205    -0.000001265837
      21       -0.000001858218     0.000004120285     0.000001918823
      22        0.000002901294     0.000001983185    -0.000000970979
      23       -0.000001849719     0.000000416933    -0.000002148658
      24       -0.000000907240     0.000003237456     0.000004958369
      25        0.000002672900    -0.000002927826    -0.000000647958
      26       -0.000008591769    -0.000001531717     0.000008819401
      27       -0.000015213125     0.000006948600    -0.000012347714
      28        0.000011748323    -0.000012917366     0.000002321046
      29       -0.000009889879     0.000016247722     0.000005029395

  **** Optimization is complete! (in 7 steps) ****
    Final optimized geometry and variables:
    Molecular point group: c1

    Geometry (in Angstrom), charge = 0, multiplicity = 1:

    O            2.690914470687     1.558044949437    -0.836054052805
    C            2.218541969958     0.642202704724    -0.253870071019
    C            0.766450175555     0.496004745522     0.126895180996
    O            2.925638456762    -0.401607540030     0.148260717551
    C           -0.094077642175     1.667449494689    -0.328313585291
    H            0.429347865506    -0.443585377280    -0.292031501567
    H            0.730181144329     0.373438511758     1.204542095116
    C           -1.539333421761     1.666247870315     0.179279357505
    H           -0.094003300010     1.705183168023    -1.412429204736
    H            0.380731775241     2.584528239847    -0.001768165213
    C           -2.452605008336     0.534191863581    -0.317501107640
    H           -1.974303528727     2.610748401682    -0.129378582659
    H           -1.542607567359     1.680633103354     1.266788595304
    C           -2.466457779123    -0.733184158150     0.538804653431
    H           -3.470622049347     0.910795944234    -0.349231746079
    H           -2.194442216402     0.281969881334    -1.343298573499
    C           -3.424313514180    -1.797613724053     0.009855770462
    H           -2.755408857516    -0.467330634743     1.552943937308
    H           -1.472972628924    -1.161198546565     0.612298422043
    C           -3.462127901755    -3.053496481940     0.874305317323
    H           -4.424188328369    -1.378022036191    -0.059216071601
    H           -3.137726946995    -2.066836935562    -1.003219873679
    H           -4.150914886964    -3.787162136619     0.471498984668
    H           -3.779378137520    -2.822833453452     1.885904721145
    H           -2.483227648185    -3.517639698490     0.934382874357
    C            4.308889395077    -0.398326669612    -0.140849475520
    H            4.475496807010    -0.358427062920    -1.207111853441
    H            4.699672819187    -1.318324571982     0.262695845511
    H            4.793458734215     0.447870509873     0.323295295067

  Mulliken Charges: (a.u.)
   Center  Symbol    Alpha    Beta     Spin     Total
       1     O     4.19635  4.19635  0.00000 -0.39270
       2     C     2.80687  2.80687  0.00000  0.38627
       3     C     3.10735  3.10735  0.00000 -0.21469
       4     O     4.14702  4.14702  0.00000 -0.29404
       5     C     3.08730  3.08730  0.00000 -0.17461
       6     H     0.43797  0.43797  0.00000  0.12406
       7     H     0.43708  0.43708  0.00000  0.12584
       8     C     3.10983  3.10983  0.00000 -0.21966
       9     H     0.44721  0.44721  0.00000  0.10558
      10     H     0.43914  0.43914  0.00000  0.12172
      11     C     3.10230  3.10230  0.00000 -0.20460
      12     H     0.44084  0.44084  0.00000  0.11832
      13     H     0.45373  0.45373  0.00000  0.09255
      14     C     3.09018  3.09018  0.00000 -0.18036
      15     H     0.44585  0.44585  0.00000  0.10831
      16     H     0.45149  0.45149  0.00000  0.09702
      17     C     3.08548  3.08548  0.00000 -0.17097
      18     H     0.45348  0.45348  0.00000  0.09304
      19     H     0.45285  0.45285  0.00000  0.09431
      20     C     3.14960  3.14960  0.00000 -0.29920
      21     H     0.45303  0.45303  0.00000  0.09394
      22     H     0.45431  0.45431  0.00000  0.09139
      23     H     0.44796  0.44796  0.00000  0.10408
      24     H     0.45506  0.45506  0.00000  0.08988
      25     H     0.45537  0.45537  0.00000  0.08926
      26     C     3.03858  3.03858  0.00000 -0.07717
      27     H     0.45440  0.45440  0.00000  0.09119
      28     H     0.44524  0.44524  0.00000  0.10953
      29     H     0.45414  0.45414  0.00000  0.09172

   Total alpha = 44.00000, Total beta = 44.00000, Total charge = -0.00000

*** Psi4 exiting successfully. Buy a developer a beer!
