  ==> Input File <==

--------------------------------------------------------------------------
set {
	reference rhf
	basis cc-pvtz
}

set_num_threads( 4 )
memory 2 gb

molecule MOL {
0 1

H	 2.777711	 0.808408	 0.137153
N	 2.326826	 -0.066186	 0.000000
C	 0.934676	 -0.005420	 0.000000
H	 2.718145	 -0.556238	 -0.770546
C	 0.226436	 -0.001077	 -1.195129
C	 0.226436	 -0.001077	 1.195129
H	 0.759091	 -0.011439	 -2.128123
C	 -1.153391	 0.009141	 -1.189028
H	 0.759091	 -0.011439	 2.128123
C	 -1.153391	 0.009141	 1.189028
H	 -1.680905	 0.012964	 -2.124348
C	 -1.857876	 0.014675	 0.000000
H	 -1.680905	 0.012964	 2.124348
H	 -2.930222	 0.022904	 0.000000

	symmetry c1
}
set optking {
	frozen_dihedral = ("
		1 2 3 5
	")
}

ee = optimize('scf')
oeprop('DIPOLE', 'QUADRUPOLE', 'MULLIKEN_CHARGES')
f=open( 'psi4out.xyz', 'w' )
f.write( "14  " )
f.write( str(ee) + "\n" )
f.write( MOL.save_string_xyz() )
f.close()
--------------------------------------------------------------------------

    Molecular point group: c1
  Charge       = 0
  Multiplicity = 1
  Basis Set: CC-PVTZ
  Basis Set:
  @DF-RHF Final Energy:  -285.82775660503205
    Total Energy =                       -285.8277566050318228
    Molecular point group: c1
  Basis Set: CC-PVTZ
  Basis Set:
  Basis Set: CC-PVTZ
  Basis Set:
  @DF-RHF Final Energy:  -285.82928633624732
    Total Energy =                       -285.8292863362471508
  Basis Set: CC-PVTZ
  Basis Set:
  Basis Set: CC-PVTZ
  Basis Set:
  @DF-RHF Final Energy:  -285.82953121250284
    Total Energy =                       -285.8295312125026726
  Basis Set: CC-PVTZ
  Basis Set:
  Basis Set: CC-PVTZ
  Basis Set:
  @DF-RHF Final Energy:  -285.82955083302795
    Total Energy =                       -285.8295508330280654
  Basis Set: CC-PVTZ
  Basis Set:
  Basis Set: CC-PVTZ
  Basis Set:
  @DF-RHF Final Energy:  -285.82955272164116
    Total Energy =                       -285.8295527216409937
  Basis Set: CC-PVTZ
  Basis Set:
  Charge       = 0
  Multiplicity = 1
  Basis Set: CC-PVTZ
  Basis Set:

    Orbital Energies (a.u.)
    -----------------------

    Doubly Occupied:

       1A    -15.548264     2A    -11.263917     3A    -11.228564
       4A    -11.227463     5A    -11.222005     6A    -11.219982
       7A    -11.218282     8A     -1.216537     9A     -1.132159
      10A     -1.015617    11A     -0.989937    12A     -0.831995
      13A     -0.811722    14A     -0.706527    15A     -0.673342
      16A     -0.650227    17A     -0.618848    18A     -0.594598
      19A     -0.585160    20A     -0.514344    21A     -0.505069
      22A     -0.492861    23A     -0.432041    24A     -0.336795
      25A     -0.314706

  @DF-RHF Final Energy:  -285.82955266837439

   => Energetics <=

    Nuclear Repulsion Energy =            273.2424979423925606
    One-Electron Energy =                -927.4421822033376657
    Two-Electron Energy =                 368.3701315925707149
    DFT Exchange-Correlation Energy =       0.0000000000000000
    Empirical Dispersion Energy =           0.0000000000000000
    PCM Polarization Energy =               0.0000000000000000
    EFP Energy =                            0.0000000000000000
    Total Energy =                       -285.8295526683743901
    Molecular point group: c1
  Basis Set: CC-PVTZ
  Basis Set:

  -Total Gradient:
     Atom            X                  Y                   Z
    ------   -----------------  -----------------  -----------------
       1        0.000112633407     0.000590080508    -0.003251368598
       2       -0.000091096254     0.000719743070     0.004101726618
       3       -0.000135250276    -0.004128678564    -0.000751930556
       4       -0.000016940094     0.000001866904    -0.000009499237
       5        0.000034946848     0.002694058282    -0.000061724346
       6        0.000111620443     0.000124812664    -0.000034367904
       7       -0.000002949502     0.000001334506     0.000009634782
       8        0.000088192782     0.000033621088    -0.000038767221
       9       -0.000010832615    -0.000000556578    -0.000001944730
      10       -0.000077302248    -0.000022150298    -0.000059228251
      11       -0.000010214144    -0.000005660869    -0.000000973321
      12       -0.000010289496    -0.000010061171     0.000098972900
      13        0.000002526272    -0.000000892521     0.000007316688
      14        0.000004954877     0.000002482981    -0.000007846825

  **** Optimization is complete! (in 6 steps) ****
    Final optimized geometry and variables:
    Molecular point group: c1

    Geometry (in Angstrom), charge = 0, multiplicity = 1:

    H            2.733229930767     0.825694144320     0.208685418556
    N            2.346100104883    -0.078432163468     0.037103641640
    C            0.927714433995    -0.039410301847    -0.001955901216
    H            2.724145012857    -0.404535639685    -0.825825050525
    C            0.220711767278    -0.019569696479    -1.193402051309
    C            0.226772929035    -0.005044923944     1.193831605548
    H            0.752353297520    -0.031799866572    -2.127063790954
    C           -1.161711938075     0.011074091339    -1.188908764129
    H            0.772792362078    -0.032433976879     2.117052802602
    C           -1.152487265336     0.048654575914     1.194765171624
    H           -1.693870066548     0.015774866835    -2.121346218955
    C           -1.855844068973     0.051237537169     0.003805504894
    H           -1.680224492396     0.075769289171     2.129310621271
    H           -2.928232268766     0.082373329580     0.006786441239

  Mulliken Charges: (a.u.)
   Center  Symbol    Alpha    Beta     Spin     Total
       1     H     0.42082  0.42082  0.00000  0.15835
       2     N     3.69274  3.69274  0.00000 -0.38548
       3     C     2.89086  2.89086  0.00000  0.21828
       4     H     0.42502  0.42502  0.00000  0.14996
       5     C     3.11439  3.11439  0.00000 -0.22878
       6     C     3.10933  3.10933  0.00000 -0.21865
       7     H     0.43069  0.43069  0.00000  0.13862
       8     C     3.06888  3.06888  0.00000 -0.13777
       9     H     0.42118  0.42118  0.00000  0.15764
      10     C     3.06327  3.06327  0.00000 -0.12653
      11     H     0.42386  0.42386  0.00000  0.15229
      12     C     3.09124  3.09124  0.00000 -0.18248
      13     H     0.42359  0.42359  0.00000  0.15283
      14     H     0.42414  0.42414  0.00000  0.15173

   Total alpha = 25.00000, Total beta = 25.00000, Total charge =  0.00000
