  ==> Input File <==

--------------------------------------------------------------------------
set {
	reference rhf
	basis 6-31G*
}

set_num_threads( 4 )
memory 2 gb

molecule MOL {
0 1

O	 2.299947	 0.854643	 0.738316
C	 2.701189	 0.057885	 -0.047330
C	 2.554750	 0.149588	 -1.546975
O	 3.347903	 -1.046386	 0.304773
C	 1.826434	 1.412195	 -2.002493
H	 3.551930	 0.080524	 -1.968939
H	 2.030789	 -0.744355	 -1.875648
C	 1.577035	 1.469662	 -3.513450
H	 2.391706	 2.284918	 -1.689537
H	 0.875923	 1.469388	 -1.483186
C	 2.839866	 1.584067	 -4.372100
H	 0.939614	 2.326924	 -3.717216
H	 1.009615	 0.592432	 -3.820875
C	 2.533343	 1.748747	 -5.862041
H	 3.429069	 2.433658	 -4.030262
H	 3.465405	 0.704543	 -4.237522
C	 3.787917	 1.858822	 -6.730407
H	 1.918147	 2.635186	 -6.006933
H	 1.935068	 0.904839	 -6.202021
C	 3.473072	 2.026877	 -8.216452
H	 4.387416	 2.701027	 -6.391385
H	 4.402021	 0.971685	 -6.590251
H	 4.381924	 2.101967	 -8.805483
H	 2.888695	 2.925266	 -8.394201
H	 2.902892	 1.182859	 -8.594344
C	 4.728119	 -1.109107	 -0.004993
H	 4.882018	 -1.033965	 -1.071845
H	 5.068212	 -2.067527	 0.355250
H	 5.265056	 -0.311663	 0.488280

	symmetry c1
}
set optking {
	frozen_dihedral = ("
		1 2 4 26
	")
}

ee = optimize('scf')
oeprop('DIPOLE', 'QUADRUPOLE', 'MULLIKEN_CHARGES')
f=open( 'psi4out.xyz', 'w' )
f.write( "29  " )
f.write( str(ee) + "\n" )
f.write( MOL.save_string_xyz() )
f.close()
--------------------------------------------------------------------------

    Molecular point group: c1
  Charge       = 0
  Multiplicity = 1
  Basis Set: 6-31G*
  Basis Set:
  @DF-RHF Final Energy:  -501.01962561768858
    Total Energy =                       -501.0196256176884617
    Molecular point group: c1
  Basis Set: 6-31G*
  Basis Set:
  Basis Set: 6-31G*
  Basis Set:
  @DF-RHF Final Energy:  -501.01868191816641
    Total Energy =                       -501.0186819181662941
  Basis Set: 6-31G*
  Basis Set:
  Basis Set: 6-31G*
  Basis Set:
  @DF-RHF Final Energy:  -501.02163808034015
    Total Energy =                       -501.0216380803396987
  Basis Set: 6-31G*
  Basis Set:
  Basis Set: 6-31G*
  Basis Set:
  @DF-RHF Final Energy:  -501.02285628528750
    Total Energy =                       -501.0228562852876166
  Basis Set: 6-31G*
  Basis Set:
  @DF-RHF Final Energy:  -501.02291860841274
    Total Energy =                       -501.0229186084126241
  Basis Set: 6-31G*
  Basis Set:
  @DF-RHF Final Energy:  -501.02293000772079
    Total Energy =                       -501.0229300077210155
  Basis Set: 6-31G*
  Basis Set:
  Basis Set: 6-31G*
  Basis Set:
  @DF-RHF Final Energy:  -501.02291375240031
    Total Energy =                       -501.0229137524008820
  Basis Set: 6-31G*
  Basis Set:
  Basis Set: 6-31G*
  Basis Set:
  @DF-RHF Final Energy:  -501.02293350497359
    Total Energy =                       -501.0229335049731390
  Basis Set: 6-31G*
  Basis Set:
  Charge       = 0
  Multiplicity = 1
  Basis Set: 6-31G*
  Basis Set:

    Orbital Energies (a.u.)
    -----------------------

    Doubly Occupied:

       1A    -20.586615     2A    -20.554932     3A    -11.374574
       4A    -11.293569     5A    -11.240336     6A    -11.222569
       7A    -11.220695     8A    -11.219666     9A    -11.218707
      10A    -11.217375    11A    -11.211339    12A     -1.458133
      13A     -1.367173    14A     -1.100780    15A     -1.067937
      16A     -1.015220    17A     -0.977368    18A     -0.941164
      19A     -0.868418    20A     -0.803813    21A     -0.794043
      22A     -0.762299    23A     -0.700299    24A     -0.677579
      25A     -0.673750    26A     -0.653548    27A     -0.632587
      28A     -0.617132    29A     -0.596801    30A     -0.590373
      31A     -0.570236    32A     -0.549401    33A     -0.547731
      34A     -0.531473    35A     -0.521675    36A     -0.505880
      37A     -0.488493    38A     -0.481455    39A     -0.474754
      40A     -0.465618    41A     -0.465324    42A     -0.454707
      43A     -0.441632    44A     -0.432933

  @DF-RHF Final Energy:  -501.02293379756293

   => Energetics <=

    Nuclear Repulsion Energy =            613.1928127531814425
    One-Electron Energy =               -1897.2512822563610371
    Two-Electron Energy =                 783.0355357056171215
    DFT Exchange-Correlation Energy =       0.0000000000000000
    Empirical Dispersion Energy =           0.0000000000000000
    PCM Polarization Energy =               0.0000000000000000
    EFP Energy =                            0.0000000000000000
    Total Energy =                       -501.0229337975624730
    Molecular point group: c1
  Basis Set: 6-31G*
  Basis Set:

  -Total Gradient:
     Atom            X                  Y                   Z
    ------   -----------------  -----------------  -----------------
       1        0.000494782114     0.000216059796     0.000001762257
       2       -0.000693089122    -0.000193628370     0.000187668623
       3        0.000045715897     0.000039815623    -0.000003380346
       4        0.000138147308    -0.000240840112    -0.000595075627
       5       -0.000016031512    -0.000024127590     0.000000253541
       6       -0.000020302747    -0.000021967224    -0.000010690156
       7       -0.000013444282    -0.000013162452     0.000005525877
       8        0.000003661536     0.000027731271    -0.000000945729
       9       -0.000001052570     0.000013373195     0.000002727030
      10        0.000008524106    -0.000002980744    -0.000003043111
      11       -0.000001224842    -0.000010958032     0.000002581516
      12       -0.000001811920     0.000002487226    -0.000007546557
      13        0.000003207817     0.000002429250     0.000000850664
      14       -0.000000970664    -0.000007582064    -0.000001505377
      15        0.000000864586    -0.000005210492     0.000001161610
      16       -0.000000673123    -0.000006153423     0.000005327593
      17       -0.000000775230     0.000006921598     0.000000771892
      18       -0.000004844738    -0.000004160835     0.000000392975
      19        0.000004374176    -0.000003890167    -0.000000798532
      20       -0.000000207241     0.000005074040     0.000000563094
      21        0.000004088032    -0.000000214936     0.000001328896
      22       -0.000003811990    -0.000000276065    -0.000001387925
      23        0.000000068802     0.000000613876     0.000000059607
      24       -0.000000336130     0.000000251523    -0.000001258337
      25        0.000000319625     0.000000011318     0.000001360801
      26        0.000034133159     0.000231031172     0.000415699232
      27        0.000000099851    -0.000001434015     0.000000578371
      28        0.000005048571    -0.000006648768     0.000000645803
      29        0.000015540532    -0.000002564601    -0.000003627685

  **** Optimization is complete! (in 9 steps) ****
    Final optimized geometry and variables:
    Molecular point group: c1

    Geometry (in Angstrom), charge = 0, multiplicity = 1:

    O           -0.557550632973     0.083396663648     3.510814839325
    C           -0.154567451122    -0.724123269430     2.748737123775
    C           -0.305858894232    -0.634979808398     1.246264440304
    O            0.432698377503    -1.859249747521     3.191792140679
    C           -1.067855841475     0.607310820593     0.788442699773
    H            0.684157468484    -0.673142079618     0.802601484409
    H           -0.808842554798    -1.544108981941     0.925068601512
    C           -1.325737024628     0.653171456321    -0.721491969759
    H           -0.523720296455     1.495065237657     1.096379055457
    H           -2.016775716179     0.641236639210     1.312125407657
    C           -0.071264070562     0.797613202632    -1.587938638923
    H           -1.985760147241     1.493318995419    -0.924072635284
    H           -1.872482833658    -0.238870901290    -1.023373981433
    C           -0.390825641391     0.955545363726    -3.075896562547
    H            0.500182025759     1.660626111631    -1.249501022822
    H            0.575724414563    -0.067381664624    -1.458556835695
    C            0.855225892405     1.096108098879    -3.952085231000
    H           -1.027803525698     1.827117586479    -3.216010254421
    H           -0.971041997456     0.097877518323    -3.412549754680
    C            0.526903222861     1.258531500986    -5.435827378520
    H            1.436995713004     1.951744748608    -3.615791474716
    H            1.490884891500     0.223340700197    -3.817252163699
    H            1.429937882489     1.355397326055    -6.030543101471
    H           -0.079231363903     2.143325725094    -5.608509280527
    H           -0.025998172954     0.401988341184    -5.811115264474
    C            1.819959604321    -2.022177101662     2.999107983047
    H            2.069200577162    -2.144181532022     1.951298531108
    H            2.097192493043    -2.917701976476     3.532898879800
    H            2.366496073084    -1.180446381672     3.408585921356

  Mulliken Charges: (a.u.)
   Center  Symbol    Alpha    Beta     Spin     Total
       1     O     4.25093  4.25093  0.00000 -0.50185
       2     C     2.61165  2.61165  0.00000  0.77669
       3     C     3.22032  3.22032  0.00000 -0.44064
       4     O     4.31398  4.31398  0.00000 -0.62797
       5     C     3.15306  3.15306  0.00000 -0.30613
       6     H     0.40571  0.40571  0.00000  0.18859
       7     H     0.39952  0.39952  0.00000  0.20096
       8     C     3.15674  3.15674  0.00000 -0.31349
       9     H     0.41296  0.41296  0.00000  0.17408
      10     H     0.40697  0.40697  0.00000  0.18606
      11     C     3.15496  3.15496  0.00000 -0.30993
      12     H     0.41736  0.41736  0.00000  0.16528
      13     H     0.42326  0.42326  0.00000  0.15347
      14     C     3.15031  3.15031  0.00000 -0.30062
      15     H     0.42259  0.42259  0.00000  0.15481
      16     H     0.42560  0.42560  0.00000  0.14880
      17     C     3.15148  3.15148  0.00000 -0.30297
      18     H     0.42267  0.42267  0.00000  0.15466
      19     H     0.42362  0.42362  0.00000  0.15276
      20     C     3.23942  3.23942  0.00000 -0.47883
      21     H     0.42274  0.42274  0.00000  0.15452
      22     H     0.42406  0.42406  0.00000  0.15188
      23     H     0.41903  0.41903  0.00000  0.16194
      24     H     0.42115  0.42115  0.00000  0.15769
      25     H     0.42161  0.42161  0.00000  0.15677
      26     C     3.09271  3.09271  0.00000 -0.18543
      27     H     0.42121  0.42121  0.00000  0.15758
      28     H     0.40096  0.40096  0.00000  0.19808
      29     H     0.41339  0.41339  0.00000  0.17322

   Total alpha = 44.00000, Total beta = 44.00000, Total charge = -0.00000
