                              Psi4 1.0.54 Driver

  ==> Input File <==

--------------------------------------------------------------------------
set {
	reference rhf
	basis cc-pvtz
}

set_num_threads( 4 )
memory 2 gb

molecule MOL {
0 1

O	 1.193569	 1.340228	 0.202460
C	 1.055638	 0.228897	 0.585837
C	 -0.235526	 -0.548364	 0.570812
O	 2.044389	 -0.491405	 1.089736
C	 -1.413045	 0.229353	 0.001137
H	 -0.055695	 -1.458030	 0.007207
H	 -0.430467	 -0.866173	 1.589859
C	 -2.702562	 -0.586401	 0.000228
H	 -1.178109	 0.546036	 -1.008842
H	 -1.553699	 1.138065	 0.575596
C	 -3.953810	 0.284959	 -0.000782
H	 -2.717793	 -1.238567	 -0.869075
H	 -2.719108	 -1.238472	 0.869576
H	 -3.983727	 0.924403	 -0.876454
H	 -4.852989	 -0.320147	 -0.001515
H	 -3.985140	 0.924399	 0.874841
C	 3.317948	 0.116768	 1.163849
H	 3.665273	 0.395497	 0.180029
H	 3.975189	 -0.620541	 1.595448
H	 3.284313	 0.997275	 1.788188

	symmetry c1
}
set optking {
	frozen_dihedral = ("
		9 5 8 12
	")
}

ee,wfn = optimize('scf', return_wfn=True)
oeprop( wfn, 'DIPOLE', 'QUADRUPOLE', 'MULLIKEN_CHARGES')
f=open( 'psi4out.xyz', 'w' )
f.write( "20  " )
f.write( str(ee) + "\n" )
f.write( MOL.save_string_xyz() )
f.close()
--------------------------------------------------------------------------

    Molecular point group: c1
  Charge       = 0
  Multiplicity = 1
  Basis Set: CC-PVTZ
  Basis Set:
  @DF-RHF Final Energy:  -384.08122869347517
    Total Energy =                       -384.0812286934751683
    Molecular point group: c1
  Basis Set: CC-PVTZ
  Basis Set:
  Basis Set: CC-PVTZ
  Basis Set:
  @DF-RHF Final Energy:  -384.08145335365447
    Total Energy =                       -384.0814533536547515
  Basis Set: CC-PVTZ
  Basis Set:
  Basis Set: CC-PVTZ
  Basis Set:
  @DF-RHF Final Energy:  -384.08116603907854
    Total Energy =                       -384.0811660390792213
  Basis Set: CC-PVTZ
  Basis Set:
  Basis Set: CC-PVTZ
  Basis Set:
  @DF-RHF Final Energy:  -384.08150201938770
    Total Energy =                       -384.0815020193875853
  Basis Set: CC-PVTZ
  Basis Set:
  Basis Set: CC-PVTZ
  Basis Set:
  @DF-RHF Final Energy:  -384.08150547154816
    Total Energy =                       -384.0815054715484393
  Basis Set: CC-PVTZ
  Basis Set:
  Charge       = 0
  Multiplicity = 1
  Basis Set: CC-PVTZ
  Basis Set:

    Orbital Energies (a.u.)
    -----------------------

    Doubly Occupied:

       1A    -20.596324     2A    -20.534191     3A    -11.364516
       4A    -11.278506     5A    -11.233843     6A    -11.218468
       7A    -11.217432     8A    -11.208721     9A     -1.472231
      10A     -1.365799    11A     -1.089309    12A     -1.025166
      13A     -0.969859    14A     -0.885888    15A     -0.804524
      16A     -0.769388    17A     -0.699636    18A     -0.686600
      19A     -0.675823    20A     -0.645920    21A     -0.598751
      22A     -0.595474    23A     -0.579108    24A     -0.542982
      25A     -0.534537    26A     -0.523802    27A     -0.503755
      28A     -0.476994    29A     -0.474717    30A     -0.471270
      31A     -0.459273    32A     -0.439764

  @DF-RHF Final Energy:  -384.08150556954331

   => Energetics <=

    Nuclear Repulsion Energy =            381.7107060030525645
    One-Electron Energy =               -1279.6992763141299747
    Two-Electron Energy =                 513.9070647415345547
    DFT Exchange-Correlation Energy =       0.0000000000000000
    Empirical Dispersion Energy =           0.0000000000000000
    PCM Polarization Energy =               0.0000000000000000
    EFP Energy =                            0.0000000000000000
    Total Energy =                       -384.0815055695428555
    Molecular point group: c1
  Basis Set: CC-PVTZ
  Basis Set:

  -Total Gradient:
     Atom            X                  Y                   Z
    ------   -----------------  -----------------  -----------------
       1        0.000030151426    -0.000020835076     0.000019965804
       2       -0.000023149102     0.000007764045    -0.000000926466
       3       -0.000007768032    -0.000004165363    -0.000020915211
       4        0.000009978880     0.000023400474    -0.000017021813
       5       -0.003099161147     0.004831515466     0.000170667821
       6       -0.000005928533    -0.000002251031     0.000010677455
       7        0.000001040972     0.000000921789     0.000009569209
       8        0.002729999711    -0.004341377505     0.002503640630
       9        0.002150277087    -0.003364587014    -0.000529928108
      10        0.000003555054    -0.000006567511    -0.000001317123
      11        0.000002279307    -0.000001256126     0.000009705699
      12       -0.001794742303     0.002859051672    -0.002151971335
      13        0.000006159155     0.000013390800    -0.000005999828
      14        0.000000057031     0.000001058042    -0.000000229933
      15       -0.000003266585    -0.000000025166     0.000001906686
      16       -0.000003881290     0.000005441044    -0.000001978651
      17       -0.000000372227    -0.000006641559     0.000004919277
      18       -0.000002108802     0.000000200880    -0.000002056258
      19        0.000008614416     0.000003221227     0.000000568086
      20       -0.000001735012     0.000001740913     0.000000724056

  **** Optimization is complete! (in 6 steps) ****
    Final optimized geometry and variables:
    Molecular point group: c1

    Geometry (in Angstrom), charge = 0, multiplicity = 1:

    O            1.260449766176     1.244244881354    -0.272361192908
    C            1.112120492337     0.139318164247     0.125550891822
    C           -0.192116244242    -0.615760392934     0.146482400354
    O            2.099338190442    -0.592133631170     0.616348028197
    C           -1.371557325920     0.178826900250    -0.400743545381
    H           -0.041888885556    -1.531657309605    -0.416258472173
    H           -0.367485203623    -0.924932591880     1.171529754497
    C           -2.660544887639    -0.646443751790    -0.424080722176
    H           -1.123318254105     0.496109252667    -1.406403559682
    H           -1.504943262005     1.075433943259     0.192333756734
    C           -3.912575835964     0.224292441439    -0.494337880836
    H           -2.652905924562    -1.295685987264    -1.294549007824
    H           -2.716149419291    -1.284072046198     0.452863162994
    H           -3.888214828561     0.871785428350    -1.364550790927
    H           -4.809269180705    -0.381434958641    -0.557699802938
    H           -3.999343123626     0.856117199570     0.383008888752
    C            3.383930317486    -0.004533474535     0.657483722692
    H            3.715150752687     0.258161891027    -0.336264344316
    H            4.037960692062    -0.748077881484     1.083249474248
    H            3.377842572306     0.882891659231     1.272858091824

  Mulliken Charges: (a.u.)
   Center  Symbol    Alpha    Beta     Spin     Total
       1     O     4.19684  4.19684  0.00000 -0.39367
       2     C     2.80686  2.80686  0.00000  0.38629
       3     C     3.10067  3.10067  0.00000 -0.20133
       4     O     4.14668  4.14668  0.00000 -0.29336
       5     C     3.08218  3.08218  0.00000 -0.16436
       6     H     0.43981  0.43981  0.00000  0.12038
       7     H     0.44041  0.44041  0.00000  0.11918
       8     C     3.08727  3.08727  0.00000 -0.17453
       9     H     0.44569  0.44569  0.00000  0.10863
      10     H     0.44730  0.44730  0.00000  0.10539
      11     C     3.14848  3.14848  0.00000 -0.29695
      12     H     0.45313  0.45313  0.00000  0.09375
      13     H     0.45602  0.45602  0.00000  0.08796
      14     H     0.45308  0.45308  0.00000  0.09383
      15     H     0.44900  0.44900  0.00000  0.10200
      16     H     0.45487  0.45487  0.00000  0.09025
      17     C     3.03766  3.03766  0.00000 -0.07533
      18     H     0.45435  0.45435  0.00000  0.09130
      19     H     0.44534  0.44534  0.00000  0.10932
      20     H     0.45438  0.45438  0.00000  0.09125

   Total alpha = 32.00000, Total beta = 32.00000, Total charge = -0.00000

*** Psi4 exiting successfully. Buy a developer a beer!
