                              Psi4 1.0.54 Driver

  ==> Input File <==

--------------------------------------------------------------------------
set {
	reference rhf
	basis cc-pvtz
}

set_num_threads( 4 )
memory 2 gb

molecule MOL {
0 1

H	 -0.809092	 -2.470949	 0.493842
N	 -0.060784	 -1.820607	 0.381307
C	 -0.561396	 -0.500007	 0.035200
H	 0.533262	 -2.176511	 -0.338261
C	 0.575129	 0.507849	 -0.048832
H	 -1.253437	 -0.192905	 0.812365
H	 -1.119171	 -0.488828	 -0.902444
C	 1.951750	 -0.141983	 0.035101
H	 0.478254	 1.061643	 -0.975981
H	 0.467676	 1.231891	 0.755499
H	 2.101550	 -0.848142	 -0.774949
H	 2.738260	 0.600794	 -0.026526
H	 2.078939	 -0.679792	 0.968824

	symmetry c1
}
set optking {
	frozen_dihedral = ("
		6 3 5 9
	")
}

ee,wfn = optimize('scf', return_wfn=True)
oeprop( wfn, 'DIPOLE', 'QUADRUPOLE', 'MULLIKEN_CHARGES')
f=open( 'psi4out.xyz', 'w' )
f.write( "13  " )
f.write( str(ee) + "\n" )
f.write( MOL.save_string_xyz() )
f.close()
--------------------------------------------------------------------------

    Molecular point group: c1
  Charge       = 0
  Multiplicity = 1
  Basis Set: CC-PVTZ
  Basis Set:
  @DF-RHF Final Energy:  -173.34029100541918
    Total Energy =                       -173.3402910054192603
    Molecular point group: c1
  Basis Set: CC-PVTZ
  Basis Set:
  Basis Set: CC-PVTZ
  Basis Set:
  @DF-RHF Final Energy:  -172.79721753725039
    Total Energy =                       -172.7972175372503330
  Basis Set: CC-PVTZ
  Basis Set:
  Basis Set: CC-PVTZ
  Basis Set:
  @DF-RHF Final Energy:  -172.97062285962426
    Total Energy =                       -172.9706228596243136
  Basis Set: CC-PVTZ
  Basis Set:
  Basis Set: CC-PVTZ
  Basis Set:
  @DF-RHF Final Energy:  -173.22957494040821
    Total Energy =                       -173.2295749404084404
  Basis Set: CC-PVTZ
  Basis Set:
  @DF-RHF Final Energy:  -173.10213639496629
    Total Energy =                       -173.1021363949661520
  @DF-RHF Final Energy:  -173.28183011389035
    Total Energy =                       -173.2818301138902370
  @DF-RHF Final Energy:  -173.33580025498074
    Total Energy =                       -173.3358002549808532
  @DF-RHF Final Energy:  -173.34052259742947
    Total Energy =                       -173.3405225974294126
  Basis Set: CC-PVTZ
  Basis Set:
  @DF-RHF Final Energy:  -173.34289272238314
    Total Energy =                       -173.3428927223833682
  Basis Set: CC-PVTZ
  Basis Set:
  Basis Set: CC-PVTZ
  Basis Set:
  @DF-RHF Final Energy:  -173.34322912964618
    Total Energy =                       -173.3432291296460619
  Basis Set: CC-PVTZ
  Basis Set:
  Basis Set: CC-PVTZ
  Basis Set:
  @DF-RHF Final Energy:  -173.34324370833664
    Total Energy =                       -173.3432437083365301
  Basis Set: CC-PVTZ
  Basis Set:
  Charge       = 0
  Multiplicity = 1
  Basis Set: CC-PVTZ
  Basis Set:

    Orbital Energies (a.u.)
    -----------------------

    Doubly Occupied:

       1A    -15.526256     2A    -11.239317     3A    -11.210730
       4A    -11.200881     5A     -1.176909     6A     -1.026426
       7A     -0.907201     8A     -0.785470     9A     -0.669750
      10A     -0.635833    11A     -0.586431    12A     -0.560958
      13A     -0.540122    14A     -0.486579    15A     -0.476708
      16A     -0.461861    17A     -0.380713

  @DF-RHF Final Energy:  -173.34324434059212

   => Energetics <=

    Nuclear Repulsion Energy =            133.9655283024887069
    One-Electron Energy =                -498.8732577515341973
    Two-Electron Energy =                 191.5644851084532547
    DFT Exchange-Correlation Energy =       0.0000000000000000
    Empirical Dispersion Energy =           0.0000000000000000
    PCM Polarization Energy =               0.0000000000000000
    EFP Energy =                            0.0000000000000000
    Total Energy =                       -173.3432443405922641
    Molecular point group: c1
  Basis Set: CC-PVTZ
  Basis Set:

  -Total Gradient:
     Atom            X                  Y                   Z
    ------   -----------------  -----------------  -----------------
       1       -0.000018904954    -0.000009075826     0.000062824130
       2        0.000041739167    -0.000016393124    -0.000072829053
       3       -0.003078832321     0.000626576529    -0.001421385679
       4       -0.000005363744     0.000064243556     0.000009610673
       5        0.000101206051     0.003132144294     0.001190919863
       6        0.002513484504    -0.001032723915     0.001049883619
       7        0.000075949239     0.000004776935    -0.000006913103
       8       -0.000053653599    -0.000026143064    -0.000005148632
       9        0.000399673304    -0.002729581030    -0.000863147276
      10       -0.000014250266    -0.000038754569     0.000022690518
      11        0.000029752204     0.000041850500    -0.000004972906
      12        0.000013537621     0.000013909400     0.000013082173
      13       -0.000004337206    -0.000030829682     0.000025385671

  **** Optimization is complete! (in 12 steps) ****
    Final optimized geometry and variables:
    Molecular point group: c1

    Geometry (in Angstrom), charge = 0, multiplicity = 1:

    H           -0.605610773877    -1.075627064720     2.082871859347
    N           -0.169472967202    -0.869910994423     1.209408407212
    C           -0.809790454144     0.280683986426     0.583987970631
    H           -0.250774132414    -1.687395949522     0.643309142985
    C           -0.057319153842     0.807975883163    -0.663079444837
    H           -0.821237112304     1.059130556215     1.336315340728
    H           -1.845686302644     0.080399240305     0.317964106479
    C            1.057698186167    -0.088172056055    -1.200614837679
    H           -0.775942167393     0.953385149374    -1.462578228738
    H            0.363058370838     1.781945762433    -0.441580975583
    H            0.681019151696    -1.056361059032    -1.514254117209
    H            1.513742616046     0.375051382293    -2.068375538395
    H            1.826841567906    -0.256316954432    -0.460371795835

  Mulliken Charges: (a.u.)
   Center  Symbol    Alpha    Beta     Spin     Total
       1     H     0.42921  0.42921  0.00000  0.14158
       2     N     3.68799  3.68799  0.00000 -0.37598
       3     C     3.03342  3.03342  0.00000 -0.06685
       4     H     0.42931  0.42931  0.00000  0.14138
       5     C     3.08477  3.08477  0.00000 -0.16955
       6     H     0.45664  0.45664  0.00000  0.08671
       7     H     0.46278  0.46278  0.00000  0.07444
       8     C     3.15480  3.15480  0.00000 -0.30961
       9     H     0.45447  0.45447  0.00000  0.09106
      10     H     0.45347  0.45347  0.00000  0.09306
      11     H     0.46018  0.46018  0.00000  0.07964
      12     H     0.44961  0.44961  0.00000  0.10078
      13     H     0.44333  0.44333  0.00000  0.11334

   Total alpha = 17.00000, Total beta = 17.00000, Total charge = -0.00000

*** Psi4 exiting successfully. Buy a developer a beer!
