  ==> Input File <==

--------------------------------------------------------------------------
set {
	reference rhf
	basis 6-31G*
}

set_num_threads( 4 )
memory 2 gb

molecule MOL {
0 1

O	 0.391030	 1.298905	 0.000133
C	 0.503002	 0.111612	 0.000005
C	 -0.702327	 -0.811998	 -0.000075
C	 1.863306	 -0.554493	 0.000030
C	 -0.506368	 -2.071646	 0.834813
H	 -1.559488	 -0.242397	 0.354328
H	 -0.929328	 -1.064664	 -1.034191
H	 -0.304856	 -1.823786	 1.869790
H	 -1.396152	 -2.691477	 0.798056
H	 0.330890	 -2.653343	 0.468960
H	 1.974395	 -1.189404	 -0.874166
H	 2.638695	 0.198920	 -0.000196
H	 1.974487	 -1.188655	 0.874727

	symmetry c1
}
set optking {
	frozen_dihedral = ("
		6 3 2 1
	")
}

ee = optimize('scf')
oeprop('DIPOLE', 'QUADRUPOLE', 'MULLIKEN_CHARGES')
f=open( 'psi4out.xyz', 'w' )
f.write( "13  " )
f.write( str(ee) + "\n" )
f.write( MOL.save_string_xyz() )
f.close()
--------------------------------------------------------------------------

    Molecular point group: c1
  Charge       = 0
  Multiplicity = 1
  Basis Set: 6-31G*
  Basis Set:
  @DF-RHF Final Energy:  -230.99307971780911
    Total Energy =                       -230.9930797178087687
    Molecular point group: c1
  Basis Set: 6-31G*
  Basis Set:
  Basis Set: 6-31G*
  Basis Set:
  @DF-RHF Final Energy:  -230.99300413857924
    Total Energy =                       -230.9930041385790958
  Basis Set: 6-31G*
  Basis Set:
  Basis Set: 6-31G*
  Basis Set:
  @DF-RHF Final Energy:  -230.99336985697229
    Total Energy =                       -230.9933698569723219
  Basis Set: 6-31G*
  Basis Set:
  Basis Set: 6-31G*
  Basis Set:
  @DF-RHF Final Energy:  -230.99453772552124
    Total Energy =                       -230.9945377255211270
  Basis Set: 6-31G*
  Basis Set:
  Basis Set: 6-31G*
  Basis Set:
  @DF-RHF Final Energy:  -230.99458498681142
    Total Energy =                       -230.9945849868114465
  Basis Set: 6-31G*
  Basis Set:
  Basis Set: 6-31G*
  Basis Set:
  @DF-RHF Final Energy:  -230.99459048994947
    Total Energy =                       -230.9945904899497009
  Basis Set: 6-31G*
  Basis Set:
  Charge       = 0
  Multiplicity = 1
  Basis Set: 6-31G*
  Basis Set:

    Orbital Energies (a.u.)
    -----------------------

    Doubly Occupied:

       1A    -20.548405     2A    -11.326104     3A    -11.234122
       4A    -11.229663     5A    -11.228642     6A     -1.394285
       7A     -1.067984     8A     -0.993651     9A     -0.890064
      10A     -0.732364    11A     -0.652880    12A     -0.646086
      13A     -0.620345    14A     -0.588106    15A     -0.558151
      16A     -0.543860    17A     -0.528898    18A     -0.508705
      19A     -0.479283    20A     -0.399922

  @DF-RHF Final Energy:  -230.99459124212871

   => Energetics <=

    Nuclear Repulsion Energy =            176.7939033699383913
    One-Electron Energy =                -663.2339456242764300
    Two-Electron Energy =                 255.4454510122095030
    DFT Exchange-Correlation Energy =       0.0000000000000000
    Empirical Dispersion Energy =           0.0000000000000000
    PCM Polarization Energy =               0.0000000000000000
    EFP Energy =                            0.0000000000000000
    Total Energy =                       -230.9945912421285357
    Molecular point group: c1
  Basis Set: 6-31G*
  Basis Set:

  -Total Gradient:
     Atom            X                  Y                   Z
    ------   -----------------  -----------------  -----------------
       1       -0.000011124310     0.000021214685    -0.001266980380
       2        0.000060587075    -0.000097027912     0.001995910089
       3       -0.000319547199     0.000431870945    -0.001917469494
       4        0.000001758509     0.000019447133     0.000034171076
       5        0.000010735875     0.000017948829    -0.000002820047
       6        0.000247246994    -0.000351254657     0.001172394124
       7        0.000003118456    -0.000001793341     0.000001562913
       8        0.000003298773    -0.000004283430     0.000006896083
       9        0.000000808914     0.000006436100    -0.000005841210
      10        0.000010697280    -0.000007608247     0.000002336368
      11       -0.000007086817    -0.000001621882    -0.000010320490
      12       -0.000001943956    -0.000010553444    -0.000004023588
      13        0.000001450407    -0.000022774782    -0.000005815445

  **** Optimization is complete! (in 7 steps) ****
    Final optimized geometry and variables:
    Molecular point group: c1

    Geometry (in Angstrom), charge = 0, multiplicity = 1:

    O            0.062001141068     1.707335207363    -0.145946476333
    C            0.202622737390     0.522443977065    -0.152643299574
    C           -1.007043321212    -0.398787360253    -0.173193067021
    C            1.582860897308    -0.099156272377    -0.196834988108
    C           -0.875061728926    -1.688307618550     0.641487073156
    H           -1.849919461531     0.184763993270     0.175795005696
    H           -1.196499916736    -0.644598192450    -1.216874731268
    H           -0.665943940565    -1.477278313017     1.685774049730
    H           -1.802142680085    -2.249145041532     0.600436625319
    H           -0.087355943103    -2.331677361938     0.265034522968
    H            1.651586014683    -0.836530930502    -0.991138336172
    H            2.317757727025     0.677684778554    -0.354471577584
    H            1.798969739256    -0.609199480298     0.737002526919

  Mulliken Charges: (a.u.)
   Center  Symbol    Alpha    Beta     Spin     Total
       1     O     4.26158  4.26158  0.00000 -0.52316
       2     C     2.73341  2.73341  0.00000  0.53317
       3     C     3.20476  3.20476  0.00000 -0.40953
       4     C     3.29223  3.29223  0.00000 -0.58445
       5     C     3.25090  3.25090  0.00000 -0.50181
       6     H     0.39790  0.39790  0.00000  0.20420
       7     H     0.40611  0.40611  0.00000  0.18779
       8     H     0.41462  0.41462  0.00000  0.17076
       9     H     0.41066  0.41066  0.00000  0.17868
      10     H     0.41677  0.41677  0.00000  0.16645
      11     H     0.41032  0.41032  0.00000  0.17935
      12     H     0.39553  0.39553  0.00000  0.20893
      13     H     0.40520  0.40520  0.00000  0.18961

   Total alpha = 20.00000, Total beta = 20.00000, Total charge =  0.00000
