  ==> Input File <==

--------------------------------------------------------------------------
set {
	reference rhf
	basis 6-31G*
}

set_num_threads( 4 )
memory 2 gb

molecule MOL {
0 1

O	 0.749854	 1.307668	 -0.000040
C	 0.576249	 0.131685	 -0.000108
C	 -0.766779	 -0.556801	 -0.000461
O	 1.568443	 -0.749345	 -0.000005
C	 -1.945214	 0.412366	 0.000161
H	 -0.796911	 -1.211249	 -0.867467
H	 -0.796854	 -1.212390	 0.865687
C	 -3.287791	 -0.317055	 0.000105
H	 -1.876087	 1.060580	 -0.866812
H	 -1.875822	 1.059691	 0.867761
H	 -3.394745	 -0.949193	 -0.877058
H	 -4.111778	 0.388953	 0.000015
H	 -3.394954	 -0.949187	 0.877259
C	 1.903690	 -1.339860	 -1.242627
H	 1.060173	 -1.881667	 -1.645698
H	 2.718999	 -2.015934	 -1.037542
H	 2.212394	 -0.584823	 -1.951239

	symmetry c1
}
set optking {
	frozen_dihedral = ("
		14 4 2 1
	")
}

ee = optimize('scf')
oeprop('DIPOLE', 'QUADRUPOLE', 'MULLIKEN_CHARGES')
f=open( 'psi4out.xyz', 'w' )
f.write( "17  " )
f.write( str(ee) + "\n" )
f.write( MOL.save_string_xyz() )
f.close()
--------------------------------------------------------------------------

    Molecular point group: c1
  Charge       = 0
  Multiplicity = 1
  Basis Set: 6-31G*
  Basis Set:
  @DF-RHF Final Energy:  -344.88377717813148
    Total Energy =                       -344.8837771781313677
    Molecular point group: c1
  Basis Set: 6-31G*
  Basis Set:
  Basis Set: 6-31G*
  Basis Set:
  @DF-RHF Final Energy:  -344.88213836339156
    Total Energy =                       -344.8821383633915616
  Basis Set: 6-31G*
  Basis Set:
  Basis Set: 6-31G*
  Basis Set:
  @DF-RHF Final Energy:  -344.88496911173161
    Total Energy =                       -344.8849691117316638
  Basis Set: 6-31G*
  Basis Set:
  Basis Set: 6-31G*
  Basis Set:
  @DF-RHF Final Energy:  -344.88588115743147
    Total Energy =                       -344.8858811574315837
  Basis Set: 6-31G*
  Basis Set:
  Basis Set: 6-31G*
  Basis Set:
  @DF-RHF Final Energy:  -344.88591338430876
    Total Energy =                       -344.8859133843089921
  Basis Set: 6-31G*
  Basis Set:
  Basis Set: 6-31G*
  Basis Set:
  @DF-RHF Final Energy:  -344.88591901901503
    Total Energy =                       -344.8859190190149775
  Basis Set: 6-31G*
  Basis Set:
  Charge       = 0
  Multiplicity = 1
  Basis Set: 6-31G*
  Basis Set:

    Orbital Energies (a.u.)
    -----------------------

    Doubly Occupied:

       1A    -20.586259     2A    -20.557386     3A    -11.375592
       4A    -11.293245     5A    -11.241134     6A    -11.225348
       7A    -11.217538     8A     -1.459027     9A     -1.368143
      10A     -1.081544    11A     -0.990521    12A     -0.955315
      13A     -0.835253    14A     -0.765787    15A     -0.699600
      16A     -0.678676    17A     -0.674210    18A     -0.636336
      19A     -0.617897    20A     -0.579000    21A     -0.566454
      22A     -0.542194    23A     -0.518576    24A     -0.494463
      25A     -0.490876    26A     -0.482040    27A     -0.454612
      28A     -0.435543

  @DF-RHF Final Energy:  -344.88591968504073

   => Energetics <=

    Nuclear Repulsion Energy =            312.5162906856735958
    One-Electron Energy =               -1089.1592859208076334
    Two-Electron Energy =                 431.7570755500931909
    DFT Exchange-Correlation Energy =       0.0000000000000000
    Empirical Dispersion Energy =           0.0000000000000000
    PCM Polarization Energy =               0.0000000000000000
    EFP Energy =                            0.0000000000000000
    Total Energy =                       -344.8859196850409035
    Molecular point group: c1
  Basis Set: 6-31G*
  Basis Set:

  -Total Gradient:
     Atom            X                  Y                   Z
    ------   -----------------  -----------------  -----------------
       1       -0.000034901942    -0.000083261166     0.001589844317
       2       -0.000358002272    -0.000351709958    -0.002270589215
       3        0.000003900012    -0.000001906602     0.000028685259
       4        0.001255909720     0.001407436751     0.000494348186
       5       -0.000002993371    -0.000007571573     0.000006869998
       6       -0.000012540625     0.000008515768    -0.000019547639
       7       -0.000001847293    -0.000018739026    -0.000022910651
       8        0.000002949909     0.000000212309     0.000001837082
       9        0.000000252249    -0.000000144309     0.000000752085
      10       -0.000002649621     0.000003024740     0.000002647767
      11        0.000000371947    -0.000000455605     0.000001273255
      12       -0.000000656489     0.000000208518    -0.000001227760
      13        0.000000230577     0.000002211105    -0.000000660856
      14       -0.000854545026    -0.000945801910     0.000184849236
      15       -0.000002124962    -0.000001406225     0.000013916388
      16        0.000003215831    -0.000005730260     0.000007055464
      17        0.000003431352    -0.000004882557    -0.000017142915

  **** Optimization is complete! (in 7 steps) ****
    Final optimized geometry and variables:
    Molecular point group: c1

    Geometry (in Angstrom), charge = 0, multiplicity = 1:

    O            0.892881495404     1.435338635940     0.226380744047
    C            0.707385194379     0.270198122408     0.170031075346
    C           -0.654098298945    -0.385047968771     0.185951025837
    O            1.740075878809    -0.605521406298     0.173050469613
    C           -1.814335769320     0.605979102750     0.184509197501
    H           -0.723338992263    -1.060701380188    -0.663005430502
    H           -0.682548535930    -1.021516050727     1.067233666694
    C           -3.170927493451    -0.096047392296     0.219507629043
    H           -1.746541181208     1.235878716902    -0.696458293324
    H           -1.717338509953     1.268188235387     1.037588869447
    H           -3.305552810999    -0.742474980408    -0.643468497853
    H           -3.980400516598     0.626415131992     0.219033642398
    H           -3.276131428246    -0.708793664684     1.110425404558
    C            2.147205337267    -1.142561495976    -1.066040167380
    H            1.361325177453    -1.735032879195    -1.521612916026
    H            2.993855718470    -1.778631998683    -0.860322988696
    H            2.447518438778    -0.353020826960    -1.744696066858

  Mulliken Charges: (a.u.)
   Center  Symbol    Alpha    Beta     Spin     Total
       1     O     4.25028  4.25028  0.00000 -0.50056
       2     C     2.61444  2.61444  0.00000  0.77112
       3     C     3.21352  3.21352  0.00000 -0.42704
       4     O     4.31486  4.31486  0.00000 -0.62973
       5     C     3.15182  3.15182  0.00000 -0.30365
       6     H     0.40847  0.40847  0.00000  0.18306
       7     H     0.39814  0.39814  0.00000  0.20373
       8     C     3.24280  3.24280  0.00000 -0.48560
       9     H     0.41249  0.41249  0.00000  0.17503
      10     H     0.40803  0.40803  0.00000  0.18394
      11     H     0.42231  0.42231  0.00000  0.15539
      12     H     0.41434  0.41434  0.00000  0.17132
      13     H     0.42055  0.42055  0.00000  0.15891
      14     C     3.09268  3.09268  0.00000 -0.18537
      15     H     0.42249  0.42249  0.00000  0.15502
      16     H     0.40169  0.40169  0.00000  0.19662
      17     H     0.41108  0.41108  0.00000  0.17783

   Total alpha = 28.00000, Total beta = 28.00000, Total charge = -0.00000
