  ==> Input File <==

--------------------------------------------------------------------------
set {
	reference rhf
	basis cc-pvtz
}

set_num_threads( 4 )
memory 2 gb

molecule MOL {
0 1

H	 -2.408652	 -0.002798	 0.740003
N	 -1.851927	 0.161443	 -0.071573
C	 -0.561396	 -0.500007	 0.035200
H	 -1.739785	 1.150121	 -0.156879
C	 0.575129	 0.507849	 -0.048832
H	 -0.478089	 -1.200753	 -0.788956
H	 -0.456191	 -1.081816	 0.952176
C	 1.951750	 -0.141983	 0.035101
H	 0.478254	 1.061643	 -0.975981
H	 0.467676	 1.231891	 0.755499
H	 2.101550	 -0.848142	 -0.774949
H	 2.738260	 0.600794	 -0.026526
H	 2.078939	 -0.679792	 0.968824

	symmetry c1
}
set optking {
	frozen_dihedral = ("
		1 2 3 6
	")
}

ee = optimize('scf')
oeprop('DIPOLE', 'QUADRUPOLE', 'MULLIKEN_CHARGES')
f=open( 'psi4out.xyz', 'w' )
f.write( "13  " )
f.write( str(ee) + "\n" )
f.write( MOL.save_string_xyz() )
f.close()
--------------------------------------------------------------------------

    Molecular point group: c1
  Charge       = 0
  Multiplicity = 1
  Basis Set: CC-PVTZ
  Basis Set:
  @DF-RHF Final Energy:  -173.34803506594838
    Total Energy =                       -173.3480350659481815
    Molecular point group: c1
  Basis Set: CC-PVTZ
  Basis Set:
  Basis Set: CC-PVTZ
  Basis Set:
  @DF-RHF Final Energy:  -173.34871445295514
    Total Energy =                       -173.3487144529552211
  Basis Set: CC-PVTZ
  Basis Set:
  Basis Set: CC-PVTZ
  Basis Set:
  @DF-RHF Final Energy:  -173.34882391682919
    Total Energy =                       -173.3488239168292466
  Basis Set: CC-PVTZ
  Basis Set:
  Basis Set: CC-PVTZ
  Basis Set:
  @DF-RHF Final Energy:  -173.34883336906810
    Total Energy =                       -173.3488333690680463
  Basis Set: CC-PVTZ
  Basis Set:
  Charge       = 0
  Multiplicity = 1
  Basis Set: CC-PVTZ
  Basis Set:

    Orbital Energies (a.u.)
    -----------------------

    Doubly Occupied:

       1A    -15.523198     2A    -11.238164     3A    -11.216307
       4A    -11.210113     5A     -1.175217     6A     -1.038872
       7A     -0.900569     8A     -0.807586     9A     -0.665064
      10A     -0.625170    11A     -0.606431    12A     -0.555141
      13A     -0.545081    14A     -0.499992    15A     -0.483615
      16A     -0.471083    17A     -0.377260

  @DF-RHF Final Energy:  -173.34883529315709

   => Energetics <=

    Nuclear Repulsion Energy =            131.9160258333889146
    One-Electron Energy =                -494.6520007120909099
    Two-Electron Energy =                 189.3871395855449009
    DFT Exchange-Correlation Energy =       0.0000000000000000
    Empirical Dispersion Energy =           0.0000000000000000
    PCM Polarization Energy =               0.0000000000000000
    EFP Energy =                            0.0000000000000000
    Total Energy =                       -173.3488352931570944
    Molecular point group: c1
  Basis Set: CC-PVTZ
  Basis Set:

  -Total Gradient:
     Atom            X                  Y                   Z
    ------   -----------------  -----------------  -----------------
       1       -0.000218807100    -0.000551770185    -0.000229005763
       2        0.000053644827     0.000650039825     0.000308158187
       3        0.000426420545     0.000349164904    -0.000408624193
       4        0.000009365640     0.000019084701    -0.000014803029
       5       -0.000142658434    -0.000054153529     0.000033823866
       6       -0.000242044900    -0.000357094099     0.000343913820
       7        0.000055121157    -0.000017065739    -0.000008278800
       8        0.000046820877    -0.000025451292    -0.000024607762
       9       -0.000002482754    -0.000005536567     0.000013958644
      10       -0.000017031367    -0.000011327751    -0.000029018909
      11       -0.000007294039     0.000001568636     0.000019527532
      12        0.000037891253    -0.000004960210     0.000004494240
      13        0.000001054294     0.000007501306    -0.000009537833

  **** Optimization is complete! (in 5 steps) ****
    Final optimized geometry and variables:
    Molecular point group: c1

    Geometry (in Angstrom), charge = 0, multiplicity = 1:

    H           -2.436992073807    -0.017249051662     0.738648349078
    N           -1.881072293562     0.127279605538    -0.073976380788
    C           -0.566046646226    -0.495998003645     0.040310337737
    H           -1.815954338312     1.109084280521    -0.230243436962
    C            0.582043206113     0.502428162535    -0.027896742446
    H           -0.445837750299    -1.226709899337    -0.754377349482
    H           -0.499403895914    -1.048984741815     0.972613175394
    C            1.952752215247    -0.163290311216     0.018093824290
    H            0.490936988331     1.078783421700    -0.945253634087
    H            0.488294873425     1.208265044535     0.793002644356
    H            2.081186060698    -0.852183217738    -0.809667549141
    H            2.746865774165     0.571848433686    -0.037684549605
    H            2.085627301779    -0.723614730210     0.937569478159

  Mulliken Charges: (a.u.)
   Center  Symbol    Alpha    Beta     Spin     Total
       1     H     0.42684  0.42684  0.00000  0.14632
       2     N     3.69768  3.69768  0.00000 -0.39535
       3     C     3.01326  3.01326  0.00000 -0.02653
       4     H     0.42794  0.42794  0.00000  0.14411
       5     C     3.08596  3.08596  0.00000 -0.17191
       6     H     0.46348  0.46348  0.00000  0.07305
       7     H     0.46371  0.46371  0.00000  0.07258
       8     C     3.15251  3.15251  0.00000 -0.30501
       9     H     0.45452  0.45452  0.00000  0.09096
      10     H     0.45681  0.45681  0.00000  0.08637
      11     H     0.45383  0.45383  0.00000  0.09235
      12     H     0.44794  0.44794  0.00000  0.10412
      13     H     0.45552  0.45552  0.00000  0.08895

   Total alpha = 17.00000, Total beta = 17.00000, Total charge = -0.00000
