  ==> Input File <==

--------------------------------------------------------------------------
set {
	reference rhf
	basis cc-pvtz
}

set_num_threads( 4 )
memory 2 gb

molecule MOL {
0 1

H	 2.042947	 -1.203092	 -0.973992
C	 1.243678	 -0.508953	 -1.171915
O	 0.462329	 -0.453336	 -0.000137
H	 0.661779	 -0.866743	 -2.011914
H	 1.664600	 0.460663	 -1.406239
C	 -0.590565	 0.341382	 0.000062
O	 -1.693898	 -0.053880	 0.000252
H	 -0.340426	 1.403822	 0.000200

	symmetry c1
}
set optking {
	frozen_dihedral = ("
		2 3 6 7
	")
}

ee = optimize('scf')
oeprop('DIPOLE', 'QUADRUPOLE', 'MULLIKEN_CHARGES')
f=open( 'psi4out.xyz', 'w' )
f.write( "8  " )
f.write( str(ee) + "\n" )
f.write( MOL.save_string_xyz() )
f.close()
--------------------------------------------------------------------------

    Molecular point group: c1
  Charge       = 0
  Multiplicity = 1
  Basis Set: CC-PVTZ
  Basis Set:
  @DF-RHF Final Energy:  -227.86017320208916
    Total Energy =                       -227.8601732020892143
    Molecular point group: c1
  Basis Set: CC-PVTZ
  Basis Set:
  Basis Set: CC-PVTZ
  Basis Set:
  @DF-RHF Final Energy:  -227.86056375324515
    Total Energy =                       -227.8605637532452306
  Basis Set: CC-PVTZ
  Basis Set:
  Basis Set: CC-PVTZ
  Basis Set:
  @DF-RHF Final Energy:  -227.86061969577338
    Total Energy =                       -227.8606196957734937
  Basis Set: CC-PVTZ
  Basis Set:
  Basis Set: CC-PVTZ
  Basis Set:
  @DF-RHF Final Energy:  -227.86046796746771
    Total Energy =                       -227.8604679674677982
  Basis Set: CC-PVTZ
  Basis Set:
  Basis Set: CC-PVTZ
  Basis Set:
  @DF-RHF Final Energy:  -227.86063539856593
    Total Energy =                       -227.8606353985659325
  Basis Set: CC-PVTZ
  Basis Set:
  Charge       = 0
  Multiplicity = 1
  Basis Set: CC-PVTZ
  Basis Set:

    Orbital Energies (a.u.)
    -----------------------

    Doubly Occupied:

       1A    -20.593734     2A    -20.561634     3A    -11.376421
       4A    -11.299276     5A     -1.474568     6A     -1.387182
       7A     -0.986972     8A     -0.840637     9A     -0.740479
      10A     -0.691051    11A     -0.673243    12A     -0.625759
      13A     -0.566988    14A     -0.518278    15A     -0.476222
      16A     -0.461068

  @DF-RHF Final Energy:  -227.86063575325318

   => Energetics <=

    Nuclear Repulsion Energy =            121.8516881647443171
    One-Electron Energy =                -552.8776233796327233
    Two-Electron Energy =                 203.1652994616353851
    DFT Exchange-Correlation Energy =       0.0000000000000000
    Empirical Dispersion Energy =           0.0000000000000000
    PCM Polarization Energy =               0.0000000000000000
    EFP Energy =                            0.0000000000000000
    Total Energy =                       -227.8606357532530353
    Molecular point group: c1
  Basis Set: CC-PVTZ
  Basis Set:

  -Total Gradient:
     Atom            X                  Y                   Z
    ------   -----------------  -----------------  -----------------
       1       -0.000012086488     0.000012707395     0.000027921452
       2       -0.001986856085    -0.002379421714    -0.001327106162
       3        0.002924014898     0.003572452454    -0.000249212642
       4        0.000000914705     0.000003392069    -0.000001324975
       5        0.000012943620     0.000005244740    -0.000004436183
       6       -0.001049434844    -0.001386964596     0.005954097957
       7        0.000114958456     0.000182397048    -0.004388105140
       8       -0.000004454263    -0.000009807396    -0.000011834309

  **** Optimization is complete! (in 6 steps) ****
    Final optimized geometry and variables:
    Molecular point group: c1

    Geometry (in Angstrom), charge = 0, multiplicity = 1:

    H            2.228429642738    -0.965923032955    -0.645231221363
    C            1.372454922563    -0.344874012646    -0.849899741291
    O            0.583296773339    -0.337847598603     0.319847950142
    H            0.812315326646    -0.756813982062    -1.679063224204
    H            1.710266356111     0.655534353715    -1.101267429124
    C           -0.446906824803     0.511989418143     0.320546578362
    O           -1.568214137672     0.181582673207     0.269878392122
    H           -0.140000655176     1.557425922327     0.369094293275

  Mulliken Charges: (a.u.)
   Center  Symbol    Alpha    Beta     Spin     Total
       1     H     0.44281  0.44281  0.00000  0.11439
       2     C     3.02400  3.02400  0.00000 -0.04800
       3     O     4.14677  4.14677  0.00000 -0.29353
       4     H     0.45567  0.45567  0.00000  0.08865
       5     H     0.46725  0.46725  0.00000  0.06550
       6     C     2.83220  2.83220  0.00000  0.33560
       7     O     4.16139  4.16139  0.00000 -0.32278
       8     H     0.46991  0.46991  0.00000  0.06018

   Total alpha = 16.00000, Total beta = 16.00000, Total charge =  0.00000
