  ==> Input File <==

--------------------------------------------------------------------------
set {
	reference rhf
	basis cc-pvtz
}

set_num_threads( 4 )
memory 2 gb

molecule MOL {
0 1

H	 -3.034039	 -0.667848	 0.004703
O	 -2.240597	 -1.171748	 0.000934
C	 -1.159675	 -0.364500	 0.000370
C	 -0.807461	 0.400137	 -1.093106
C	 -0.395603	 -0.325981	 1.156555
H	 -1.397217	 0.370293	 -1.991080
C	 0.318086	 1.202404	 -1.017352
H	 -0.695435	 -0.934225	 1.987865
C	 0.725115	 0.476391	 1.231182
H	 0.597015	 1.796461	 -1.867098
C	 1.081285	 1.245059	 0.127425
C	 1.542620	 0.536404	 2.496776
H	 1.952715	 1.870662	 0.168563
H	 2.602659	 0.513733	 2.276260
H	 1.315594	 -0.293278	 3.152392
H	 1.340667	 1.454051	 3.038794

	symmetry c1
}
set optking {
	frozen_dihedral = ("
		5 3 2 1
	")
}

ee = optimize('scf')
oeprop('DIPOLE', 'QUADRUPOLE', 'MULLIKEN_CHARGES')
f=open( 'psi4out.xyz', 'w' )
f.write( "16  " )
f.write( str(ee) + "\n" )
f.write( MOL.save_string_xyz() )
f.close()
--------------------------------------------------------------------------

    Molecular point group: c1
  Charge       = 0
  Multiplicity = 1
  Basis Set: CC-PVTZ
  Basis Set:
  @DF-RHF Final Energy:  -344.71608572068078
    Total Energy =                       -344.7160857206809510
    Molecular point group: c1
  Basis Set: CC-PVTZ
  Basis Set:
  Basis Set: CC-PVTZ
  Basis Set:
  @DF-RHF Final Energy:  -344.71657889829123
    Total Energy =                       -344.7165788982910613
  Basis Set: CC-PVTZ
  Basis Set:
  Basis Set: CC-PVTZ
  Basis Set:
  @DF-RHF Final Energy:  -344.71662710168931
    Total Energy =                       -344.7166271016889141
  Basis Set: CC-PVTZ
  Basis Set:
  Basis Set: CC-PVTZ
  Basis Set:
  @DF-RHF Final Energy:  -344.71663191633104
    Total Energy =                       -344.7166319163310959
  Basis Set: CC-PVTZ
  Basis Set:
  Basis Set: CC-PVTZ
  Basis Set:
  @DF-RHF Final Energy:  -344.71663311586798
    Total Energy =                       -344.7166331158676940
  Basis Set: CC-PVTZ
  Basis Set:
  Charge       = 0
  Multiplicity = 1
  Basis Set: CC-PVTZ
  Basis Set:

    Orbital Energies (a.u.)
    -----------------------

    Doubly Occupied:

       1A    -20.570129     2A    -11.287222     3A    -11.240242
       4A    -11.231419     5A    -11.220403     6A    -11.219825
       7A    -11.218477     8A    -11.217755     9A     -1.397238
      10A     -1.154912    11A     -1.046713    12A     -1.007652
      13A     -0.938976    14A     -0.829533    15A     -0.814288
      16A     -0.719378    17A     -0.680099    18A     -0.659721
      19A     -0.622654    20A     -0.593149    21A     -0.577709
      22A     -0.570494    23A     -0.552767    24A     -0.515402
      25A     -0.506777    26A     -0.485246    27A     -0.467559
      28A     -0.333694    29A     -0.321661

  @DF-RHF Final Energy:  -344.71663351372661

   => Energetics <=

    Nuclear Repulsion Energy =            345.8648357099173154
    One-Electron Energy =               -1153.1607571872309563
    Two-Electron Energy =                 462.5792879635872055
    DFT Exchange-Correlation Energy =       0.0000000000000000
    Empirical Dispersion Energy =           0.0000000000000000
    PCM Polarization Energy =               0.0000000000000000
    EFP Energy =                            0.0000000000000000
    Total Energy =                       -344.7166335137264355
    Molecular point group: c1
  Basis Set: CC-PVTZ
  Basis Set:

  -Total Gradient:
     Atom            X                  Y                   Z
    ------   -----------------  -----------------  -----------------
       1       -0.000039690757    -0.000047931613     0.001590512425
       2       -0.000345923135     0.000432236217    -0.001758371679
       3        0.001076106713    -0.001216798894    -0.000296246436
       4       -0.000030099222     0.000005278213    -0.000005535512
       5       -0.000688913973     0.000798283639     0.000464635622
       6       -0.000001995638    -0.000002566219     0.000002984837
       7       -0.000000383731    -0.000027207884     0.000014944896
       8        0.000010274266     0.000016063349    -0.000024568772
       9       -0.000002097263     0.000027163909    -0.000004416529
      10        0.000003088947     0.000002381498     0.000001650792
      11        0.000008566189     0.000009679591     0.000003450222
      12        0.000003339365     0.000002746876     0.000000869865
      13       -0.000006075468     0.000001709403     0.000009126043
      14        0.000005798498    -0.000010237633     0.000001206645
      15       -0.000002470931     0.000005287195     0.000007657850
      16        0.000010476134     0.000003912352    -0.000007900264

  **** Optimization is complete! (in 6 steps) ****
    Final optimized geometry and variables:
    Molecular point group: c1

    Geometry (in Angstrom), charge = 0, multiplicity = 1:

    H           -2.882140722714    -0.896319236628    -0.413918745186
    O           -2.087020174606    -1.399220556386    -0.415524598451
    C           -0.999095494645    -0.573509760021    -0.373765184564
    C           -0.647680228752     0.184109277127    -1.471454478223
    C           -0.236891219008    -0.534076231736     0.778905325031
    H           -1.237701911845     0.132349657795    -2.366129754262
    C            0.476518209921     0.986083196158    -1.400648200807
    H           -0.535750875297    -1.141869470096     1.611200365943
    C            0.893210179590     0.261835423341     0.851700242092
    H            0.759621066946     1.577070678100    -2.251032906119
    C            1.242121989639     1.025567340316    -0.253829273666
    C            1.716927180672     0.318901659693     2.113869389174
    H            2.116797517347     1.647705048578    -0.217876144036
    H            2.776011092568     0.294093592284     1.888942041113
    H            1.492007646755    -0.512622230392     2.768088296559
    H            1.520167636185     1.234801346813     2.660876205334

  Mulliken Charges: (a.u.)
   Center  Symbol    Alpha    Beta     Spin     Total
       1     H     0.38765  0.38765  0.00000  0.22471
       2     O     4.19123  4.19123  0.00000 -0.38245
       3     C     2.85615  2.85615  0.00000  0.28770
       4     C     3.13013  3.13013  0.00000 -0.26026
       5     C     3.14027  3.14027  0.00000 -0.28055
       6     H     0.41981  0.41981  0.00000  0.16037
       7     C     3.06070  3.06070  0.00000 -0.12140
       8     H     0.41927  0.41927  0.00000  0.16146
       9     C     2.94483  2.94483  0.00000  0.11034
      10     H     0.42241  0.42241  0.00000  0.15519
      11     C     3.10863  3.10863  0.00000 -0.21727
      12     C     3.14637  3.14637  0.00000 -0.29274
      13     H     0.42703  0.42703  0.00000  0.14595
      14     H     0.44792  0.44792  0.00000  0.10417
      15     H     0.45022  0.45022  0.00000  0.09956
      16     H     0.44738  0.44738  0.00000  0.10524

   Total alpha = 29.00000, Total beta = 29.00000, Total charge = -0.00000
