  ==> Input File <==

--------------------------------------------------------------------------
set {
	reference rhf
	basis cc-pvtz
}

set_num_threads( 4 )
memory 2 gb

molecule MOL {
0 1

H	 -2.122788	 0.067663	 0.000363
C	 -1.207832	 -0.484956	 0.000217
C	 -1.200234	 -1.865056	 0.000185
C	 0.000000	 0.179985	 0.000046
H	 -2.128939	 -2.400800	 0.000318
C	 -0.000000	 -2.552036	 -0.000013
N	 0.000000	 1.644631	 0.000076
C	 1.207832	 -0.484956	 -0.000151
H	 -0.000000	 -3.625035	 -0.000032
C	 1.200234	 -1.865056	 -0.000180
O	 1.050559	 2.194174	 -0.000073
O	 -1.050559	 2.194174	 -0.000074
H	 2.122788	 0.067663	 -0.000283
H	 2.128939	 -2.400800	 -0.000330

	symmetry c1
}
set optking {
	frozen_dihedral = ("
		2 4 7 11
	")
}

ee = optimize('scf')
oeprop('DIPOLE', 'QUADRUPOLE', 'MULLIKEN_CHARGES')
f=open( 'psi4out.xyz', 'w' )
f.write( "14  " )
f.write( str(ee) + "\n" )
f.write( MOL.save_string_xyz() )
f.close()
--------------------------------------------------------------------------

    Molecular point group: c1
  Charge       = 0
  Multiplicity = 1
  Basis Set: CC-PVTZ
  Basis Set:
  @DF-RHF Final Energy:  -434.33008810052803
    Total Energy =                       -434.3300881005279734
    Molecular point group: c1
  Basis Set: CC-PVTZ
  Basis Set:
  Basis Set: CC-PVTZ
  Basis Set:
  @DF-RHF Final Energy:  -434.33008384395532
    Total Energy =                       -434.3300838439550944
  Basis Set: CC-PVTZ
  Basis Set:
  Basis Set: CC-PVTZ
  Basis Set:
  @DF-RHF Final Energy:  -434.33008772694222
    Total Energy =                       -434.3300877269422244
  Basis Set: CC-PVTZ
  Basis Set:
  Charge       = 0
  Multiplicity = 1
  Basis Set: CC-PVTZ
  Basis Set:

    Orbital Energies (a.u.)
    -----------------------

    Doubly Occupied:

       1A    -20.591683     2A    -20.591627     3A    -15.847792
       4A    -11.302390     5A    -11.267168     6A    -11.267127
       7A    -11.264854     8A    -11.258170     9A    -11.258037
      10A     -1.641202    11A     -1.423519    12A     -1.204489
      13A     -1.095644    14A     -1.054991    15A     -0.959450
      16A     -0.866950    17A     -0.828967    18A     -0.789566
      19A     -0.740815    20A     -0.735312    21A     -0.711446
      22A     -0.659883    23A     -0.651995    24A     -0.626424
      25A     -0.555134    26A     -0.540630    27A     -0.531289
      28A     -0.492063    29A     -0.491695    30A     -0.457741
      31A     -0.377784    32A     -0.369250

  @DF-RHF Final Energy:  -434.33008823651852

   => Energetics <=

    Nuclear Repulsion Energy =            418.2277883069013455
    One-Electron Energy =               -1420.2055852984653939
    Two-Electron Energy =                 567.6477087550454144
    DFT Exchange-Correlation Energy =       0.0000000000000000
    Empirical Dispersion Energy =           0.0000000000000000
    PCM Polarization Energy =               0.0000000000000000
    EFP Energy =                            0.0000000000000000
    Total Energy =                       -434.3300882365185771
    Molecular point group: c1
  Basis Set: CC-PVTZ
  Basis Set:

  -Total Gradient:
     Atom            X                  Y                   Z
    ------   -----------------  -----------------  -----------------
       1       -0.000000633994    -0.000000507992     0.000000241645
       2        0.000006099992    -0.000003002210    -0.000000345015
       3        0.000003507974     0.000002946557     0.000000303146
       4       -0.000000402950    -0.000002009478     0.000001867520
       5        0.000000637991     0.000001402604    -0.000000148416
       6       -0.000000005213     0.000002389406     0.000000686028
       7        0.000006760537    -0.000000068836    -0.000008515582
       8       -0.000006324856    -0.000002842792    -0.000000083929
       9        0.000000016621     0.000001113937    -0.000000475949
      10       -0.000003493081     0.000002957730     0.000000047538
      11       -0.000011048599    -0.000003238956     0.000002934187
      12        0.000004684377    -0.000000103379     0.000003350077
      13        0.000000817157    -0.000000437387     0.000000273010
      14       -0.000000615955     0.000001400801    -0.000000134259

  **** Optimization is complete! (in 4 steps) ****
    Final optimized geometry and variables:
    Molecular point group: c1

    Geometry (in Angstrom), charge = 0, multiplicity = 1:

    H           -2.122713197550     0.067890116348     0.000290642095
    C           -1.207827680524    -0.484799390567     0.000163207566
    C           -1.200192382256    -1.864846536626     0.000167561350
    C           -0.000000217092     0.179929430337    -0.000006069406
    H           -2.128857429444    -2.400622145806     0.000294492021
    C            0.000000127974    -2.551764484686     0.000003271848
    N            0.000002084301     1.644450731883    -0.000011640388
    C            1.207827183242    -0.484799366934    -0.000169221544
    H            0.000000232792    -3.624737152557    -0.000002050760
    C            1.200192525150    -1.864846491568    -0.000163616199
    O            1.050682316969     2.193859867075    -0.000158491040
    O           -1.050683836551     2.193861521588     0.000172496235
    H            2.122713119972     0.067889935034    -0.000293665502
    H            2.128857711839    -2.400621864776    -0.000292011607

  Mulliken Charges: (a.u.)
   Center  Symbol    Alpha    Beta     Spin     Total
       1     H     0.39891  0.39891  0.00000  0.20219
       2     C     3.07669  3.07669  0.00000 -0.15338
       3     C     3.07221  3.07221  0.00000 -0.14442
       4     C     2.98227  2.98227  0.00000  0.03545
       5     H     0.41694  0.41694  0.00000  0.16613
       6     C     3.06449  3.06449  0.00000 -0.12897
       7     N     3.25234  3.25234  0.00000  0.49531
       8     C     3.07669  3.07669  0.00000 -0.15338
       9     H     0.41708  0.41708  0.00000  0.16584
      10     C     3.07221  3.07221  0.00000 -0.14442
      11     O     4.17717  4.17717  0.00000 -0.35434
      12     O     4.17717  4.17717  0.00000 -0.35435
      13     H     0.39891  0.39891  0.00000  0.20219
      14     H     0.41694  0.41694  0.00000  0.16613

   Total alpha = 32.00000, Total beta = 32.00000, Total charge = -0.00000
