  ==> Input File <==

--------------------------------------------------------------------------
set {
	reference rhf
	basis cc-pvtz
}

set_num_threads( 4 )
memory 2 gb

molecule MOL {
0 1

H	 1.281000	 -0.083000	 -1.464000
C	 1.135000	 -0.107000	 -0.384000
O	 0.000000	 -0.887000	 -0.102000
C	 2.348000	 -0.735000	 0.273000
C	 0.771000	 1.305000	 0.109000
C	 -1.135000	 -0.108000	 -0.384000
H	 2.507000	 -1.739000	 -0.104000
H	 3.239000	 -0.148000	 0.070000
H	 2.207000	 -0.791000	 1.347000
H	 1.154000	 1.465000	 1.111000
H	 1.196000	 2.073000	 -0.528000
C	 -0.772000	 1.305000	 0.106000
H	 -1.282000	 -0.086000	 -1.465000
C	 -2.348000	 -0.736000	 0.274000
H	 -1.158000	 1.469000	 1.106000
H	 -1.194000	 2.072000	 -0.534000
H	 -2.506000	 -1.740000	 -0.101000
H	 -3.239000	 -0.149000	 0.070000
H	 -2.206000	 -0.789000	 1.348000

	symmetry c1
}
ee = optimize('scf')
oeprop('DIPOLE', 'QUADRUPOLE', 'MULLIKEN_CHARGES')
f=open( 'psi4out.xyz', 'w' )
f.write( "19  " )
f.write( str(ee) + "\n" )
f.write( MOL.save_string_xyz() )
f.close()
--------------------------------------------------------------------------

    Molecular point group: c1
  Charge       = 0
  Multiplicity = 1
  Basis Set: CC-PVTZ
  Basis Set:
  @DF-RHF Final Energy:  -309.16715918242448
    Total Energy =                       -309.1671591824244842
    Molecular point group: c1
  Basis Set: CC-PVTZ
  Basis Set:
  Basis Set: CC-PVTZ
  Basis Set:
  @DF-RHF Final Energy:  -309.16724117465100
    Total Energy =                       -309.1672411746508260
  Basis Set: CC-PVTZ
  Basis Set:
  Charge       = 0
  Multiplicity = 1
  Basis Set: CC-PVTZ
  Basis Set:

    Orbital Energies (a.u.)
    -----------------------

    Doubly Occupied:

       1A    -20.540814     2A    -11.267716     3A    -11.267691
       4A    -11.214795     5A    -11.214212     6A    -11.206299
       7A    -11.206297     8A     -1.386716     9A     -1.054784
      10A     -1.053267    11A     -0.966968    12A     -0.876150
      13A     -0.791961    14A     -0.791313    15A     -0.682794
      16A     -0.646591    17A     -0.630128    18A     -0.585724
      19A     -0.577342    20A     -0.557192    21A     -0.537565
      22A     -0.523467    23A     -0.504873    24A     -0.490364
      25A     -0.467700    26A     -0.454857    27A     -0.454349
      28A     -0.409110

  @DF-RHF Final Energy:  -309.16724411284275

   => Energetics <=

    Nuclear Repulsion Energy =            333.5135675544800620
    One-Electron Energy =               -1080.6395526154733489
    Two-Electron Energy =                 437.9587409481505347
    DFT Exchange-Correlation Energy =       0.0000000000000000
    Empirical Dispersion Energy =           0.0000000000000000
    PCM Polarization Energy =               0.0000000000000000
    EFP Energy =                            0.0000000000000000
    Total Energy =                       -309.1672441128428090
    Molecular point group: c1
  Basis Set: CC-PVTZ
  Basis Set:

  -Total Gradient:
     Atom            X                  Y                   Z
    ------   -----------------  -----------------  -----------------
       1       -0.000025409516    -0.000035811860     0.000034163272
       2        0.000063121512     0.000232370810    -0.000067753344
       3       -0.000040878713    -0.000249546307     0.000045480029
       4       -0.000001550407    -0.000037379160     0.000018447088
       5       -0.000005624227    -0.000012658904     0.000008014860
       6       -0.000011795714     0.000214757418    -0.000051785224
       7       -0.000007152452     0.000034753937     0.000004795577
       8       -0.000067923117    -0.000032097760     0.000003638499
       9       -0.000004805375     0.000003467363    -0.000028305358
      10       -0.000028011137     0.000011990702    -0.000038109986
      11       -0.000037007889    -0.000016600318     0.000033001347
      12        0.000016909339    -0.000023666744    -0.000001297638
      13        0.000034738334    -0.000045475662     0.000050185668
      14       -0.000029380307    -0.000039154619     0.000021792668
      15        0.000031643107     0.000014654150    -0.000035812723
      16        0.000034599643    -0.000011899485     0.000028104669
      17        0.000002469645     0.000020074257     0.000002878179
      18        0.000068820564    -0.000034299445     0.000006151827
      19        0.000007236715     0.000006521632    -0.000033589411

  **** Optimization is complete! (in 3 steps) ****
    Final optimized geometry and variables:
    Molecular point group: c1

    Geometry (in Angstrom), charge = 0, multiplicity = 1:

    H            1.275719948364    -0.071533391899    -1.452008403573
    C            1.132429629863    -0.094281778859    -0.371405908813
    O            0.000158663858    -0.870989592679    -0.087737854088
    C            2.349980303704    -0.714942697587     0.275905582439
    C            0.769998680600     1.316390977984     0.116717595512
    C           -1.132404674908    -0.094946034466    -0.371739188578
    H            2.513471586666    -1.716458619711    -0.101610819525
    H            3.233192228689    -0.122007048124     0.065863068136
    H            2.218894435437    -0.771292254579     1.349981003422
    H            1.153243199933     1.478874212575     1.116217800690
    H            1.192965831664     2.080998637439    -0.521623674778
    C           -0.770554378512     1.316647037369     0.114667338665
    H           -1.276040491433    -0.073499863437    -1.452282022771
    C           -2.349613042152    -0.715385741003     0.276571972083
    H           -1.156495757866     1.481693609651     1.112701135417
    H           -1.191388011595     2.080007437976    -0.526589777396
    H           -2.512666240629    -1.717502714083    -0.099596434000
    H           -3.233142597703    -0.123156583831     0.065898635581
    H           -2.218325697024    -0.770240255894     1.350697900215

  Mulliken Charges: (a.u.)
   Center  Symbol    Alpha    Beta     Spin     Total
       1     H     0.46358  0.46358  0.00000  0.07284
       2     C     2.92890  2.92890  0.00000  0.14219
       3     O     4.19532  4.19532  0.00000 -0.39064
       4     C     3.14424  3.14424  0.00000 -0.28848
       5     C     3.11217  3.11217  0.00000 -0.22433
       6     C     2.92893  2.92893  0.00000  0.14214
       7     H     0.44655  0.44655  0.00000  0.10690
       8     H     0.45737  0.45737  0.00000  0.08526
       9     H     0.45456  0.45456  0.00000  0.09088
      10     H     0.45009  0.45009  0.00000  0.09983
      11     H     0.44483  0.44483  0.00000  0.11033
      12     C     3.11223  3.11223  0.00000 -0.22446
      13     H     0.46357  0.46357  0.00000  0.07286
      14     C     3.14425  3.14425  0.00000 -0.28850
      15     H     0.45005  0.45005  0.00000  0.09990
      16     H     0.44486  0.44486  0.00000  0.11028
      17     H     0.44655  0.44655  0.00000  0.10689
      18     H     0.45737  0.45737  0.00000  0.08526
      19     H     0.45458  0.45458  0.00000  0.09085

   Total alpha = 28.00000, Total beta = 28.00000, Total charge = -0.00000
