  ==> Input File <==

--------------------------------------------------------------------------
set {
	reference rhf
	basis cc-pvtz
}

set_num_threads( 4 )
memory 2 gb

molecule MOL {
0 1

H	 -0.939693	 0.000281	 1.681345
O	 -0.046262	 -0.000157	 1.387678
C	 -0.000837	 0.000006	 -0.025491
C	 -1.422991	 0.000839	 -0.582828
C	 0.772045	 1.224338	 -0.512123
C	 0.726222	 -1.282408	 -0.406263
H	 -1.420587	 -0.035425	 -1.666098
H	 -1.953418	 0.899564	 -0.282809
H	 -1.972358	 -0.854723	 -0.210442
H	 0.854851	 1.232824	 -1.592798
H	 0.271808	 2.139915	 -0.211199
H	 1.769112	 1.230795	 -0.089889
H	 0.811584	 -1.373270	 -1.482713
H	 0.189713	 -2.143547	 -0.028362
H	 1.720998	 -1.290056	 0.021029

	symmetry c1
}
set optking {
	frozen_dihedral = ("
		4 3 2 1
	")
}

ee = optimize('scf')
oeprop('DIPOLE', 'QUADRUPOLE', 'MULLIKEN_CHARGES')
f=open( 'psi4out.xyz', 'w' )
f.write( "15  " )
f.write( str(ee) + "\n" )
f.write( MOL.save_string_xyz() )
f.close()
--------------------------------------------------------------------------

    Molecular point group: c1
  Charge       = 0
  Multiplicity = 1
  Basis Set: CC-PVTZ
  Basis Set:
  @DF-RHF Final Energy:  -232.24407681136469
    Total Energy =                       -232.2440768113648346
    Molecular point group: c1
  Basis Set: CC-PVTZ
  Basis Set:
  Basis Set: CC-PVTZ
  Basis Set:
  @DF-RHF Final Energy:  -232.24455586554450
    Total Energy =                       -232.2445558655444415
  Basis Set: CC-PVTZ
  Basis Set:
  Basis Set: CC-PVTZ
  Basis Set:
  @DF-RHF Final Energy:  -232.24471883305131
    Total Energy =                       -232.2447188330513086
  Basis Set: CC-PVTZ
  Basis Set:
  Charge       = 0
  Multiplicity = 1
  Basis Set: CC-PVTZ
  Basis Set:

    Orbital Energies (a.u.)
    -----------------------

    Doubly Occupied:

       1A    -20.540160     2A    -11.281148     3A    -11.216343
       4A    -11.203425     5A    -11.203340     6A     -1.362701
       7A     -1.065794     8A     -0.946426     9A     -0.936560
      10A     -0.778634    11A     -0.671795    12A     -0.624579
      13A     -0.622801    14A     -0.576648    15A     -0.557440
      16A     -0.534753    17A     -0.517028    18A     -0.511282
      19A     -0.503136    20A     -0.458243    21A     -0.426466

  @DF-RHF Final Energy:  -232.24471809100379

   => Energetics <=

    Nuclear Repulsion Energy =            200.5718975544680234
    One-Electron Energy =                -712.5558310982595458
    Two-Electron Energy =                 279.7392154527881303
    DFT Exchange-Correlation Energy =       0.0000000000000000
    Empirical Dispersion Energy =           0.0000000000000000
    PCM Polarization Energy =               0.0000000000000000
    EFP Energy =                            0.0000000000000000
    Total Energy =                       -232.2447180910033921
    Molecular point group: c1
  Basis Set: CC-PVTZ
  Basis Set:

  -Total Gradient:
     Atom            X                  Y                   Z
    ------   -----------------  -----------------  -----------------
       1        0.000081416992     0.000012461399     0.000036424593
       2       -0.000261928412     0.000173144373    -0.000057872505
       3        0.000202021478    -0.000124083569    -0.000021360080
       4        0.000033019545     0.000098554749     0.000049322530
       5       -0.000152862636     0.000072589056     0.000063258003
       6        0.000005649691    -0.000087326790    -0.000129461979
       7        0.000043442835    -0.000022304499     0.000022825306
       8        0.000014558063     0.000001296895     0.000008367644
       9        0.000006766022    -0.000049760471    -0.000039979928
      10       -0.000055311587     0.000040224822    -0.000031877395
      11        0.000110861250     0.000064395224     0.000061420713
      12       -0.000047594484    -0.000124762067    -0.000023052193
      13       -0.000036557859    -0.000032535232     0.000033179953
      14        0.000046730669    -0.000079269979     0.000026133358
      15        0.000009788432     0.000057376090     0.000002671978

  **** Optimization is complete! (in 4 steps) ****
    Final optimized geometry and variables:
    Molecular point group: c1

    Geometry (in Angstrom), charge = 0, multiplicity = 1:

    H           -0.913966929582     0.072598542788     1.706019301211
    O           -0.030436754356     0.047940389240     1.391802846040
    C            0.002937725494    -0.001161831807    -0.024999728635
    C           -1.417716266301     0.002102773283    -0.581383537497
    C            0.771568630993     1.226315277989    -0.504540028486
    C            0.733471280513    -1.280973975239    -0.420546382971
    H           -1.410705969257    -0.033737187994    -1.663577140639
    H           -1.945496406013     0.901322177755    -0.280650639254
    H           -1.972211634831    -0.859189979340    -0.223049374735
    H            0.868507427785     1.232862562125    -1.584521067586
    H            0.264946180956     2.133709837840    -0.198298318409
    H            1.763617573842     1.234047338252    -0.070819577378
    H            0.836579610881    -1.358118487982    -1.497121353939
    H            0.194963356656    -2.150501048988    -0.062876236448
    H            1.722093490937    -1.294234405892     0.020920319417

  Mulliken Charges: (a.u.)
   Center  Symbol    Alpha    Beta     Spin     Total
       1     H     0.39167  0.39167  0.00000  0.21667
       2     O     4.21553  4.21553  0.00000 -0.43106
       3     C     2.88060  2.88060  0.00000  0.23881
       4     C     3.16361  3.16361  0.00000 -0.32722
       5     C     3.13950  3.13950  0.00000 -0.27899
       6     C     3.13955  3.13955  0.00000 -0.27911
       7     H     0.45025  0.45025  0.00000  0.09949
       8     H     0.44852  0.44852  0.00000  0.10296
       9     H     0.44850  0.44850  0.00000  0.10300
      10     H     0.45960  0.45960  0.00000  0.08081
      11     H     0.45347  0.45347  0.00000  0.09307
      12     H     0.44811  0.44811  0.00000  0.10378
      13     H     0.45951  0.45951  0.00000  0.08098
      14     H     0.45358  0.45358  0.00000  0.09285
      15     H     0.44801  0.44801  0.00000  0.10397

   Total alpha = 21.00000, Total beta = 21.00000, Total charge = -0.00000
