                              Psi4 1.0.54 Driver

  ==> Input File <==

--------------------------------------------------------------------------
set {
	reference rhf
	basis cc-pvtz
}

set_num_threads( 4 )
memory 2 gb

molecule MOL {
0 1

O	 3.219313	 0.959291	 -0.614106
C	 2.698710	 0.058177	 -0.050237
C	 1.246364	 -0.005813	 0.348416
O	 3.344101	 -1.038700	 0.312317
C	 0.453207	 1.232821	 -0.049003
H	 0.839270	 -0.907818	 -0.092281
H	 1.216683	 -0.160521	 1.422434
C	 -0.998367	 1.217982	 0.432195
H	 0.481498	 1.345443	 -1.127236
H	 0.951413	 2.105557	 0.354893
C	 -1.882951	 0.151251	 -0.211235
H	 -1.429490	 2.193659	 0.228843
H	 -1.019755	 1.099323	 1.513279
C	 -3.342450	 0.243269	 0.226009
H	 -1.826223	 0.246578	 -1.293162
H	 -1.508033	 -0.839650	 0.027695
C	 -4.234517	 -0.821434	 -0.405970
H	 -3.730149	 1.228245	 -0.022691
H	 -3.398860	 0.159952	 1.308941
C	 -5.509434	 -1.084453	 0.388502
H	 -4.496270	 -0.516775	 -1.415618
H	 -3.674308	 -1.747440	 -0.503618
H	 -6.119023	 -1.844447	 -0.086676
H	 -6.109866	 -0.184841	 0.473876
H	 -5.281340	 -1.424243	 1.393352
C	 4.720529	 -1.114346	 0.001449
H	 4.874321	 -1.055557	 -1.065852
H	 5.057824	 -2.067950	 0.373977
H	 5.264321	 -0.313596	 0.480350

	symmetry c1
}
set optking {
	frozen_dihedral = ("
		21 17 14 11
	")
}

ee,wfn = optimize('scf', return_wfn=True)
oeprop( wfn, 'DIPOLE', 'QUADRUPOLE', 'MULLIKEN_CHARGES')
f=open( 'psi4out.xyz', 'w' )
f.write( "29  " )
f.write( str(ee) + "\n" )
f.write( MOL.save_string_xyz() )
f.close()
--------------------------------------------------------------------------

    Molecular point group: c1
  Charge       = 0
  Multiplicity = 1
  Basis Set: CC-PVTZ
  Basis Set:
  @DF-RHF Final Energy:  -501.22322035868797
    Total Energy =                       -501.2232203586877404
    Molecular point group: c1
  Basis Set: CC-PVTZ
  Basis Set:
  Basis Set: CC-PVTZ
  Basis Set:
  @DF-RHF Final Energy:  -501.22334006390986
    Total Energy =                       -501.2233400639095180
  Basis Set: CC-PVTZ
  Basis Set:
  Basis Set: CC-PVTZ
  Basis Set:
  @DF-RHF Final Energy:  -501.22341376605630
    Total Energy =                       -501.2234137660566375
  Basis Set: CC-PVTZ
  Basis Set:
  Basis Set: CC-PVTZ
  Basis Set:
  @DF-RHF Final Energy:  -501.22314771854997
    Total Energy =                       -501.2231477185498534
  Basis Set: CC-PVTZ
  Basis Set:
  Basis Set: CC-PVTZ
  Basis Set:
  @DF-RHF Final Energy:  -501.22342210277429
    Total Energy =                       -501.2234221027733838
  Basis Set: CC-PVTZ
  Basis Set:
  Charge       = 0
  Multiplicity = 1
  Basis Set: CC-PVTZ
  Basis Set:

    Orbital Energies (a.u.)
    -----------------------

    Doubly Occupied:

       1A    -20.596024     2A    -20.533870     3A    -11.364283
       4A    -11.278274     5A    -11.232973     6A    -11.217062
       7A    -11.215484     8A    -11.213963     9A    -11.213813
      10A    -11.212295    11A    -11.207110    12A     -1.471887
      13A     -1.365502    14A     -1.099174    15A     -1.067592
      16A     -1.020547    17A     -0.978132    18A     -0.929013
      19A     -0.862044    20A     -0.799964    21A     -0.790900
      22A     -0.765649    23A     -0.703033    24A     -0.685494
      25A     -0.676030    26A     -0.651719    27A     -0.627817
      28A     -0.607325    29A     -0.596459    30A     -0.582805
      31A     -0.566924    32A     -0.550122    33A     -0.533721
      34A     -0.531820    35A     -0.517461    36A     -0.509510
      37A     -0.499542    38A     -0.477616    39A     -0.471061
      40A     -0.461469    41A     -0.460634    42A     -0.458304
      43A     -0.443520    44A     -0.437070

  @DF-RHF Final Energy:  -501.22342171718174

   => Energetics <=

    Nuclear Repulsion Energy =            611.4970508227183927
    One-Electron Energy =               -1894.4709243890843027
    Two-Electron Energy =                 781.7504518491841736
    DFT Exchange-Correlation Energy =       0.0000000000000000
    Empirical Dispersion Energy =           0.0000000000000000
    PCM Polarization Energy =               0.0000000000000000
    EFP Energy =                            0.0000000000000000
    Total Energy =                       -501.2234217171817363
    Molecular point group: c1
  Basis Set: CC-PVTZ
  Basis Set:

  -Total Gradient:
     Atom            X                  Y                   Z
    ------   -----------------  -----------------  -----------------
       1       -0.000034907643     0.000037307749    -0.000087387561
       2        0.000050759142     0.000063426177     0.000158204172
       3       -0.000017237760    -0.000037245685    -0.000059516449
       4       -0.000020860473    -0.000081859645    -0.000016109485
       5        0.000019015486     0.000032002067     0.000041482267
       6       -0.000045525995    -0.000045396562    -0.000002673726
       7        0.000019241750     0.000010824571    -0.000008991567
       8       -0.000016491819     0.000031946624    -0.000040443256
       9        0.000001980140     0.000020684119    -0.000015534136
      10        0.000017599071    -0.000006155088     0.000012903295
      11        0.000558284175    -0.001745738943     0.002067402911
      12       -0.000018950239     0.000001056388    -0.000011729129
      13       -0.000004660003     0.000014537273     0.000003309576
      14       -0.001444236487     0.002814629418    -0.002538765720
      15        0.000007207255     0.000011804731     0.000009799145
      16        0.000038520195    -0.000048030683    -0.000006948865
      17        0.003927649166    -0.002806202938    -0.000877481130
      18       -0.000007521445     0.000024832916    -0.000010573452
      19        0.000001279831     0.000002447186     0.000032146705
      20        0.000032626768     0.000000444297    -0.000029896150
      21       -0.003034104500     0.001715232349     0.001364555916
      22        0.000011380295    -0.000013498009    -0.000002083016
      23       -0.000019170398    -0.000019926417    -0.000012904106
      24       -0.000017670479     0.000026032750     0.000006852718
      25        0.000005567452    -0.000008684748     0.000028069165
      26       -0.000009244689     0.000016342469    -0.000012136716
      27        0.000003232846    -0.000003160764    -0.000004403104
      28       -0.000007164391    -0.000011912365     0.000007018967
      29        0.000003402751     0.000004260763     0.000005832733

  **** Optimization is complete! (in 6 steps) ****
    Final optimized geometry and variables:
    Molecular point group: c1

    Geometry (in Angstrom), charge = 0, multiplicity = 1:

    O            3.199275932950     1.002653351296    -0.652372004935
    C            2.683145112106     0.106533167918    -0.076524102318
    C            1.230697756894     0.039790692730     0.321336256232
    O            3.333949535262    -0.982243101992     0.300641430811
    C            0.431235945336     1.268842661734    -0.093001878845
    H            0.829131576540    -0.870143409870    -0.108106971795
    H            1.200580460953    -0.101160630224     1.397232169529
    C           -1.021577982638     1.250890235977     0.384456546511
    H            0.461735100482     1.368675870975    -1.172451172636
    H            0.923148698552     2.149347749574     0.301706052786
    C           -1.896556417773     0.168226526429    -0.244905942267
    H           -1.459167812778     2.220247336416     0.165477663640
    H           -1.045143553212     1.148202271239     1.467244541969
    C           -3.354204451419     0.242563863907     0.203060205496
    H           -1.844677558864     0.254154585078    -1.328392847929
    H           -1.511020451641    -0.816393337975     0.001275127999
    C           -4.251005241032    -0.808880868629    -0.454152015996
    H           -3.753017694807     1.233633997318     0.005446640505
    H           -3.387966581336     0.113784670701     1.282615433314
    C           -5.539558711262    -1.060206450840     0.325004299017
    H           -4.519992198147    -0.476466905744    -1.452607516873
    H           -3.708340258079    -1.742729615073    -0.562770839944
    H           -6.175240650986    -1.774762537914    -0.185543167170
    H           -6.106612751145    -0.143053266975     0.447987243591
    H           -5.328866396649    -1.451379196734     1.314761375939
    C            4.710929839623    -1.054876171260    -0.008508035278
    H            4.865059310639    -1.009183727346    -1.076410046580
    H            5.052879142948    -2.001846579467     0.376557302358
    H            5.250370642903    -0.245212265701     0.460254772254

  Mulliken Charges: (a.u.)
   Center  Symbol    Alpha    Beta     Spin     Total
       1     O     4.19697  4.19697  0.00000 -0.39393
       2     C     2.80483  2.80483  0.00000  0.39035
       3     C     3.10177  3.10177  0.00000 -0.20353
       4     O     4.14724  4.14724  0.00000 -0.29447
       5     C     3.09247  3.09247  0.00000 -0.18493
       6     H     0.43915  0.43915  0.00000  0.12170
       7     H     0.43990  0.43990  0.00000  0.12019
       8     C     3.10412  3.10412  0.00000 -0.20824
       9     H     0.44619  0.44619  0.00000  0.10761
      10     H     0.43962  0.43962  0.00000  0.12077
      11     C     3.09279  3.09279  0.00000 -0.18558
      12     H     0.44527  0.44527  0.00000  0.10946
      13     H     0.45358  0.45358  0.00000  0.09285
      14     C     3.08772  3.08772  0.00000 -0.17545
      15     H     0.45275  0.45275  0.00000  0.09451
      16     H     0.45376  0.45376  0.00000  0.09248
      17     C     3.08391  3.08391  0.00000 -0.16783
      18     H     0.45200  0.45200  0.00000  0.09600
      19     H     0.45637  0.45637  0.00000  0.08725
      20     C     3.14947  3.14947  0.00000 -0.29895
      21     H     0.45332  0.45332  0.00000  0.09335
      22     H     0.45535  0.45535  0.00000  0.08931
      23     H     0.44888  0.44888  0.00000  0.10225
      24     H     0.45480  0.45480  0.00000  0.09040
      25     H     0.45579  0.45579  0.00000  0.08841
      26     C     3.03814  3.03814  0.00000 -0.07628
      27     H     0.45434  0.45434  0.00000  0.09132
      28     H     0.44528  0.44528  0.00000  0.10944
      29     H     0.45423  0.45423  0.00000  0.09154

   Total alpha = 44.00000, Total beta = 44.00000, Total charge =  0.00000

*** Psi4 exiting successfully. Buy a developer a beer!
