                              Psi4 1.0.54 Driver

  ==> Input File <==

--------------------------------------------------------------------------
set {
	reference rhf
	basis cc-pvtz
}

set_num_threads( 4 )
memory 2 gb

molecule MOL {
0 1

O	 -1.772897	 -0.134237	 -2.163701
C	 -2.113023	 -0.629612	 -1.143239
C	 -3.305837	 -1.537538	 -1.012286
O	 -1.481217	 -0.452708	 0.001092
H	 -3.171977	 -2.379694	 -1.677820
H	 -3.438775	 -1.884909	 -0.000209
H	 -4.185621	 -0.998311	 -1.336770
C	 -0.332055	 0.384012	 -0.000250
C	 0.892252	 -0.506059	 -0.000295
H	 -0.360822	 1.020205	 -0.874146
H	 -0.359817	 1.021310	 0.872861
C	 2.188199	 0.299473	 -0.001416
H	 0.857046	 -1.152781	 -0.871031
H	 0.857910	 -1.151798	 0.871202
C	 3.437151	 -0.577593	 -0.000991
H	 2.209565	 0.950707	 -0.871712
H	 2.210062	 0.952234	 0.867721
C	 4.732399	 0.226982	 -0.000914
H	 3.417321	 -1.229122	 -0.869998
H	 3.416993	 -1.228707	 0.868337
H	 4.797903	 0.863451	 -0.876963
H	 5.598517	 -0.424436	 -0.000420
H	 4.797415	 0.864118	 0.874691

	symmetry c1
}
set optking {
	frozen_dihedral = ("
		2 4 8 10
	")
}

ee,wfn = optimize('scf', return_wfn=True)
oeprop( wfn, 'DIPOLE', 'QUADRUPOLE', 'MULLIKEN_CHARGES')
f=open( 'psi4out.xyz', 'w' )
f.write( "23  " )
f.write( str(ee) + "\n" )
f.write( MOL.save_string_xyz() )
f.close()
--------------------------------------------------------------------------

    Molecular point group: c1
  Charge       = 0
  Multiplicity = 1
  Basis Set: CC-PVTZ
  Basis Set:
  @DF-RHF Final Energy:  -423.13232030781165
    Total Energy =                       -423.1323203078118240
    Molecular point group: c1
  Basis Set: CC-PVTZ
  Basis Set:
  Basis Set: CC-PVTZ
  Basis Set:
  @DF-RHF Final Energy:  -423.13330415530237
    Total Energy =                       -423.1333041553025396
  Basis Set: CC-PVTZ
  Basis Set:
  Basis Set: CC-PVTZ
  Basis Set:
  @DF-RHF Final Energy:  -423.13317172645048
    Total Energy =                       -423.1331717264504277
  Basis Set: CC-PVTZ
  Basis Set:
  Basis Set: CC-PVTZ
  Basis Set:
  @DF-RHF Final Energy:  -423.13341928320966
    Total Energy =                       -423.1334192832101735
  Basis Set: CC-PVTZ
  Basis Set:
  Basis Set: CC-PVTZ
  Basis Set:
  @DF-RHF Final Energy:  -423.13342209942886
    Total Energy =                       -423.1334220994289126
  Basis Set: CC-PVTZ
  Basis Set:
  Charge       = 0
  Multiplicity = 1
  Basis Set: CC-PVTZ
  Basis Set:

    Orbital Energies (a.u.)
    -----------------------

    Doubly Occupied:

       1A    -20.595038     2A    -20.529212     3A    -11.367789
       4A    -11.278205     5A    -11.230296     6A    -11.220540
       7A    -11.219919     8A    -11.218133     9A    -11.209817
      10A     -1.469214    11A     -1.364380    12A     -1.093385
      13A     -1.042182    14A     -1.003303    15A     -0.932115
      16A     -0.849376    17A     -0.799708    18A     -0.770559
      19A     -0.701069    20A     -0.682289    21A     -0.659371
      22A     -0.651037    23A     -0.605933    24A     -0.589438
      25A     -0.585911    26A     -0.574071    27A     -0.550278
      28A     -0.540990    29A     -0.523244    30A     -0.510920
      31A     -0.487238    32A     -0.480226    33A     -0.474504
      34A     -0.469785    35A     -0.441472    36A     -0.439030

  @DF-RHF Final Energy:  -423.13342248866155

   => Energetics <=

    Nuclear Repulsion Energy =            454.7321071676678343
    One-Electron Energy =               -1477.4111038144988015
    Two-Electron Energy =                 599.5455741581690745
    DFT Exchange-Correlation Energy =       0.0000000000000000
    Empirical Dispersion Energy =           0.0000000000000000
    PCM Polarization Energy =               0.0000000000000000
    EFP Energy =                            0.0000000000000000
    Total Energy =                       -423.1334224886618358
    Molecular point group: c1
  Basis Set: CC-PVTZ
  Basis Set:

  -Total Gradient:
     Atom            X                  Y                   Z
    ------   -----------------  -----------------  -----------------
       1        0.000001403800    -0.000007498326     0.000073701451
       2       -0.000650130447     0.000887952877     0.000250701717
       3       -0.000026665935     0.000019215664    -0.000027941748
       4        0.001039613223    -0.001522179376    -0.000581269181
       5        0.000006175688     0.000028275664     0.000028752570
       6        0.000012501488     0.000004932425    -0.000004215587
       7        0.000042018000    -0.000025334158    -0.000006534509
       8       -0.001026758889     0.001515320075     0.000991508622
       9        0.000011755289    -0.000003203907     0.000001865843
      10        0.000603422310    -0.000873890694    -0.000712212107
      11       -0.000022150368    -0.000023253484    -0.000009411858
      12       -0.000012822474    -0.000006139258    -0.000000368126
      13        0.000002126499    -0.000003841059    -0.000000960876
      14        0.000000723728     0.000004636150    -0.000003704794
      15        0.000011362904     0.000001341371     0.000000318223
      16        0.000004696450     0.000002520768     0.000002910936
      17        0.000000933290    -0.000000576528    -0.000001958982
      18        0.000005424720    -0.000003909090    -0.000003347857
      19       -0.000000786447     0.000002508740     0.000001792124
      20       -0.000002434456     0.000002117755     0.000000288308
      21        0.000000477865     0.000000583518    -0.000000426601
      22       -0.000000693373     0.000002228980     0.000000195777
      23       -0.000000192866    -0.000001808107     0.000000316651

  **** Optimization is complete! (in 6 steps) ****
    Final optimized geometry and variables:
    Molecular point group: c1

    Geometry (in Angstrom), charge = 0, multiplicity = 1:

    O           -2.097798951476     0.162534267335    -1.684077369402
    C           -2.394570999591    -0.323086127738    -0.645495800584
    C           -3.608227722748    -1.192127211056    -0.453265129785
    O           -1.705705538095    -0.170198047019     0.470073144822
    H           -3.538581993401    -2.034040287738    -1.128785677101
    H           -3.698131461104    -1.540356805356     0.563158798187
    H           -4.485205380351    -0.621510177192    -0.728109394368
    C           -0.541943934952     0.648917538708     0.466375357674
    C            0.710941881965    -0.205812479804     0.429818244995
    H           -0.575512895336     1.314225527833    -0.380675544109
    H           -0.591107870552     1.226044243861     1.378897248415
    C            1.981943739407     0.635892349245     0.496556736506
    H            0.705636968176    -0.793180555364    -0.482721145991
    H            0.684565899461    -0.905740536388     1.259044443423
    C            3.257363416802    -0.201402436878     0.460066165545
    H            1.992966411369     1.339609636004    -0.331946715200
    H            1.973629642879     1.233761869924     1.405089763101
    C            4.526970420666     0.640478618886     0.526179984899
    H            3.267221428373    -0.798090861647    -0.447532030589
    H            3.247685519196    -0.905169686358     1.287672638656
    H            4.582282969035     1.331346151859    -0.308401476697
    H            5.412731308195     0.016586106275     0.497783811401
    H            4.562868260106     1.224088596372     1.440107827344

  Mulliken Charges: (a.u.)
   Center  Symbol    Alpha    Beta     Spin     Total
       1     O     4.20440  4.20440  0.00000 -0.40880
       2     C     2.80793  2.80793  0.00000  0.38413
       3     C     3.14157  3.14157  0.00000 -0.28315
       4     O     4.15471  4.15471  0.00000 -0.30943
       5     H     0.44261  0.44261  0.00000  0.11479
       6     H     0.44179  0.44179  0.00000  0.11642
       7     H     0.44224  0.44224  0.00000  0.11553
       8     C     2.98502  2.98502  0.00000  0.02997
       9     C     3.09059  3.09059  0.00000 -0.18118
      10     H     0.44452  0.44452  0.00000  0.11097
      11     H     0.44407  0.44407  0.00000  0.11185
      12     C     3.09825  3.09825  0.00000 -0.19651
      13     H     0.44823  0.44823  0.00000  0.10354
      14     H     0.45097  0.45097  0.00000  0.09807
      15     C     3.08419  3.08419  0.00000 -0.16839
      16     H     0.45060  0.45060  0.00000  0.09881
      17     H     0.45476  0.45476  0.00000  0.09048
      18     C     3.15005  3.15005  0.00000 -0.30010
      19     H     0.45243  0.45243  0.00000  0.09515
      20     H     0.45396  0.45396  0.00000  0.09208
      21     H     0.45415  0.45415  0.00000  0.09169
      22     H     0.44771  0.44771  0.00000  0.10459
      23     H     0.45526  0.45526  0.00000  0.08948

   Total alpha = 36.00000, Total beta = 36.00000, Total charge =  0.00000

*** Psi4 exiting successfully. Buy a developer a beer!
