  ==> Input File <==

--------------------------------------------------------------------------
set {
	reference rhf
	basis 6-31G*
}

set_num_threads( 4 )
memory 2 gb

molecule MOL {
0 1

O	 0.391030	 1.298905	 0.000133
C	 0.503002	 0.111612	 0.000005
C	 -0.702327	 -0.811998	 -0.000075
C	 1.863306	 -0.554493	 0.000030
C	 -1.522460	 -0.745443	 -1.282691
H	 -0.346815	 -1.824944	 0.179710
H	 -1.314814	 -0.561761	 0.864220
H	 -0.921933	 -1.018141	 -2.141890
H	 -2.367566	 -1.423588	 -1.226364
H	 -1.898516	 0.256240	 -1.451310
H	 1.974395	 -1.189404	 -0.874166
H	 2.638695	 0.198920	 -0.000196
H	 1.974487	 -1.188655	 0.874727

	symmetry c1
}
set optking {
	frozen_dihedral = ("
		6 3 2 1
	")
}

ee = optimize('scf')
oeprop('DIPOLE', 'QUADRUPOLE', 'MULLIKEN_CHARGES')
f=open( 'psi4out.xyz', 'w' )
f.write( "13  " )
f.write( str(ee) + "\n" )
f.write( MOL.save_string_xyz() )
f.close()
--------------------------------------------------------------------------

    Molecular point group: c1
  Charge       = 0
  Multiplicity = 1
  Basis Set: 6-31G*
  Basis Set:
  @DF-RHF Final Energy:  -230.99464204070861
    Total Energy =                       -230.9946420407084702
    Molecular point group: c1
  Basis Set: 6-31G*
  Basis Set:
  Basis Set: 6-31G*
  Basis Set:
  @DF-RHF Final Energy:  -230.99536039586195
    Total Energy =                       -230.9953603958620079
  Basis Set: 6-31G*
  Basis Set:
  Basis Set: 6-31G*
  Basis Set:
  @DF-RHF Final Energy:  -230.99503952381792
    Total Energy =                       -230.9950395238180363
  Basis Set: 6-31G*
  Basis Set:
  Basis Set: 6-31G*
  Basis Set:
  @DF-RHF Final Energy:  -230.99540342950729
    Total Energy =                       -230.9954034295073200
  Basis Set: 6-31G*
  Basis Set:
  Basis Set: 6-31G*
  Basis Set:
  @DF-RHF Final Energy:  -230.99542155688587
    Total Energy =                       -230.9954215568860150
  Basis Set: 6-31G*
  Basis Set:
  Charge       = 0
  Multiplicity = 1
  Basis Set: 6-31G*
  Basis Set:

    Orbital Energies (a.u.)
    -----------------------

    Doubly Occupied:

       1A    -20.548763     2A    -11.326166     3A    -11.233073
       4A    -11.229552     5A    -11.224665     6A     -1.394840
       7A     -1.063101     8A     -0.999477     9A     -0.880800
      10A     -0.732981    11A     -0.656092    12A     -0.645037
      13A     -0.608948    14A     -0.589616    15A     -0.570095
      16A     -0.536799    17A     -0.525002    18A     -0.502339
      19A     -0.478871    20A     -0.400000

  @DF-RHF Final Energy:  -230.99542194076929

   => Energetics <=

    Nuclear Repulsion Energy =            176.9029606784941393
    One-Electron Energy =                -663.5043351707801094
    Two-Electron Energy =                 255.6059525515166513
    DFT Exchange-Correlation Energy =       0.0000000000000000
    Empirical Dispersion Energy =           0.0000000000000000
    PCM Polarization Energy =               0.0000000000000000
    EFP Energy =                            0.0000000000000000
    Total Energy =                       -230.9954219407693188
    Molecular point group: c1
  Basis Set: 6-31G*
  Basis Set:

  -Total Gradient:
     Atom            X                  Y                   Z
    ------   -----------------  -----------------  -----------------
       1       -0.000014242948     0.000049007487     0.000217513943
       2        0.000027681388    -0.000038551327    -0.000272322299
       3       -0.000001286373    -0.000043432920    -0.000214994456
       4       -0.000011425579     0.000015149959     0.000091268641
       5        0.000002801639     0.000011412838    -0.000001900142
       6       -0.000019240945     0.000023249683     0.000238890167
       7        0.000011206842     0.000000138731     0.000003938368
       8       -0.000001163396    -0.000002471474     0.000002489752
       9        0.000004230283     0.000001057204     0.000003666864
      10        0.000000229494    -0.000002257226    -0.000000737354
      11       -0.000003055049    -0.000000301014    -0.000022629962
      12       -0.000005631343    -0.000002039995    -0.000015475176
      13        0.000009895987    -0.000010961953    -0.000029708347

  **** Optimization is complete! (in 6 steps) ****
    Final optimized geometry and variables:
    Molecular point group: c1

    Geometry (in Angstrom), charge = 0, multiplicity = 1:

    O            0.244227274601     1.420607819818     0.282476527842
    C            0.395035354144     0.236975813710     0.274525267418
    C           -0.806143131053    -0.696319174820     0.281273609445
    C            1.770044650013    -0.390059750836     0.243392308112
    C           -1.599029416048    -0.585031205415    -1.026142153269
    H           -0.494477412341    -1.722242982203     0.448861221946
    H           -1.437752395322    -0.403189367313     1.113604312163
    H           -0.999943576783    -0.887868136164    -1.879818250599
    H           -2.476203990464    -1.221829233068    -0.993969845642
    H           -1.921145636580     0.436578948632    -1.184531753448
    H            1.858909090938    -1.061306083018    -0.606536079864
    H            2.527113248264     0.379212275304     0.182932466381
    H            1.926177370079    -0.985868757523     1.138616743118

  Mulliken Charges: (a.u.)
   Center  Symbol    Alpha    Beta     Spin     Total
       1     O     4.26217  4.26217  0.00000 -0.52433
       2     C     2.73762  2.73762  0.00000  0.52475
       3     C     3.19997  3.19997  0.00000 -0.39995
       4     C     3.28941  3.28941  0.00000 -0.57882
       5     C     3.24559  3.24559  0.00000 -0.49118
       6     H     0.41622  0.41622  0.00000  0.16755
       7     H     0.40074  0.40074  0.00000  0.19852
       8     H     0.41883  0.41883  0.00000  0.16234
       9     H     0.41381  0.41381  0.00000  0.17237
      10     H     0.40240  0.40240  0.00000  0.19520
      11     H     0.40899  0.40899  0.00000  0.18201
      12     H     0.39689  0.39689  0.00000  0.20622
      13     H     0.40734  0.40734  0.00000  0.18532

   Total alpha = 20.00000, Total beta = 20.00000, Total charge = -0.00000
