  ==> Input File <==

--------------------------------------------------------------------------
set {
	reference rhf
	basis cc-pvtz
}

set_num_threads( 4 )
memory 2 gb

molecule MOL {
0 1

O	 0.750285	 1.304156	 -0.059971
C	 0.576499	 0.134701	 -0.003900
C	 -0.765656	 -0.550508	 -0.002152
O	 1.563719	 -0.742269	 0.075430
C	 -1.945526	 0.411052	 0.000603
H	 -0.794329	 -1.203792	 -0.868145
H	 -0.791555	 -1.205429	 0.862701
C	 -3.282915	 -0.321280	 0.002596
H	 -1.880300	 1.059126	 -0.864925
H	 -1.877207	 1.057892	 0.866807
H	 -3.388495	 -0.952755	 -0.873419
H	 -4.107811	 0.380864	 0.004116
H	 -3.385717	 -0.953283	 0.878571
C	 2.882978	 -0.234918	 0.088105
H	 3.087813	 0.316614	 -0.817383
H	 3.530777	 -1.093683	 0.155693
H	 3.033667	 0.413909	 0.938022

	symmetry c1
}
set optking {
	frozen_dihedral = ("
		1 2 3 6
	")
}

ee = optimize('scf')
oeprop('DIPOLE', 'QUADRUPOLE', 'MULLIKEN_CHARGES')
f=open( 'psi4out.xyz', 'w' )
f.write( "17  " )
f.write( str(ee) + "\n" )
f.write( MOL.save_string_xyz() )
f.close()
--------------------------------------------------------------------------

    Molecular point group: c1
  Charge       = 0
  Multiplicity = 1
  Basis Set: CC-PVTZ
  Basis Set:
  @DF-RHF Final Energy:  -345.03539484359629
    Total Energy =                       -345.0353948435963503
    Molecular point group: c1
  Basis Set: CC-PVTZ
  Basis Set:
  Basis Set: CC-PVTZ
  Basis Set:
  @DF-RHF Final Energy:  -345.03506654356022
    Total Energy =                       -345.0350665435602764
  Basis Set: CC-PVTZ
  Basis Set:
  Basis Set: CC-PVTZ
  Basis Set:
  @DF-RHF Final Energy:  -345.03540877423922
    Total Energy =                       -345.0354087742392721
  Basis Set: CC-PVTZ
  Basis Set:
  Charge       = 0
  Multiplicity = 1
  Basis Set: CC-PVTZ
  Basis Set:

    Orbital Energies (a.u.)
    -----------------------

    Doubly Occupied:

       1A    -20.596715     2A    -20.534515     3A    -11.364972
       4A    -11.278774     5A    -11.234359     6A    -11.220113
       7A    -11.212741     8A     -1.472609     9A     -1.366214
      10A     -1.081760    11A     -1.002567    12A     -0.940368
      13A     -0.827849    14A     -0.769376    15A     -0.702657
      16A     -0.686739    17A     -0.676302    18A     -0.637788
      19A     -0.596867    20A     -0.575605    21A     -0.569730
      22A     -0.528791    23A     -0.523285    24A     -0.500450
      25A     -0.487743    26A     -0.479757    27A     -0.460101
      28A     -0.441499

  @DF-RHF Final Energy:  -345.03540925778145

   => Energetics <=

    Nuclear Repulsion Energy =            313.0228163094004685
    One-Electron Energy =               -1090.5759611924618184
    Two-Electron Energy =                 432.5177356252795562
    DFT Exchange-Correlation Energy =       0.0000000000000000
    Empirical Dispersion Energy =           0.0000000000000000
    PCM Polarization Energy =               0.0000000000000000
    EFP Energy =                            0.0000000000000000
    Total Energy =                       -345.0354092577817937
    Molecular point group: c1
  Basis Set: CC-PVTZ
  Basis Set:

  -Total Gradient:
     Atom            X                  Y                   Z
    ------   -----------------  -----------------  -----------------
       1       -0.000033283681     0.000026282357    -0.000175761013
       2        0.000011101417     0.000029244104     0.000253830766
       3        0.000080788145    -0.000142850419    -0.000008268657
       4       -0.000014611776    -0.000051784175    -0.000045023453
       5        0.000001758680     0.000013398389     0.000028260419
       6       -0.000039094156     0.000090613989    -0.000080910333
       7       -0.000002456584     0.000017203028    -0.000006533486
       8        0.000000464822    -0.000001248348    -0.000001245180
       9        0.000005032690    -0.000010431287     0.000003761858
      10       -0.000011576582     0.000016986193     0.000005045287
      11        0.000001286703    -0.000001797668    -0.000001000304
      12        0.000001355076     0.000000266168    -0.000001914314
      13       -0.000001509682     0.000001273972     0.000000466502
      14        0.000015336193     0.000024726871     0.000060328164
      15       -0.000013540786    -0.000001670068    -0.000010029956
      16       -0.000011608229    -0.000006320355    -0.000008599608
      17        0.000010557753    -0.000003892750    -0.000012406691

  **** Optimization is complete! (in 4 steps) ****
    Final optimized geometry and variables:
    Molecular point group: c1

    Geometry (in Angstrom), charge = 0, multiplicity = 1:

    O            0.750291425016     1.303704306953    -0.064512831959
    C            0.576525057237     0.134267644379    -0.007177894571
    C           -0.765624490100    -0.551356120737    -0.008298747809
    O            1.564569515953    -0.742834598004     0.060349558732
    C           -1.945421781073     0.410385119158    -0.017794163727
    H           -0.788454335949    -1.205202234763    -0.874537613098
    H           -0.797579399675    -1.205024874308     0.856869162792
    C           -3.282894984830    -0.321728254543    -0.024699726921
    H           -1.872821684403     1.056185102078    -0.884273103218
    H           -1.884586942964     1.059670600308     0.847506101353
    H           -3.381552619973    -0.955104350815    -0.900226153544
    H           -4.107700838248     0.380559732751    -0.031339205233
    H           -3.392872789229    -0.951902873535     0.851770818558
    C            2.883715288948    -0.235605365567     0.059635022158
    H            3.078646517070     0.318353617355    -0.846670105982
    H            3.532673064180    -1.094277786263     0.117780311308
    H            3.044068711738     0.411225433152     0.909375167467

  Mulliken Charges: (a.u.)
   Center  Symbol    Alpha    Beta     Spin     Total
       1     O     4.19667  4.19667  0.00000 -0.39334
       2     C     2.80673  2.80673  0.00000  0.38655
       3     C     3.09564  3.09564  0.00000 -0.19127
       4     O     4.14687  4.14687  0.00000 -0.29375
       5     C     3.07859  3.07859  0.00000 -0.15718
       6     H     0.44141  0.44141  0.00000  0.11719
       7     H     0.44060  0.44060  0.00000  0.11880
       8     C     3.15133  3.15133  0.00000 -0.30266
       9     H     0.44615  0.44615  0.00000  0.10771
      10     H     0.44742  0.44742  0.00000  0.10517
      11     H     0.45580  0.45580  0.00000  0.08841
      12     H     0.44558  0.44558  0.00000  0.10884
      13     H     0.45589  0.45589  0.00000  0.08822
      14     C     3.03741  3.03741  0.00000 -0.07483
      15     H     0.45433  0.45433  0.00000  0.09134
      16     H     0.44528  0.44528  0.00000  0.10944
      17     H     0.45432  0.45432  0.00000  0.09136

   Total alpha = 28.00000, Total beta = 28.00000, Total charge = -0.00000
