  ==> Input File <==

--------------------------------------------------------------------------
set {
	reference rhf
	basis 6-31G*
}

set_num_threads( 4 )
memory 2 gb

molecule MOL {
0 1

H	 -2.646374	 -0.642757	 1.268656
C	 -2.083525	 -0.384536	 0.393091
O	 -0.807605	 -0.127164	 0.768327
F	 -2.118945	 -1.383102	 -0.486752
F	 -2.621877	 0.670592	 -0.209486
C	 0.084052	 0.273579	 -0.209957
C	 1.475445	 0.219810	 0.407535
Cl	 -0.287264	 1.912588	 -0.769411
H	 0.069460	 -0.375392	 -1.068092
F	 2.383938	 0.577933	 -0.474807
F	 1.728773	 -1.020317	 0.775432
F	 1.580108	 0.994561	 1.459571

	symmetry c1
}
set optking {
	frozen_dihedral = ("
		9 6 3 2
	")
}

ee = optimize('scf')
oeprop('DIPOLE', 'QUADRUPOLE', 'MULLIKEN_CHARGES')
f=open( 'psi4out.xyz', 'w' )
f.write( "12  " )
f.write( str(ee) + "\n" )
f.write( MOL.save_string_xyz() )
f.close()
--------------------------------------------------------------------------

    Molecular point group: c1
  Charge       = 0
  Multiplicity = 1
  Basis Set: 6-31G*
  Basis Set:
  @DF-RHF Final Energy: -1146.30773026952670
    Total Energy =                      -1146.3077302695260187
    Molecular point group: c1
  Basis Set: 6-31G*
  Basis Set:
  Basis Set: 6-31G*
  Basis Set:
  @DF-RHF Final Energy: -1146.31074561981700
    Total Energy =                      -1146.3107456198167711
  Basis Set: 6-31G*
  Basis Set:
  Basis Set: 6-31G*
  Basis Set:
  @DF-RHF Final Energy: -1146.31164795252153
    Total Energy =                      -1146.3116479525215254
  Basis Set: 6-31G*
  Basis Set:
  Basis Set: 6-31G*
  Basis Set:
  @DF-RHF Final Energy: -1146.31185326088507
    Total Energy =                      -1146.3118532608850728
  Basis Set: 6-31G*
  Basis Set:
  @DF-RHF Final Energy: -1146.31193367745118
    Total Energy =                      -1146.3119336774514068
  Basis Set: 6-31G*
  Basis Set:
  @DF-RHF Final Energy: -1146.31201706049887
    Total Energy =                      -1146.3120170604995565
  Basis Set: 6-31G*
  Basis Set:
  Basis Set: 6-31G*
  Basis Set:
  @DF-RHF Final Energy: -1146.31204296798546
    Total Energy =                      -1146.3120429679856898
  Basis Set: 6-31G*
  Basis Set:
  Basis Set: 6-31G*
  Basis Set:
  @DF-RHF Final Energy: -1146.31204756130273
    Total Energy =                      -1146.3120475613027338
  Basis Set: 6-31G*
  Basis Set:
  Charge       = 0
  Multiplicity = 1
  Basis Set: 6-31G*
  Basis Set:

    Orbital Energies (a.u.)
    -----------------------

    Doubly Occupied:

       1A   -104.843267     2A    -26.359653     3A    -26.358238
       4A    -26.357236     5A    -26.348694     6A    -26.340439
       7A    -20.649265     8A    -11.527735     9A    -11.488933
      10A    -11.400522    11A    -10.578137    12A     -8.047494
      13A     -8.043936    14A     -8.043851    15A     -1.760940
      16A     -1.716025    17A     -1.657303    18A     -1.655791
      19A     -1.637554    20A     -1.483833    21A     -1.179097
      22A     -1.056182    23A     -0.984736    24A     -0.917579
      25A     -0.857190    26A     -0.851136    27A     -0.845677
      28A     -0.815594    29A     -0.812601    30A     -0.791615
      31A     -0.729495    32A     -0.725510    33A     -0.707253
      34A     -0.695776    35A     -0.679306    36A     -0.674341
      37A     -0.658666    38A     -0.657417    39A     -0.642382
      40A     -0.638020    41A     -0.596003    42A     -0.572482
      43A     -0.524717    44A     -0.475404    45A     -0.468750

  @DF-RHF Final Energy: -1146.31204805548236

   => Energetics <=

    Nuclear Repulsion Energy =            736.7559379222998359
    One-Electron Energy =               -3056.4244161692431589
    Two-Electron Energy =                1173.3564301914618682
    DFT Exchange-Correlation Energy =       0.0000000000000000
    Empirical Dispersion Energy =           0.0000000000000000
    PCM Polarization Energy =               0.0000000000000000
    EFP Energy =                            0.0000000000000000
    Total Energy =                      -1146.3120480554814549
    Molecular point group: c1
  Basis Set: 6-31G*
  Basis Set:

  -Total Gradient:
     Atom            X                  Y                   Z
    ------   -----------------  -----------------  -----------------
       1       -0.000018417300    -0.000004089049    -0.000011040351
       2       -0.000608890075     0.002377168297     0.000331857326
       3        0.001648453711    -0.004036787387    -0.000033749308
       4       -0.000022220473     0.000063961184    -0.000007391357
       5       -0.000013164446    -0.000026606275    -0.000058107964
       6       -0.003005501493     0.003119008616    -0.001660844017
       7       -0.000022672243     0.000038888697    -0.000009295754
       8       -0.000037543314     0.000052170993    -0.000017929315
       9        0.002045630455    -0.001527442000     0.001416945499
      10       -0.000002277162    -0.000029078322     0.000014769237
      11        0.000028157537     0.000002365128     0.000018491928
      12        0.000008444810    -0.000029559899     0.000016294076

  **** Optimization is complete! (in 9 steps) ****
    Final optimized geometry and variables:
    Molecular point group: c1

    Geometry (in Angstrom), charge = 0, multiplicity = 1:

    H           -2.449645822387    -1.238826203870     1.193225264858
    C           -2.013197029415    -0.744375185103     0.346890115644
    O           -0.733257382352    -0.423957246151     0.668941847236
    F           -2.039830901435    -1.547803242652    -0.715112381041
    F           -2.723815587652     0.329820569139     0.039968114130
    C            0.177515112097    -0.084665313553    -0.311273089091
    C            1.539302822383    -0.133862455093     0.373824398354
    CL          -0.094380134773     1.519582581557    -1.015879776573
    H            0.189500415038    -0.804821504185    -1.111020373574
    F            2.493661551249     0.133273227007    -0.491892880488
    F            1.742518816262    -1.350285897908     0.839288648459
    F            1.625618122287     0.711564994498     1.371432909558

  Mulliken Charges: (a.u.)
   Center  Symbol    Alpha    Beta     Spin     Total
       1     H     0.40407  0.40407  0.00000  0.19186
       2     C     2.55542  2.55542  0.00000  0.88916
       3     O     4.30949  4.30949  0.00000 -0.61898
       4     F     4.68822  4.68822  0.00000 -0.37644
       5     F     4.67846  4.67846  0.00000 -0.35692
       6     C     3.04050  3.04050  0.00000 -0.08100
       7     C     2.43259  2.43259  0.00000  1.13482
       8    CL     8.50255  8.50255  0.00000 -0.00509
       9     H     0.36826  0.36826  0.00000  0.26347
      10     F     4.67497  4.67497  0.00000 -0.34994
      11     F     4.67711  4.67711  0.00000 -0.35422
      12     F     4.66836  4.66836  0.00000 -0.33671

   Total alpha = 45.00000, Total beta = 45.00000, Total charge =  0.00000
