  ==> Input File <==

--------------------------------------------------------------------------
set {
	reference rhf
	basis 6-31G*
}

set_num_threads( 1 )
memory 2 gb

molecule MOL {
0 1

H	 3.729471	 -0.928294	 -0.070608
O	 2.826016	 -1.159218	 0.122261
C	 2.077727	 -0.067559	 -0.035091
C	 0.624473	 -0.343591	 0.253101
O	 2.542965	 0.974826	 -0.363729
C	 -0.265902	 0.883932	 0.072916
H	 0.324016	 -1.163849	 -0.390541
H	 0.565024	 -0.726111	 1.268924
C	 -1.728698	 0.646073	 0.462102
H	 -0.209144	 1.219470	 -0.958188
H	 0.135059	 1.692851	 0.673903
C	 -1.945040	 0.167407	 1.900515
H	 -2.141367	 -0.097308	 -0.216021
H	 -2.301880	 1.557020	 0.295384
C	 -3.409717	 -0.152220	 2.198907
H	 -1.338857	 -0.718641	 2.078014
H	 -1.598957	 0.921024	 2.603132
H	 -3.538164	 -0.487357	 3.223357
H	 -3.780860	 -0.936054	 1.544930
H	 -4.038571	 0.721999	 2.055655

	symmetry c1
}
set optking {
	frozen_dihedral = ("
		16 12 9 6,
		7 4 6 10,
		5 3 4 7,
		1 2 3 5
	")
}

ee = energy('scf')
oeprop('DIPOLE', 'QUADRUPOLE', 'MULLIKEN_CHARGES')
f=open( 'psi4out.xyz', 'w' )
f.write( "20  " )
f.write( str(ee) + "\n" )
f.write( MOL.save_string_xyz() )
f.close()
--------------------------------------------------------------------------

    Molecular point group: c1

    Geometry (in Angstrom), charge = 0, multiplicity = 1:

       Center              X                  Y                   Z               Mass
    ------------   -----------------  -----------------  -----------------  -----------------
           H          3.593317480163    -1.029274328544    -0.644071879899     1.007825032070
           O          2.689862480163    -1.260198328544    -0.451202879899    15.994914619560
           C          1.941573480163    -0.168539328544    -0.608554879899    12.000000000000
           C          0.488319480163    -0.444571328544    -0.320362879899    12.000000000000
           O          2.406811480163     0.873845671456    -0.937192879899    15.994914619560
           C         -0.402055519837     0.782951671456    -0.500547879899    12.000000000000
           H          0.187862480163    -1.264829328544    -0.964004879899     1.007825032070
           H          0.428870480163    -0.827091328544     0.695460120101     1.007825032070
           C         -1.864851519837     0.545092671456    -0.111361879899    12.000000000000
           H         -0.345297519837     1.118489671456    -1.531651879899     1.007825032070
           H         -0.001094519837     1.591870671456     0.100439120101     1.007825032070
           C         -2.081193519837     0.066426671456     1.327051120101    12.000000000000
           H         -2.277520519837    -0.198288328544    -0.789484879899     1.007825032070
           H         -2.438033519837     1.456039671456    -0.278079879899     1.007825032070
           C         -3.545870519837    -0.253200328544     1.625443120101    12.000000000000
           H         -1.475010519837    -0.819621328544     1.504550120101     1.007825032070
           H         -1.735110519837     0.820043671456     2.029668120101     1.007825032070
           H         -3.674317519837    -0.588337328544     2.649893120101     1.007825032070
           H         -3.917013519837    -1.037034328544     0.971466120101     1.007825032070
           H         -4.174724519837     0.621018671456     1.482191120101     1.007825032070

  Charge       = 0
  Multiplicity = 1
  Basis Set: 6-31G*
  Basis Set:

    Orbital Energies (a.u.)
    -----------------------

    Doubly Occupied:

       1A    -20.612565     2A    -20.551494     3A    -11.381227
       4A    -11.240129     5A    -11.222927     6A    -11.220888
       7A    -11.220268     8A    -11.212685     9A     -1.474575
      10A     -1.365591    11A     -1.097083    12A     -1.040385
      13A     -0.961508    14A     -0.869070    15A     -0.818290
      16A     -0.774941    17A     -0.699510    18A     -0.690993
      19A     -0.663826    20A     -0.635856    21A     -0.604274
      22A     -0.593716    23A     -0.577176    24A     -0.554974
      25A     -0.537923    26A     -0.516125    27A     -0.495510
      28A     -0.479512    29A     -0.470393    30A     -0.465626
      31A     -0.457487    32A     -0.443833

  @DF-RHF Final Energy:  -383.94724359802495

   => Energetics <=

    Nuclear Repulsion Energy =            377.2247570255217965
    One-Electron Energy =               -1270.4432984076979665
    Two-Electron Energy =                 509.2712977841518978
    DFT Exchange-Correlation Energy =       0.0000000000000000
    Empirical Dispersion Energy =           0.0000000000000000
    PCM Polarization Energy =               0.0000000000000000
    EFP Energy =                            0.0000000000000000
    Total Energy =                       -383.9472435980243290

  Mulliken Charges: (a.u.)
   Center  Symbol    Alpha    Beta     Spin     Total
       1     H     0.26781  0.26781  0.00000  0.46437
       2     O     4.35157  4.35157  0.00000 -0.70314
       3     C     2.62162  2.62162  0.00000  0.75676
       4     C     3.21466  3.21466  0.00000 -0.42933
       5     O     4.27919  4.27919  0.00000 -0.55837
       6     C     3.15380  3.15380  0.00000 -0.30761
       7     H     0.39871  0.39871  0.00000  0.20258
       8     H     0.39665  0.39665  0.00000  0.20669
       9     C     3.15470  3.15470  0.00000 -0.30940
      10     H     0.40986  0.40986  0.00000  0.18028
      11     H     0.41069  0.41069  0.00000  0.17862
      12     C     3.15643  3.15643  0.00000 -0.31286
      13     H     0.42444  0.42444  0.00000  0.15113
      14     H     0.41720  0.41720  0.00000  0.16560
      15     C     3.23878  3.23878  0.00000 -0.47756
      16     H     0.42292  0.42292  0.00000  0.15417
      17     H     0.42074  0.42074  0.00000  0.15853
      18     H     0.41833  0.41833  0.00000  0.16335
      19     H     0.42124  0.42124  0.00000  0.15752
      20     H     0.42066  0.42066  0.00000  0.15868

   Total alpha = 32.00000, Total beta = 32.00000, Total charge =  0.00000
