                              Psi4 1.0.54 Driver

  ==> Input File <==

--------------------------------------------------------------------------
set {
	reference rhf
	basis cc-pvtz
}

set_num_threads( 4 )
memory 2 gb

molecule MOL {
0 1

H	 2.387007	 0.587316	 -1.178144
O	 1.529977	 0.192013	 -1.232665
C	 1.050374	 0.054877	 0.000135
C	 -0.318151	 -0.570512	 0.000144
O	 1.659507	 0.396828	 0.954072
C	 -1.454884	 0.441630	 -0.000560
H	 -0.371613	 -1.223646	 -0.864985
H	 -0.371920	 -1.222758	 0.865929
C	 -2.822577	 -0.232186	 0.000063
H	 -1.359760	 1.084704	 -0.867077
H	 -1.359641	 1.085996	 0.864983
H	 -2.954352	 -0.858985	 -0.875745
H	 -3.615886	 0.505352	 0.000019
H	 -2.953878	 -0.858359	 0.876394

	symmetry c1
}
set optking {
	frozen_dihedral = ("
		2 3 4 7
	")
}

ee,wfn = optimize('scf', return_wfn=True)
oeprop( wfn, 'DIPOLE', 'QUADRUPOLE', 'MULLIKEN_CHARGES')
f=open( 'psi4out.xyz', 'w' )
f.write( "14  " )
f.write( str(ee) + "\n" )
f.write( MOL.save_string_xyz() )
f.close()
--------------------------------------------------------------------------

    Molecular point group: c1
  Charge       = 0
  Multiplicity = 1
  Basis Set: CC-PVTZ
  Basis Set:
  @DF-RHF Final Energy:  -305.99879490750357
    Total Energy =                       -305.9987949075036227
    Molecular point group: c1
  Basis Set: CC-PVTZ
  Basis Set:
  Basis Set: CC-PVTZ
  Basis Set:
  @DF-RHF Final Energy:  -305.99926530396192
    Total Energy =                       -305.9992653039617494
  Basis Set: CC-PVTZ
  Basis Set:
  Basis Set: CC-PVTZ
  Basis Set:
  @DF-RHF Final Energy:  -305.96877631998677
    Total Energy =                       -305.9687763199867732
  Basis Set: CC-PVTZ
  Basis Set:
  Basis Set: CC-PVTZ
  Basis Set:
  @DF-RHF Final Energy:  -305.99841521406756
    Total Energy =                       -305.9984152140676201
  Basis Set: CC-PVTZ
  Basis Set:
  Basis Set: CC-PVTZ
  Basis Set:
  @DF-RHF Final Energy:  -305.99959710597193
    Total Energy =                       -305.9995971059719295
  Basis Set: CC-PVTZ
  Basis Set:
  Basis Set: CC-PVTZ
  Basis Set:
  @DF-RHF Final Energy:  -305.99960963089973
    Total Energy =                       -305.9996096308997835
  Basis Set: CC-PVTZ
  Basis Set:
  Charge       = 0
  Multiplicity = 1
  Basis Set: CC-PVTZ
  Basis Set:

    Orbital Energies (a.u.)
    -----------------------

    Doubly Occupied:

       1A    -20.605605     2A    -20.538543     3A    -11.372747
       4A    -11.237967     5A    -11.234174     6A    -11.219342
       7A     -1.477564     8A     -1.368153     9A     -1.087615
      10A     -0.980850    11A     -0.853939    12A     -0.809745
      13A     -0.706341    14A     -0.688960    15A     -0.643882
      16A     -0.639184    17A     -0.596690    18A     -0.569590
      19A     -0.554123    20A     -0.518445    21A     -0.500313
      22A     -0.489740    23A     -0.475199    24A     -0.441895

  @DF-RHF Final Energy:  -305.99961057039889

   => Energetics <=

    Nuclear Repulsion Energy =            240.8515906377072042
    One-Electron Energy =                -894.4811892534635263
    Two-Electron Energy =                 347.6299880453573792
    DFT Exchange-Correlation Energy =       0.0000000000000000
    Empirical Dispersion Energy =           0.0000000000000000
    PCM Polarization Energy =               0.0000000000000000
    EFP Energy =                            0.0000000000000000
    Total Energy =                       -305.9996105703989429
    Molecular point group: c1
  Basis Set: CC-PVTZ
  Basis Set:

  -Total Gradient:
     Atom            X                  Y                   Z
    ------   -----------------  -----------------  -----------------
       1       -0.000031569767    -0.000005816924     0.000021764182
       2        0.000135124072    -0.000326526038     0.000073607795
       3       -0.000173333965     0.000440711186    -0.000247934496
       4        0.000159109514    -0.000342952759     0.000467955282
       5       -0.000026759917     0.000021663615     0.000039733941
       6        0.000035525471    -0.000018510296    -0.000009351059
       7       -0.000100417501     0.000222718485    -0.000368248367
       8        0.000017842702    -0.000003424913     0.000022845660
       9       -0.000007868003    -0.000003031647     0.000011981011
      10        0.000001800371     0.000007398846    -0.000023811719
      11       -0.000005659850     0.000020244378     0.000013091467
      12        0.000001368585    -0.000018065740    -0.000013170546
      13       -0.000003137168     0.000012988843    -0.000005734289
      14       -0.000002024540    -0.000007397038     0.000017271138

  **** Optimization is complete! (in 7 steps) ****
    Final optimized geometry and variables:
    Molecular point group: c1

    Geometry (in Angstrom), charge = 0, multiplicity = 1:

    H            2.550393076351     0.250181050475    -0.825152937946
    O            1.724723921528    -0.207718893426    -0.877897399333
    C            1.043399854382     0.025627828026     0.239582088703
    C           -0.316422126786    -0.617013944514     0.236915374075
    O            1.477253830753     0.694244596996     1.113844317681
    C           -1.374708696208     0.344876429997    -0.317999338163
    H           -0.286490572965    -1.518186112372    -0.361074695846
    H           -0.553357950900    -0.878331047457     1.259002100073
    C           -2.768450616229    -0.271734310133    -0.312239699076
    H           -1.105357171599     0.628423832858    -1.329856738486
    H           -1.371444348647     1.251708532960     0.275896102275
    H           -2.803508240222    -1.168001119636    -0.922015520013
    H           -3.499752060428     0.424827968773    -0.704127492868
    H           -3.072304395203    -0.541496600100     0.693254954841

  Mulliken Charges: (a.u.)
   Center  Symbol    Alpha    Beta     Spin     Total
       1     H     0.38018  0.38018  0.00000  0.23965
       2     O     4.16315  4.16315  0.00000 -0.32631
       3     C     2.80433  2.80433  0.00000  0.39134
       4     C     3.08725  3.08725  0.00000 -0.17449
       5     O     4.19848  4.19848  0.00000 -0.39696
       6     C     3.09381  3.09381  0.00000 -0.18762
       7     H     0.44241  0.44241  0.00000  0.11519
       8     H     0.43858  0.43858  0.00000  0.12283
       9     C     3.14989  3.14989  0.00000 -0.29978
      10     H     0.44699  0.44699  0.00000  0.10603
      11     H     0.44275  0.44275  0.00000  0.11450
      12     H     0.45382  0.45382  0.00000  0.09237
      13     H     0.44566  0.44566  0.00000  0.10869
      14     H     0.45272  0.45272  0.00000  0.09457

   Total alpha = 24.00000, Total beta = 24.00000, Total charge =  0.00000

*** Psi4 exiting successfully. Buy a developer a beer!
