  ==> Input File <==

--------------------------------------------------------------------------
set {
	reference rhf
	basis 6-31G*
}

set_num_threads( 4 )
memory 2 gb

molecule MOL {
0 1

O	 0.074228	 1.262779	 -0.000085
C	 0.028650	 0.075053	 -0.000277
C	 -1.233602	 -0.752807	 0.000328
O	 1.109162	 -0.694619	 -0.000298
C	 -2.501530	 0.091881	 0.000126
H	 -1.193807	 -1.406641	 -0.865785
H	 -1.193516	 -1.405779	 0.867015
H	 -2.545121	 0.729328	 -0.874513
H	 -3.377167	 -0.548497	 0.000561
H	 -2.544818	 0.730135	 0.874258
C	 2.320475	 -0.101692	 -0.432441
H	 2.231999	 0.242323	 -1.452852
H	 3.069133	 -0.875270	 -0.362075
H	 2.582804	 0.732425	 0.202306

	symmetry c1
}
set optking {
	frozen_dihedral = ("
		11 4 2 3
	")
}

ee = optimize('scf')
oeprop('DIPOLE', 'QUADRUPOLE', 'MULLIKEN_CHARGES')
f=open( 'psi4out.xyz', 'w' )
f.write( "14  " )
f.write( str(ee) + "\n" )
f.write( MOL.save_string_xyz() )
f.close()
--------------------------------------------------------------------------

    Molecular point group: c1
  Charge       = 0
  Multiplicity = 1
  Basis Set: 6-31G*
  Basis Set:
  @DF-RHF Final Energy:  -305.86969257114816
    Total Energy =                       -305.8696925711481072
    Molecular point group: c1
  Basis Set: 6-31G*
  Basis Set:
  Basis Set: 6-31G*
  Basis Set:
  @DF-RHF Final Energy:  -305.86720203017779
    Total Energy =                       -305.8672020301777934
  Basis Set: 6-31G*
  Basis Set:
  Basis Set: 6-31G*
  Basis Set:
  @DF-RHF Final Energy:  -305.86998988717949
    Total Energy =                       -305.8699898871797132
  Basis Set: 6-31G*
  Basis Set:
  Basis Set: 6-31G*
  Basis Set:
  @DF-RHF Final Energy:  -305.87006778270410
    Total Energy =                       -305.8700677827040408
  Basis Set: 6-31G*
  Basis Set:
  Basis Set: 6-31G*
  Basis Set:
  @DF-RHF Final Energy:  -305.87010496429389
    Total Energy =                       -305.8701049642938301
  Basis Set: 6-31G*
  Basis Set:
  Basis Set: 6-31G*
  Basis Set:
  @DF-RHF Final Energy:  -305.87010738083643
    Total Energy =                       -305.8701073808362025
  Basis Set: 6-31G*
  Basis Set:
  Charge       = 0
  Multiplicity = 1
  Basis Set: 6-31G*
  Basis Set:

    Orbital Energies (a.u.)
    -----------------------

    Doubly Occupied:

       1A    -20.602876     2A    -20.547064     3A    -11.373265
       4A    -11.282355     5A    -11.239173     6A    -11.216980
       7A     -1.469148     8A     -1.363941     9A     -1.064321
      10A     -0.980004    11A     -0.879645    12A     -0.768666
      13A     -0.700456    14A     -0.681778    15A     -0.671977
      16A     -0.621169    17A     -0.603182    18A     -0.547746
      19A     -0.538199    20A     -0.520893    21A     -0.512738
      22A     -0.496654    23A     -0.457065    24A     -0.438834

  @DF-RHF Final Energy:  -305.87010749786680

   => Energetics <=

    Nuclear Repulsion Energy =            247.0309852795977861
    One-Electron Energy =                -906.6459248826627118
    Two-Electron Energy =                 353.7448321051980429
    DFT Exchange-Correlation Energy =       0.0000000000000000
    Empirical Dispersion Energy =           0.0000000000000000
    PCM Polarization Energy =               0.0000000000000000
    EFP Energy =                            0.0000000000000000
    Total Energy =                       -305.8701074978669112
    Molecular point group: c1
  Basis Set: 6-31G*
  Basis Set:

  -Total Gradient:
     Atom            X                  Y                   Z
    ------   -----------------  -----------------  -----------------
       1        0.000032390877    -0.000037265570     0.000032919759
       2       -0.000712817747    -0.000196736403     0.004000608706
       3        0.000169921974    -0.000470207658    -0.004400996796
       4        0.001284573643     0.002600091873     0.004897623025
       5       -0.000000797218    -0.000017552706    -0.000001120538
       6       -0.000000934345     0.000002512817    -0.000001313383
       7       -0.000002651335     0.000000173111    -0.000000568460
       8        0.000001902009    -0.000000443352    -0.000002938814
       9       -0.000002222284     0.000005216750     0.000001041925
      10       -0.000003434815     0.000001957888     0.000003766072
      11       -0.000781114670    -0.001903008765    -0.004529459244
      12        0.000007764868     0.000005304393    -0.000004721122
      13        0.000007706946     0.000009884622     0.000001484321
      14       -0.000000287908     0.000000072998     0.000003674549

  **** Optimization is complete! (in 7 steps) ****
    Final optimized geometry and variables:
    Molecular point group: c1

    Geometry (in Angstrom), charge = 0, multiplicity = 1:

    O            0.071229334563     1.266575604025    -0.142414304337
    C            0.031955164716     0.093735281067     0.043334125349
    C           -1.224438031277    -0.741657816432     0.078816101332
    O            1.119200637234    -0.659591503723     0.169947112199
    C           -2.497586592393     0.091604206065     0.157148342524
    H           -1.209480544612    -1.349316093311    -0.822218502452
    H           -1.149816718641    -1.437366040839     0.908048165680
    H           -2.569319073117     0.771404839333    -0.682407602559
    H           -3.368882325048    -0.554514679811     0.152110518241
    H           -2.520448562673     0.684603716235     1.064131307778
    C            2.343232648789    -0.100692923460    -0.271960538328
    H            2.262343924263     0.212549322935    -1.303605556599
    H            3.077842830199    -0.885029936726    -0.176927958010
    H            2.621328107001     0.747311152744     0.336531310568

  Mulliken Charges: (a.u.)
   Center  Symbol    Alpha    Beta     Spin     Total
       1     O     4.28284  4.28284  0.00000 -0.56567
       2     C     2.60802  2.60802  0.00000  0.78396
       3     C     3.20525  3.20525  0.00000 -0.41051
       4     O     4.30705  4.30705  0.00000 -0.61409
       5     C     3.24001  3.24001  0.00000 -0.48002
       6     H     0.40053  0.40053  0.00000  0.19894
       7     H     0.40034  0.40034  0.00000  0.19931
       8     H     0.40725  0.40725  0.00000  0.18550
       9     H     0.41763  0.41763  0.00000  0.16474
      10     H     0.41201  0.41201  0.00000  0.17598
      11     C     3.09230  3.09230  0.00000 -0.18461
      12     H     0.41207  0.41207  0.00000  0.17587
      13     H     0.40813  0.40813  0.00000  0.18373
      14     H     0.40657  0.40657  0.00000  0.18686

   Total alpha = 24.00000, Total beta = 24.00000, Total charge =  0.00000
