  ==> Input File <==

--------------------------------------------------------------------------
set {
	reference rhf
	basis 6-31G*
}

set_num_threads( 4 )
memory 2 gb

molecule MOL {
0 1

H	 2.016925	 -1.292462	 0.850878
O	 2.016064	 -0.864478	 0.000222
C	 1.050492	 0.053836	 0.000068
C	 -0.318135	 -0.576402	 0.000164
O	 1.285279	 1.218255	 -0.000078
C	 -1.454360	 0.441875	 -0.000474
H	 -0.374042	 -1.230163	 -0.866135
H	 -0.374274	 -1.229227	 0.867154
C	 -2.826123	 -0.230780	 0.000056
H	 -1.357605	 1.085198	 -0.868380
H	 -1.357504	 1.086451	 0.866496
H	 -2.959731	 -0.858053	 -0.876869
H	 -3.619374	 0.509403	 -0.000080
H	 -2.959371	 -0.857318	 0.877556

	symmetry c1
}
set optking {
	frozen_dihedral = ("
		1 2 3 5
	")
}

ee = optimize('scf')
oeprop('DIPOLE', 'QUADRUPOLE', 'MULLIKEN_CHARGES')
f=open( 'psi4out.xyz', 'w' )
f.write( "14  " )
f.write( str(ee) + "\n" )
f.write( MOL.save_string_xyz() )
f.close()
--------------------------------------------------------------------------

    Molecular point group: c1
  Charge       = 0
  Multiplicity = 1
  Basis Set: 6-31G*
  Basis Set:
  @DF-RHF Final Energy:  -305.85807870499173
    Total Energy =                       -305.8580787049913852
    Molecular point group: c1
  Basis Set: 6-31G*
  Basis Set:
  Basis Set: 6-31G*
  Basis Set:
  @DF-RHF Final Energy:  -305.85952029699729
    Total Energy =                       -305.8595202969972320
  Basis Set: 6-31G*
  Basis Set:
  Basis Set: 6-31G*
  Basis Set:
  @DF-RHF Final Energy:  -305.85863054633637
    Total Energy =                       -305.8586305463365420
  Basis Set: 6-31G*
  Basis Set:
  Basis Set: 6-31G*
  Basis Set:
  @DF-RHF Final Energy:  -305.85976511556316
    Total Energy =                       -305.8597651155632207
  Basis Set: 6-31G*
  Basis Set:
  Basis Set: 6-31G*
  Basis Set:
  @DF-RHF Final Energy:  -305.85977603897067
    Total Energy =                       -305.8597760389707787
  Basis Set: 6-31G*
  Basis Set:
  Basis Set: 6-31G*
  Basis Set:
  @DF-RHF Final Energy:  -305.85977707421517
    Total Energy =                       -305.8597770742151170
  Basis Set: 6-31G*
  Basis Set:
  Charge       = 0
  Multiplicity = 1
  Basis Set: 6-31G*
  Basis Set:

    Orbital Energies (a.u.)
    -----------------------

    Doubly Occupied:

       1A    -20.596501     2A    -20.561588     3A    -11.381851
       4A    -11.246345     5A    -11.228619     6A    -11.220059
       7A     -1.460968     8A     -1.368871     9A     -1.084728
      10A     -0.976949    11A     -0.851309    12A     -0.803163
      13A     -0.714643    14A     -0.673169    15A     -0.662057
      16A     -0.629938    17A     -0.580586    18A     -0.562752
      19A     -0.544506    20A     -0.505777    21A     -0.497139
      22A     -0.485726    23A     -0.482252    24A     -0.444189

  @DF-RHF Final Energy:  -305.85977714452241

   => Energetics <=

    Nuclear Repulsion Energy =            239.2086115887478286
    One-Electron Energy =                -891.0094043133374271
    Two-Electron Energy =                 345.9410155800671305
    DFT Exchange-Correlation Energy =       0.0000000000000000
    Empirical Dispersion Energy =           0.0000000000000000
    PCM Polarization Energy =               0.0000000000000000
    EFP Energy =                            0.0000000000000000
    Total Energy =                       -305.8597771445225248
    Molecular point group: c1
  Basis Set: 6-31G*
  Basis Set:

  -Total Gradient:
     Atom            X                  Y                   Z
    ------   -----------------  -----------------  -----------------
       1        0.002181662839     0.002447603011     0.001058756905
       2       -0.002705250030    -0.003066470268     0.000026790948
       3        0.000458654411     0.000538025618    -0.004128653190
       4        0.000014643828    -0.000011781643     0.000002709614
       5        0.000038631252     0.000084706982     0.003031214807
       6       -0.000002026551     0.000002629522     0.000008194700
       7        0.000002720671    -0.000000232735     0.000003449605
       8        0.000004104271     0.000002572628     0.000006357208
       9        0.000004741137    -0.000001273722    -0.000005050444
      10       -0.000002838822     0.000003523694    -0.000003800076
      11        0.000000782809    -0.000000457441     0.000000367658
      12       -0.000000680469    -0.000000965207    -0.000000619611
      13        0.000003278689     0.000000977220    -0.000000368434
      14        0.000001575960     0.000001142341     0.000000650311

  **** Optimization is complete! (in 7 steps) ****
    Final optimized geometry and variables:
    Molecular point group: c1

    Geometry (in Angstrom), charge = 0, multiplicity = 1:

    H            2.138623197252    -1.281814547645     0.858120606194
    O            2.067855677228    -0.853388614885     0.014011997311
    C            1.057737585675     0.057130621409    -0.003977563477
    C           -0.320440008601    -0.561710747540    -0.004445261528
    O            1.280146638038     1.214182310607    -0.049368567576
    C           -1.455603167627     0.457529168877    -0.000545035190
    H           -0.375881021025    -1.210509695160    -0.875022201760
    H           -0.391621273745    -1.224473737411     0.856775903275
    C           -2.829469601388    -0.210739494642    -0.011536069025
    H           -1.351696395997     1.106554717601    -0.862981197793
    H           -1.361150249595     1.095810053421     0.871732277480
    H           -2.960559719438    -0.830992182209    -0.893722681460
    H           -3.620234789210     0.531995977110    -0.010412751846
    H           -2.969954658239    -0.843161611349     0.860781246185

  Mulliken Charges: (a.u.)
   Center  Symbol    Alpha    Beta     Spin     Total
       1     H     0.26773  0.26773  0.00000  0.46454
       2     O     4.36730  4.36730  0.00000 -0.73459
       3     C     2.62622  2.62622  0.00000  0.74757
       4     C     3.21309  3.21309  0.00000 -0.42619
       5     O     4.24563  4.24563  0.00000 -0.49127
       6     C     3.15219  3.15219  0.00000 -0.30438
       7     H     0.39684  0.39684  0.00000  0.20632
       8     H     0.41300  0.41300  0.00000  0.17399
       9     C     3.24307  3.24307  0.00000 -0.48613
      10     H     0.40755  0.40755  0.00000  0.18490
      11     H     0.41161  0.41161  0.00000  0.17678
      12     H     0.42017  0.42017  0.00000  0.15966
      13     H     0.41366  0.41366  0.00000  0.17269
      14     H     0.42195  0.42195  0.00000  0.15610

   Total alpha = 24.00000, Total beta = 24.00000, Total charge =  0.00000
