  ==> Input File <==

--------------------------------------------------------------------------
set {
	reference rhf
	basis 6-31G*
}

set_num_threads( 4 )
memory 2 gb

molecule MOL {
0 1

H	 1.052357	 -1.098691	 -0.793056
O	 1.247181	 -0.198320	 -1.014931
C	 0.709265	 0.639550	 -0.033818
C	 -0.793441	 0.596080	 0.058728
H	 1.029690	 1.644191	 -0.285268
H	 1.133950	 0.413246	 0.943655
C	 -1.530462	 -0.493172	 -0.025500
H	 -1.268471	 1.554324	 0.202247
H	 -1.092586	 -1.461565	 -0.186463
H	 -2.602122	 -0.450675	 0.050101

	symmetry c1
}
set optking {
	frozen_dihedral = ("
		5 3 4 7
	")
}

ee = optimize('scf')
oeprop('DIPOLE', 'QUADRUPOLE', 'MULLIKEN_CHARGES')
f=open( 'psi4out.xyz', 'w' )
f.write( "10  " )
f.write( str(ee) + "\n" )
f.write( MOL.save_string_xyz() )
f.close()
--------------------------------------------------------------------------

    Molecular point group: c1
  Charge       = 0
  Multiplicity = 1
  Basis Set: 6-31G*
  Basis Set:
  @DF-RHF Final Energy:  -191.91135313056833
    Total Energy =                       -191.9113531305683580
    Molecular point group: c1
  Basis Set: 6-31G*
  Basis Set:
  Basis Set: 6-31G*
  Basis Set:
  @DF-RHF Final Energy:  -191.91173767831049
    Total Energy =                       -191.9117376783104305
  Basis Set: 6-31G*
  Basis Set:
  Basis Set: 6-31G*
  Basis Set:
  @DF-RHF Final Energy:  -191.91181035111782
    Total Energy =                       -191.9118103511177367
  Basis Set: 6-31G*
  Basis Set:
  Basis Set: 6-31G*
  Basis Set:
  @DF-RHF Final Energy:  -191.91182185419302
    Total Energy =                       -191.9118218541930219
  Basis Set: 6-31G*
  Basis Set:
  Basis Set: 6-31G*
  Basis Set:
  @DF-RHF Final Energy:  -191.91182452323818
    Total Energy =                       -191.9118245232381810
  Basis Set: 6-31G*
  Basis Set:
  Charge       = 0
  Multiplicity = 1
  Basis Set: 6-31G*
  Basis Set:

    Orbital Energies (a.u.)
    -----------------------

    Doubly Occupied:

       1A    -20.559545     2A    -11.278352     3A    -11.231988
       4A    -11.223125     5A     -1.367530     6A     -1.059283
       7A     -0.928798     8A     -0.767651     9A     -0.696842
      10A     -0.656743    11A     -0.619977    12A     -0.570688
      13A     -0.527738    14A     -0.504157    15A     -0.441297
      16A     -0.366584

  @DF-RHF Final Energy:  -191.91182489375774

   => Energetics <=

    Nuclear Repulsion Energy =            118.6523801736040724
    One-Electron Energy =                -495.5278130651985293
    Two-Electron Energy =                 184.9636079978366752
    DFT Exchange-Correlation Energy =       0.0000000000000000
    Empirical Dispersion Energy =           0.0000000000000000
    PCM Polarization Energy =               0.0000000000000000
    EFP Energy =                            0.0000000000000000
    Total Energy =                       -191.9118248937577960
    Molecular point group: c1
  Basis Set: 6-31G*
  Basis Set:

  -Total Gradient:
     Atom            X                  Y                   Z
    ------   -----------------  -----------------  -----------------
       1       -0.000001437412    -0.000019326604    -0.000005452307
       2       -0.000028708713     0.000055946703     0.000055652144
       3       -0.000195940860    -0.001420880150    -0.003028408809
       4       -0.000326985145     0.000891124362    -0.004802634998
       5        0.000252733170     0.000929178699     0.003929654102
       6        0.000018644223     0.000006798466     0.000032764745
       7        0.000281102188    -0.000458588952     0.003826726252
       8        0.000002199540     0.000009646745     0.000008944004
       9        0.000001172514     0.000001477492    -0.000007363013
      10       -0.000002779507     0.000004623239    -0.000009882120

  **** Optimization is complete! (in 6 steps) ****
    Final optimized geometry and variables:
    Molecular point group: c1

    Geometry (in Angstrom), charge = 0, multiplicity = 1:

    H            1.185681384008    -1.224500225179    -0.439150796604
    O            1.280008581300    -0.327436515916    -0.724690337102
    C            0.729438493122     0.533452280616     0.230329118519
    C           -0.779175962743     0.494521169213     0.334644051787
    H            1.051575785880     1.535057971726    -0.021821146609
    H            1.150816478468     0.329126116028     1.214781697934
    C           -1.524659170082    -0.588936502171     0.255409489756
    H           -1.250770392132     1.436384897963     0.565844873793
    H           -1.114546526625    -1.559250612221     0.031486541034
    H           -2.591350725037    -0.547700747490     0.382064586654

  Mulliken Charges: (a.u.)
   Center  Symbol    Alpha    Beta     Spin     Total
       1     H     0.27936  0.27936  0.00000  0.44128
       2     O     4.36362  4.36362  0.00000 -0.72725
       3     C     3.00897  3.00897  0.00000 -0.01794
       4     C     3.08125  3.08125  0.00000 -0.16249
       5     H     0.41122  0.41122  0.00000  0.17756
       6     H     0.42273  0.42273  0.00000  0.15454
       7     C     3.19554  3.19554  0.00000 -0.39109
       8     H     0.40841  0.40841  0.00000  0.18317
       9     H     0.42014  0.42014  0.00000  0.15973
      10     H     0.40875  0.40875  0.00000  0.18250

   Total alpha = 16.00000, Total beta = 16.00000, Total charge =  0.00000
