  ==> Input File <==

--------------------------------------------------------------------------
set {
	reference rhf
	basis 6-31G*
}

set_num_threads( 1 )
memory 2 gb

molecule MOL {
0 1

H	 2.956136	 -0.177377	 5.438607
C	 2.535546	 -0.965985	 4.822389
C	 1.363655	 -0.449759	 3.988508
H	 3.328602	 -1.346664	 4.185611
H	 2.224995	 -1.771489	 5.482329
C	 0.742200	 -1.539399	 3.111986
H	 1.702807	 0.368824	 3.362009
H	 0.601661	 -0.043714	 4.651972
C	 -0.445261	 -1.056564	 2.278876
H	 1.496506	 -1.945956	 2.447623
H	 0.405118	 -2.356230	 3.746182
C	 -0.071031	 -0.126261	 1.134441
H	 -0.951422	 -1.910464	 1.831186
H	 -1.188610	 -0.570522	 2.906867
C	 -1.181045	 0.701995	 0.511084
O	 1.048458	 -0.058196	 0.723934
C	 -2.285934	 -0.139295	 -0.145128
H	 -0.718275	 1.350507	 -0.223076
H	 -1.618572	 1.331434	 1.283782
C	 -3.651768	 0.085446	 0.506485
H	 -2.346596	 0.110469	 -1.202272
H	 -2.034737	 -1.195320	 -0.088721
C	 -4.759797	 -0.746382	 -0.137905
H	 -3.908762	 1.140117	 0.445781
H	 -3.588286	 -0.154158	 1.565709
H	 -4.868882	 -0.505166	 -1.191300
H	 -4.548009	 -1.809175	 -0.062213
H	 -5.715422	 -0.564821	 0.343442

	symmetry c1
}
set optking {
	frozen_dihedral = ("
		10 6 3 2,
		16 12 15 17
	")
}

ee = energy('scf')
oeprop('DIPOLE', 'QUADRUPOLE', 'MULLIKEN_CHARGES')
f=open( 'psi4out.xyz', 'w' )
f.write( "28  " )
f.write( str(ee) + "\n" )
f.write( MOL.save_string_xyz() )
f.close()
--------------------------------------------------------------------------

    Molecular point group: c1

    Geometry (in Angstrom), charge = 0, multiplicity = 1:

       Center              X                  Y                   Z               Mass
    ------------   -----------------  -----------------  -----------------  -----------------
           H          3.625846830389     0.258077315312     3.752719638457     1.007825032070
           C          3.205256830389    -0.530530684688     3.136501638457    12.000000000000
           C          2.033365830389    -0.014304684688     2.302620638457    12.000000000000
           H          3.998312830389    -0.911209684688     2.499723638457     1.007825032070
           H          2.894705830389    -1.336034684688     3.796441638457     1.007825032070
           C          1.411910830389    -1.103944684688     1.426098638457    12.000000000000
           H          2.372517830389     0.804278315312     1.676121638457     1.007825032070
           H          1.271371830389     0.391740315312     2.966084638457     1.007825032070
           C          0.224449830389    -0.621109684688     0.592988638457    12.000000000000
           H          2.166216830389    -1.510501684688     0.761735638457     1.007825032070
           H          1.074828830389    -1.920775684688     2.060294638457     1.007825032070
           C          0.598679830389     0.309193315312    -0.551446361543    12.000000000000
           H         -0.281711169611    -1.475009684688     0.145298638457     1.007825032070
           H         -0.518899169611    -0.135067684688     1.220979638457     1.007825032070
           C         -0.511334169611     1.137449315312    -1.174803361543    12.000000000000
           O          1.718168830389     0.377258315312    -0.961953361543    15.994914619560
           C         -1.616223169611     0.296159315312    -1.831015361543    12.000000000000
           H         -0.048564169611     1.785961315312    -1.908963361543     1.007825032070
           H         -0.948861169611     1.766888315312    -0.402105361543     1.007825032070
           C         -2.982057169611     0.520900315312    -1.179402361543    12.000000000000
           H         -1.676885169611     0.545923315312    -2.888159361543     1.007825032070
           H         -1.365026169611    -0.759865684688    -1.774608361543     1.007825032070
           C         -4.090086169611    -0.310927684688    -1.823792361543    12.000000000000
           H         -3.239051169611     1.575571315312    -1.240106361543     1.007825032070
           H         -2.918575169611     0.281296315312    -0.120178361543     1.007825032070
           H         -4.199171169611    -0.069711684688    -2.877187361543     1.007825032070
           H         -3.878298169611    -1.373720684688    -1.748100361543     1.007825032070
           H         -5.045711169611    -0.129366684688    -1.342445361543     1.007825032070

  Charge       = 0
  Multiplicity = 1
  Basis Set: 6-31G*
  Basis Set:

    Orbital Energies (a.u.)
    -----------------------

    Doubly Occupied:

       1A    -20.547867     2A    -11.322078     3A    -11.231389
       4A    -11.230408     5A    -11.227375     6A    -11.227093
       7A    -11.216903     8A    -11.216789     9A    -11.212578
      10A    -11.205909    11A     -1.393055    12A     -1.096585
      13A     -1.077460    14A     -1.021878    15A     -0.991407
      16A     -0.907059    17A     -0.874525    18A     -0.812540
      19A     -0.798807    20A     -0.723812    21A     -0.667912
      22A     -0.653880    23A     -0.626440    24A     -0.614797
      25A     -0.610930    26A     -0.592213    27A     -0.577336
      28A     -0.573758    29A     -0.543690    30A     -0.536445
      31A     -0.522793    32A     -0.513182    33A     -0.497115
      34A     -0.482447    35A     -0.479246    36A     -0.476875
      37A     -0.466092    38A     -0.464550    39A     -0.455347
      40A     -0.392561

  @DF-RHF Final Energy:  -426.16328990768034

   => Energetics <=

    Nuclear Repulsion Energy =            537.1464636275865132
    One-Electron Energy =               -1642.4534455971884199
    Two-Electron Energy =                 679.1436920619205466
    DFT Exchange-Correlation Energy =       0.0000000000000000
    Empirical Dispersion Energy =           0.0000000000000000
    PCM Polarization Energy =               0.0000000000000000
    EFP Energy =                            0.0000000000000000
    Total Energy =                       -426.1632899076814738

  Mulliken Charges: (a.u.)
   Center  Symbol    Alpha    Beta     Spin     Total
       1     H     0.41929  0.41929  0.00000  0.16143
       2     C     3.24015  3.24015  0.00000 -0.48030
       3     C     3.15643  3.15643  0.00000 -0.31286
       4     H     0.41825  0.41825  0.00000  0.16349
       5     H     0.42361  0.42361  0.00000  0.15278
       6     C     3.14884  3.14884  0.00000 -0.29769
       7     H     0.41039  0.41039  0.00000  0.17921
       8     H     0.42768  0.42768  0.00000  0.14465
       9     C     3.21131  3.21131  0.00000 -0.42263
      10     H     0.40648  0.40648  0.00000  0.18703
      11     H     0.42196  0.42196  0.00000  0.15608
      12     C     2.73588  2.73588  0.00000  0.52824
      13     H     0.40333  0.40333  0.00000  0.19334
      14     H     0.41292  0.41292  0.00000  0.17417
      15     C     3.20309  3.20309  0.00000 -0.40618
      16     O     4.26647  4.26647  0.00000 -0.53294
      17     C     3.16273  3.16273  0.00000 -0.32545
      18     H     0.39758  0.39758  0.00000  0.20483
      19     H     0.40993  0.40993  0.00000  0.18014
      20     C     3.15609  3.15609  0.00000 -0.31219
      21     H     0.41096  0.41096  0.00000  0.17807
      22     H     0.41688  0.41688  0.00000  0.16623
      23     C     3.24066  3.24066  0.00000 -0.48132
      24     H     0.41928  0.41928  0.00000  0.16145
      25     H     0.42195  0.42195  0.00000  0.15610
      26     H     0.41966  0.41966  0.00000  0.16067
      27     H     0.42084  0.42084  0.00000  0.15832
      28     H     0.41735  0.41735  0.00000  0.16530

   Total alpha = 40.00000, Total beta = 40.00000, Total charge =  0.00000
