                              Psi4 1.0.54 Driver

  ==> Input File <==

--------------------------------------------------------------------------
set {
	reference rhf
	basis cc-pvtz
}

set_num_threads( 4 )
memory 2 gb

molecule MOL {
0 1

O	 -2.101078	 -0.938304	 1.482148
C	 -1.743467	 0.061299	 0.958688
C	 -2.477033	 1.371393	 1.021826
O	 -0.637375	 0.157174	 0.243149
H	 -2.735806	 1.691651	 0.020731
H	 -3.368405	 1.257975	 1.616999
H	 -1.834089	 2.127918	 1.452941
C	 0.162530	 -1.009518	 0.097799
C	 1.587210	 -0.664190	 0.477086
H	 0.096803	 -1.356267	 -0.924704
H	 -0.233803	 -1.785900	 0.736810
C	 2.256770	 0.342732	 -0.454344
H	 2.154716	 -1.590834	 0.479041
H	 1.598751	 -0.289614	 1.496104
C	 3.698146	 0.643205	 -0.057145
H	 2.235038	 -0.042575	 -1.470299
H	 1.683491	 1.262594	 -0.461300
H	 4.150202	 1.356548	 -0.736242
H	 4.305463	 -0.255904	 -0.069842
H	 3.749130	 1.061068	 0.942759

	symmetry c1
}
set optking {
	frozen_dihedral = ("
		2 4 8 10
	")
}

ee,wfn = optimize('scf', return_wfn=True)
oeprop( wfn, 'DIPOLE', 'QUADRUPOLE', 'MULLIKEN_CHARGES')
f=open( 'psi4out.xyz', 'w' )
f.write( "20  " )
f.write( str(ee) + "\n" )
f.write( MOL.save_string_xyz() )
f.close()
--------------------------------------------------------------------------

    Molecular point group: c1
  Charge       = 0
  Multiplicity = 1
  Basis Set: CC-PVTZ
  Basis Set:
  @DF-RHF Final Energy:  -384.08474761150120
    Total Energy =                       -384.0847476115013706
    Molecular point group: c1
  Basis Set: CC-PVTZ
  Basis Set:
  Basis Set: CC-PVTZ
  Basis Set:
  @DF-RHF Final Energy:  -384.08482943024813
    Total Energy =                       -384.0848294302478507
  Basis Set: CC-PVTZ
  Basis Set:
  Basis Set: CC-PVTZ
  Basis Set:
  @DF-RHF Final Energy:  -384.08547104418784
    Total Energy =                       -384.0854710441878979
  Basis Set: CC-PVTZ
  Basis Set:
  Basis Set: CC-PVTZ
  Basis Set:
  @DF-RHF Final Energy:  -384.08521325170773
    Total Energy =                       -384.0852132517073869
  Basis Set: CC-PVTZ
  Basis Set:
  Basis Set: CC-PVTZ
  Basis Set:
  @DF-RHF Final Energy:  -384.08551426630333
    Total Energy =                       -384.0855142663027664
  Basis Set: CC-PVTZ
  Basis Set:
  Charge       = 0
  Multiplicity = 1
  Basis Set: CC-PVTZ
  Basis Set:

    Orbital Energies (a.u.)
    -----------------------

    Doubly Occupied:

       1A    -20.593273     2A    -20.532161     3A    -11.368174
       4A    -11.278791     5A    -11.231207     6A    -11.223312
       7A    -11.218614     8A    -11.211501     9A     -1.468579
      10A     -1.365757    11A     -1.086615    12A     -1.029277
      13A     -0.981647    14A     -0.884006    15A     -0.817384
      16A     -0.766448    17A     -0.697650    18A     -0.687538
      19A     -0.664541    20A     -0.632249    21A     -0.599583
      22A     -0.595022    23A     -0.570378    24A     -0.563093
      25A     -0.542461    26A     -0.526839    27A     -0.518942
      28A     -0.490441    29A     -0.475644    30A     -0.466273
      31A     -0.448346    32A     -0.441929

  @DF-RHF Final Energy:  -384.08551536262399

   => Energetics <=

    Nuclear Repulsion Energy =            385.8393771896934936
    One-Electron Energy =               -1287.8944291532793613
    Two-Electron Energy =                 517.9695366009619875
    DFT Exchange-Correlation Energy =       0.0000000000000000
    Empirical Dispersion Energy =           0.0000000000000000
    PCM Polarization Energy =               0.0000000000000000
    EFP Energy =                            0.0000000000000000
    Total Energy =                       -384.0855153626238234
    Molecular point group: c1
  Basis Set: CC-PVTZ
  Basis Set:

  -Total Gradient:
     Atom            X                  Y                   Z
    ------   -----------------  -----------------  -----------------
       1       -0.000019944212    -0.000126205234     0.000020107333
       2        0.000432490727     0.000190789042     0.000334580692
       3        0.000027943231     0.000022242657    -0.000006683949
       4       -0.000433254228    -0.000066418490    -0.000625305924
       5       -0.000012840669     0.000011810644    -0.000001593026
       6        0.000029771495    -0.000030661652    -0.000013415593
       7       -0.000006611467     0.000018388502    -0.000006898786
       8       -0.000448875242    -0.000351681085     0.000427660213
       9        0.000010662299    -0.000015055436    -0.000008024559
      10        0.000436119193     0.000359368312    -0.000110260649
      11       -0.000020518783    -0.000020000232     0.000005813963
      12        0.000006614623     0.000003287095    -0.000007485601
      13        0.000013384086     0.000005230378     0.000002234021
      14       -0.000017061397    -0.000007738746    -0.000006331452
      15       -0.000001713427     0.000006572154    -0.000003968809
      16        0.000001249192    -0.000000792212    -0.000002951940
      17        0.000001930370     0.000002252440     0.000002670008
      18        0.000002321237     0.000002314893    -0.000000632489
      19       -0.000000453039    -0.000002692391    -0.000000199834
      20       -0.000001213991    -0.000001010640     0.000000686381

  **** Optimization is complete! (in 6 steps) ****
    Final optimized geometry and variables:
    Molecular point group: c1

    Geometry (in Angstrom), charge = 0, multiplicity = 1:

    O           -2.306970005050    -0.851862672929     0.928178069378
    C           -1.849514927272     0.125835103124     0.443212209291
    C           -2.488391198285     1.484820165172     0.506268913614
    O           -0.710352824267     0.165696048952    -0.226533636771
    H           -2.675303005061     1.844039424995    -0.497491894308
    H           -3.412545326104     1.424345864020     1.057478581539
    H           -1.813090159703     2.182462847705     0.984469143934
    C            0.060881160983    -1.019873555761    -0.391730237835
    C            1.500566877552    -0.753464937539     0.002871377233
    H           -0.004875920221    -1.295576448658    -1.436898703233
    H           -0.367150377530    -1.808363445140     0.203005028752
    C            2.205130961632     0.291616768767    -0.857649768636
    H            2.034160392486    -1.698127968731    -0.063027670510
    H            1.527595790193    -0.453980309198     1.046469407215
    C            3.652640434856     0.521984946392    -0.437059243259
    H            2.177347204611    -0.025457978077    -1.896870629761
    H            1.659203156521     1.226565979727    -0.807327327093
    H            4.129222507734     1.264523101655    -1.066281582350
    H            4.232845492596    -0.392239230853    -0.506864979379
    H            3.711023466373     0.871395474582     0.588379475262

  Mulliken Charges: (a.u.)
   Center  Symbol    Alpha    Beta     Spin     Total
       1     O     4.19813  4.19813  0.00000 -0.39626
       2     C     2.80201  2.80201  0.00000  0.39597
       3     C     3.14104  3.14104  0.00000 -0.28209
       4     O     4.15849  4.15849  0.00000 -0.31698
       5     H     0.44569  0.44569  0.00000  0.10862
       6     H     0.43776  0.43776  0.00000  0.12447
       7     H     0.44665  0.44665  0.00000  0.10670
       8     C     2.99971  2.99971  0.00000  0.00059
       9     C     3.08814  3.08814  0.00000 -0.17629
      10     H     0.45299  0.45299  0.00000  0.09402
      11     H     0.43148  0.43148  0.00000  0.13703
      12     C     3.08563  3.08563  0.00000 -0.17126
      13     H     0.45180  0.45180  0.00000  0.09640
      14     H     0.45089  0.45089  0.00000  0.09821
      15     C     3.14955  3.14955  0.00000 -0.29910
      16     H     0.45595  0.45595  0.00000  0.08809
      17     H     0.44677  0.44677  0.00000  0.10647
      18     H     0.44752  0.44752  0.00000  0.10496
      19     H     0.45544  0.45544  0.00000  0.08912
      20     H     0.45435  0.45435  0.00000  0.09131

   Total alpha = 32.00000, Total beta = 32.00000, Total charge = -0.00000

*** Psi4 exiting successfully. Buy a developer a beer!
