                              Psi4 1.0.54 Driver

  ==> Input File <==

--------------------------------------------------------------------------
set {
	reference rhf
	basis cc-pvtz
}

set_num_threads( 4 )
memory 2 gb

molecule MOL {
0 1

H	 1.661577	 0.441113	 -2.902664
C	 1.593065	 0.398808	 -1.820860
C	 0.172366	 0.051844	 -1.396909
H	 1.879035	 1.363418	 -1.420023
H	 2.314247	 -0.331809	 -1.476145
N	 0.000297	 0.000045	 0.046090
H	 -0.489383	 0.809835	 -1.792705
H	 -0.134395	 -0.889554	 -1.861234
C	 -1.359159	 0.315706	 0.454404
C	 0.474790	 -1.250305	 0.617058
C	 -2.416729	 -0.286720	 -0.460525
H	 -1.478729	 1.390261	 0.442008
H	 -1.539692	 0.003361	 1.486761
C	 0.938898	 -1.113792	 2.060805
H	 1.311691	 -1.599144	 0.028018
H	 -0.290576	 -2.028090	 0.545096
H	 -2.285276	 0.073129	 -1.473515
H	 -2.371743	 -1.368476	 -0.483209
H	 -3.408658	 -0.007405	 -0.121593
H	 1.745415	 -0.394218	 2.129010
H	 0.143482	 -0.785382	 2.718253
H	 1.296598	 -2.068539	 2.431372

	symmetry c1
}
set optking {
	frozen_dihedral = ("
		3 6 9 11
	")
}

ee,wfn = optimize('scf', return_wfn=True)
oeprop( wfn, 'DIPOLE', 'QUADRUPOLE', 'MULLIKEN_CHARGES')
f=open( 'psi4out.xyz', 'w' )
f.write( "22  " )
f.write( str(ee) + "\n" )
f.write( MOL.save_string_xyz() )
f.close()
--------------------------------------------------------------------------

    Molecular point group: c1
  Charge       = 0
  Multiplicity = 1
  Basis Set: CC-PVTZ
  Basis Set:
  @DF-RHF Final Energy:  -290.46911717401821
    Total Energy =                       -290.4691171740183790
    Molecular point group: c1
  Basis Set: CC-PVTZ
  Basis Set:
  Basis Set: CC-PVTZ
  Basis Set:
  @DF-RHF Final Energy:  -289.98377875088846
    Total Energy =                       -289.9837787508886322
  Basis Set: CC-PVTZ
  Basis Set:
  Basis Set: CC-PVTZ
  Basis Set:
  @DF-RHF Final Energy:  -290.16869123353530
    Total Energy =                       -290.1686912335351280
  Basis Set: CC-PVTZ
  Basis Set:
  Basis Set: CC-PVTZ
  Basis Set:
  @DF-RHF Final Energy:  -290.40319161719293
    Total Energy =                       -290.4031916171928742
  Basis Set: CC-PVTZ
  Basis Set:
  @DF-RHF Final Energy:  -290.46925933047891
    Total Energy =                       -290.4692593304788488
  @DF-RHF Final Energy:  -290.47158700099408
    Total Energy =                       -290.4715870009943046
  @DF-RHF Final Energy:  -290.47204045708008
    Total Energy =                       -290.4720404570800838
  Basis Set: CC-PVTZ
  Basis Set:
  @DF-RHF Final Energy:  -290.47214292178006
    Total Energy =                       -290.4721429217800051
  Basis Set: CC-PVTZ
  Basis Set:
  Basis Set: CC-PVTZ
  Basis Set:
  @DF-RHF Final Energy:  -290.47216794828040
    Total Energy =                       -290.4721679482801164
  Basis Set: CC-PVTZ
  Basis Set:
  Basis Set: CC-PVTZ
  Basis Set:
  @DF-RHF Final Energy:  -290.47216987429999
    Total Energy =                       -290.4721698742999934
  Basis Set: CC-PVTZ
  Basis Set:
  Charge       = 0
  Multiplicity = 1
  Basis Set: CC-PVTZ
  Basis Set:

    Orbital Energies (a.u.)
    -----------------------

    Doubly Occupied:

       1A    -15.531255     2A    -11.238536     3A    -11.238429
       4A    -11.237178     5A    -11.206384     6A    -11.202978
       7A    -11.202162     8A     -1.222468     9A     -1.023797
      10A     -1.022066    11A     -0.956475    12A     -0.857584
      13A     -0.847108    14A     -0.759328    15A     -0.659376
      16A     -0.642452    17A     -0.618611    18A     -0.597599
      19A     -0.575618    20A     -0.548095    21A     -0.543766
      22A     -0.517103    23A     -0.511414    24A     -0.507805
      25A     -0.493425    26A     -0.488738    27A     -0.464569
      28A     -0.459529    29A     -0.338992

  @DF-RHF Final Energy:  -290.47217007972387

   => Energetics <=

    Nuclear Repulsion Energy =            338.6728254570104468
    One-Electron Energy =               -1063.2643161032201533
    Two-Electron Energy =                 434.1193205664861239
    DFT Exchange-Correlation Energy =       0.0000000000000000
    Empirical Dispersion Energy =           0.0000000000000000
    PCM Polarization Energy =               0.0000000000000000
    EFP Energy =                            0.0000000000000000
    Total Energy =                       -290.4721700797235258
    Molecular point group: c1
  Basis Set: CC-PVTZ
  Basis Set:

  -Total Gradient:
     Atom            X                  Y                   Z
    ------   -----------------  -----------------  -----------------
       1       -0.000008626239     0.000004035466    -0.000006325093
       2       -0.000001842131     0.000000780828     0.000014731221
       3       -0.003549414748    -0.003747045016     0.000509095211
       4        0.000001715972    -0.000008654307     0.000001556583
       5        0.000010573667     0.000006639082     0.000000869225
       6        0.005968458379     0.006727255896    -0.002448608286
       7       -0.000007623854    -0.000013604438     0.000008700680
       8       -0.000004485399     0.000010633390    -0.000003277032
       9       -0.004419346612    -0.005928303855     0.005514787310
      10        0.000040670650    -0.000009285549    -0.000030021502
      11        0.002001612574     0.002965177344    -0.003612226615
      12        0.000005426733     0.000010839743    -0.000004728402
      13        0.000019573727    -0.000018182627     0.000037428470
      14       -0.000024130431     0.000007963065    -0.000005846814
      15       -0.000002439440    -0.000025342526    -0.000000068328
      16       -0.000009683561     0.000009441540     0.000002422857
      17       -0.000009738052    -0.000000936397     0.000000844024
      18       -0.000005075871    -0.000006672742     0.000002176776
      19       -0.000003168848     0.000000274672     0.000005879442
      20        0.000014628952     0.000000351353    -0.000005834630
      21       -0.000013005011     0.000023776203     0.000014622695
      22       -0.000004080456    -0.000009141126     0.000003822209

  **** Optimization is complete! (in 11 steps) ****
    Final optimized geometry and variables:
    Molecular point group: c1

    Geometry (in Angstrom), charge = 0, multiplicity = 1:

    H            1.816579049673    -0.856163869314    -2.754590115343
    C            1.738764438950    -0.661000601885    -1.690255953213
    C            0.347689373560    -0.136496358711    -1.356109488512
    H            2.489661181613     0.070759898244    -1.418956137150
    H            1.970128778761    -1.583737048908    -1.173274041140
    N            0.195197448931     0.209207793387     0.046446089633
    H            0.191354042180     0.762065025810    -1.939825773811
    H           -0.405115970959    -0.854925535704    -1.686538244049
    C           -0.827309414578     1.217807577650     0.308255605273
    C            0.051250373820    -0.959163302407     0.905367740732
    C           -2.129139029537     1.128766455752    -0.492904498241
    H           -0.392230802954     2.196133938082     0.122668198265
    H           -1.060125866774     1.191799108092     1.363441793714
    C            0.657954144358    -0.758108728884     2.287853900663
    H            0.550216633906    -1.796635560263     0.438670289126
    H           -0.995854325127    -1.253113320902     1.003856561562
    H           -1.971142236265     1.295243423217    -1.549682907076
    H           -2.617708103372     0.167492705399    -0.374728269440
    H           -2.816241904522     1.890813529626    -0.141670370345
    H            1.715637070689    -0.539988530795     2.205409089192
    H            0.191396123849     0.060310579984     2.822416073738
    H            0.535804936967    -1.654192146628     2.887456739392

  Mulliken Charges: (a.u.)
   Center  Symbol    Alpha    Beta     Spin     Total
       1     H     0.45280  0.45280  0.00000  0.09440
       2     C     3.14469  3.14469  0.00000 -0.28937
       3     C     3.03901  3.03901  0.00000 -0.07802
       4     H     0.45145  0.45145  0.00000  0.09711
       5     H     0.45623  0.45623  0.00000  0.08755
       6     N     3.62090  3.62090  0.00000 -0.24181
       7     H     0.45276  0.45276  0.00000  0.09447
       8     H     0.46290  0.46290  0.00000  0.07419
       9     C     3.05456  3.05456  0.00000 -0.10912
      10     C     3.04751  3.04751  0.00000 -0.09501
      11     C     3.15559  3.15559  0.00000 -0.31118
      12     H     0.44872  0.44872  0.00000  0.10257
      13     H     0.45190  0.45190  0.00000  0.09620
      14     C     3.13757  3.13757  0.00000 -0.27513
      15     H     0.44897  0.44897  0.00000  0.10206
      16     H     0.46154  0.46154  0.00000  0.07692
      17     H     0.45107  0.45107  0.00000  0.09786
      18     H     0.45251  0.45251  0.00000  0.09497
      19     H     0.44646  0.44646  0.00000  0.10708
      20     H     0.45200  0.45200  0.00000  0.09600
      21     H     0.45623  0.45623  0.00000  0.08755
      22     H     0.45464  0.45464  0.00000  0.09071

   Total alpha = 29.00000, Total beta = 29.00000, Total charge =  0.00000

*** Psi4 exiting successfully. Buy a developer a beer!
