                              Psi4 1.0.54 Driver

  ==> Input File <==

--------------------------------------------------------------------------
set {
	reference rhf
	basis cc-pvtz
}

set_num_threads( 4 )
memory 2 gb

molecule MOL {
0 1

H	 1.748046	 -0.351073	 -1.535915
C	 1.430225	 0.627841	 -1.153331
C	 0.692262	 0.592428	 0.156232
O	 1.671732	 1.609214	 -1.766695
C	 -0.554654	 -0.292621	 0.086567
H	 0.440405	 1.607019	 0.435536
H	 1.375429	 0.195213	 0.904150
C	 -1.846385	 0.513195	 -0.016346
H	 -0.473986	 -0.956115	 -0.769708
H	 -0.597929	 -0.929215	 0.966651
C	 -3.089953	 -0.365049	 -0.098564
H	 -1.798267	 1.154820	 -0.891143
H	 -1.925398	 1.173265	 0.842889
H	 -3.055079	 -1.012299	 -0.968245
H	 -3.988403	 0.236438	 -0.170014
H	 -3.183055	 -0.995885	 0.779079

	symmetry c1
}
set optking {
	frozen_dihedral = ("
		6 3 5 9
	")
}

ee,wfn = optimize('scf', return_wfn=True)
oeprop( wfn, 'DIPOLE', 'QUADRUPOLE', 'MULLIKEN_CHARGES')
f=open( 'psi4out.xyz', 'w' )
f.write( "16  " )
f.write( str(ee) + "\n" )
f.write( MOL.save_string_xyz() )
f.close()
--------------------------------------------------------------------------

    Molecular point group: c1
  Charge       = 0
  Multiplicity = 1
  Basis Set: CC-PVTZ
  Basis Set:
  @DF-RHF Final Energy:  -270.11519863993419
    Total Energy =                       -270.1151986399343627
    Molecular point group: c1
  Basis Set: CC-PVTZ
  Basis Set:
  Basis Set: CC-PVTZ
  Basis Set:
  @DF-RHF Final Energy:  -270.11541396012035
    Total Energy =                       -270.1154139601204065
  Basis Set: CC-PVTZ
  Basis Set:
  Basis Set: CC-PVTZ
  Basis Set:
  @DF-RHF Final Energy:  -270.11304266477828
    Total Energy =                       -270.1130426647784475
  Basis Set: CC-PVTZ
  Basis Set:
  Basis Set: CC-PVTZ
  Basis Set:
  @DF-RHF Final Energy:  -270.11549434429764
    Total Energy =                       -270.1154943442976446
  Basis Set: CC-PVTZ
  Basis Set:
  Basis Set: CC-PVTZ
  Basis Set:
  @DF-RHF Final Energy:  -270.11552199470771
    Total Energy =                       -270.1155219947075352
  Basis Set: CC-PVTZ
  Basis Set:
  Basis Set: CC-PVTZ
  Basis Set:
  @DF-RHF Final Energy:  -270.11552844372494
    Total Energy =                       -270.1155284437248838
  Basis Set: CC-PVTZ
  Basis Set:
  Basis Set: CC-PVTZ
  Basis Set:
  @DF-RHF Final Energy:  -270.11552960043252
    Total Energy =                       -270.1155296004327511
  Basis Set: CC-PVTZ
  Basis Set:
  Charge       = 0
  Multiplicity = 1
  Basis Set: CC-PVTZ
  Basis Set:

    Orbital Energies (a.u.)
    -----------------------

    Doubly Occupied:

       1A    -20.552316     2A    -11.321492     3A    -11.234500
       4A    -11.233873     5A    -11.224663     6A    -11.214830
       7A     -1.407320     8A     -1.095516     9A     -1.017723
      10A     -0.905982    11A     -0.813626    12A     -0.794204
      13A     -0.673725    14A     -0.656674    15A     -0.618786
      16A     -0.606855    17A     -0.591976    18A     -0.537213
      19A     -0.531495    20A     -0.526652    21A     -0.485860
      22A     -0.481518    23A     -0.468558    24A     -0.412773

  @DF-RHF Final Energy:  -270.11552975550524

   => Energetics <=

    Nuclear Repulsion Energy =            232.1298542479709397
    One-Electron Energy =                -825.6745077535497330
    Two-Electron Energy =                 323.4291237500736429
    DFT Exchange-Correlation Energy =       0.0000000000000000
    Empirical Dispersion Energy =           0.0000000000000000
    PCM Polarization Energy =               0.0000000000000000
    EFP Energy =                            0.0000000000000000
    Total Energy =                       -270.1155297555051789
    Molecular point group: c1
  Basis Set: CC-PVTZ
  Basis Set:

  -Total Gradient:
     Atom            X                  Y                   Z
    ------   -----------------  -----------------  -----------------
       1        0.000004240608     0.000003609187    -0.000007949890
       2       -0.000010715410     0.000005872685     0.000010319209
       3        0.000218455215    -0.000492603837     0.003590221147
       4        0.000009570418    -0.000004342818    -0.000007005516
       5        0.001760755013    -0.002584915838     0.001429372728
       6       -0.000465247518     0.000814348595    -0.003197696341
       7        0.000003823247     0.000001881716     0.000001241204
       8        0.000001321333     0.000002492511     0.000004893982
       9       -0.001524549662     0.002252397390    -0.001819659208
      10       -0.000000764565     0.000001156850    -0.000001781180
      11        0.000001276944    -0.000002736868    -0.000002369020
      12       -0.000002562545    -0.000002102075     0.000002593352
      13       -0.000002291784     0.000000914052    -0.000002533223
      14        0.000000436641     0.000000752589     0.000001268110
      15        0.000004349711     0.000001254269     0.000000039565
      16        0.000001902358     0.000002021592    -0.000000954919

  **** Optimization is complete! (in 8 steps) ****
    Final optimized geometry and variables:
    Molecular point group: c1

    Geometry (in Angstrom), charge = 0, multiplicity = 1:

    H            1.989638362770    -0.773572027078    -1.138054834562
    C            1.693573682835     0.194931764328    -0.713521940946
    C            1.018686068150     0.121932944180     0.630689089058
    O            1.906851376328     1.192722118097    -1.310395746131
    C           -0.242894036649    -0.763889922329     0.589214771330
    H            0.782128933506     1.135982903582     0.923013700651
    H            1.744709028702    -0.281989499450     1.329586018395
    C           -1.531741022516     0.051609936316     0.488575452713
    H           -0.196699082578    -1.426179123176    -0.271651599718
    H           -0.283681572653    -1.396889606019     1.467377876173
    C           -2.778410695357    -0.819289748716     0.384844760049
    H           -1.473637237343     0.708057949330    -0.374772208626
    H           -1.612069530120     0.697841787770     1.357500889807
    H           -2.745246593568    -1.448503517179    -0.498289492398
    H           -3.674102823305    -0.212594851308     0.324272987570
    H           -2.876231008223    -1.468234919369     1.248880479017

  Mulliken Charges: (a.u.)
   Center  Symbol    Alpha    Beta     Spin     Total
       1     H     0.46553  0.46553  0.00000  0.06893
       2     C     2.90356  2.90356  0.00000  0.19287
       3     C     3.08941  3.08941  0.00000 -0.17882
       4     O     4.16516  4.16516  0.00000 -0.33033
       5     C     3.10549  3.10549  0.00000 -0.21098
       6     H     0.44358  0.44358  0.00000  0.11283
       7     H     0.44080  0.44080  0.00000  0.11840
       8     C     3.08278  3.08278  0.00000 -0.16556
       9     H     0.45540  0.45540  0.00000  0.08921
      10     H     0.44394  0.44394  0.00000  0.11212
      11     C     3.14982  3.14982  0.00000 -0.29964
      12     H     0.44752  0.44752  0.00000  0.10496
      13     H     0.45158  0.45158  0.00000  0.09683
      14     H     0.45426  0.45426  0.00000  0.09148
      15     H     0.44612  0.44612  0.00000  0.10776
      16     H     0.45504  0.45504  0.00000  0.08992

   Total alpha = 24.00000, Total beta = 24.00000, Total charge = -0.00000

*** Psi4 exiting successfully. Buy a developer a beer!
