                              Psi4 1.0.54 Driver

  ==> Input File <==

--------------------------------------------------------------------------
set {
	reference rhf
	basis cc-pvtz
}

set_num_threads( 4 )
memory 2 gb

molecule MOL {
0 1

H	 1.357882	 -1.360836	 -0.000000
C	 0.788096	 -0.429819	 0.000000
N	 -0.537714	 -0.645117	 0.000000
O	 1.323889	 0.633028	 0.000000
C	 -1.522613	 0.412524	 0.000000
H	 -0.845894	 -1.585866	 0.000000
H	 -2.150256	 0.356137	 -0.880771
H	 -1.005621	 1.357208	 0.000000
H	 -2.150256	 0.356137	 0.880771

	symmetry c1
}
set optking {
	frozen_dihedral = ("
		1 2 3 6
	")
}

ee,wfn = optimize('scf', return_wfn=True)
oeprop( wfn, 'DIPOLE', 'QUADRUPOLE', 'MULLIKEN_CHARGES')
f=open( 'psi4out.xyz', 'w' )
f.write( "9  " )
f.write( str(ee) + "\n" )
f.write( MOL.save_string_xyz() )
f.close()
--------------------------------------------------------------------------

    Molecular point group: c1
  Charge       = 0
  Multiplicity = 1
  Basis Set: CC-PVTZ
  Basis Set:
  @DF-RHF Final Energy:  -208.04356668345423
    Total Energy =                       -208.0435666834542303
    Molecular point group: c1
  Basis Set: CC-PVTZ
  Basis Set:
  Charge       = 0
  Multiplicity = 1
  Basis Set: CC-PVTZ
  Basis Set:

    Orbital Energies (a.u.)
    -----------------------

    Doubly Occupied:

       1A    -20.515812     2A    -15.585161     3A    -11.337657
       4A    -11.259119     5A     -1.393441     6A     -1.239928
       7A     -0.970566     8A     -0.808237     9A     -0.748859
      10A     -0.646331    11A     -0.629217    12A     -0.596976
      13A     -0.554668    14A     -0.542890    15A     -0.428022
      16A     -0.395750

  @DF-RHF Final Energy:  -208.04356692988199

   => Energetics <=

    Nuclear Repulsion Energy =            122.6911195385702200
    One-Electron Energy =                -526.1641084166370774
    Two-Electron Energy =                 195.4294219481847676
    DFT Exchange-Correlation Energy =       0.0000000000000000
    Empirical Dispersion Energy =           0.0000000000000000
    PCM Polarization Energy =               0.0000000000000000
    EFP Energy =                            0.0000000000000000
    Total Energy =                       -208.0435669298821040
    Molecular point group: c1
  Basis Set: CC-PVTZ
  Basis Set:

  -Total Gradient:
     Atom            X                  Y                   Z
    ------   -----------------  -----------------  -----------------
       1        0.000016540477    -0.000023584092     0.000000011385
       2       -0.000034317887    -0.000125683261    -0.000000122361
       3        0.000108143735     0.000057539571     0.000000037829
       4       -0.000073272300     0.000046096658     0.000000064207
       5       -0.000034703657     0.000025458975     0.000000027111
       6        0.000020909705    -0.000002785589     0.000000019077
       7       -0.000002249211     0.000004731492     0.000003211834
       8        0.000001206793     0.000013484615    -0.000000011677
       9       -0.000002257655     0.000004741631    -0.000003237405

  **** Optimization is complete! (in 2 steps) ****
    Final optimized geometry and variables:
    Molecular point group: c1

    Geometry (in Angstrom), charge = 0, multiplicity = 1:

    H            1.358482007935    -1.361189370750    -0.000001564866
    C            0.788460669395    -0.430092461547    -0.000000456689
    N           -0.537464994042    -0.645216438462     0.000000107637
    O            1.323048023258     0.633296658720     0.000000779468
    C           -1.522288427483     0.412542409619    -0.000000378759
    H           -0.845484244235    -1.586119923370    -0.000000514489
    H           -2.150041527796     0.356422450959    -0.880770105090
    H           -1.005358743196     1.357414159282    -0.000001180230
    H           -2.150041451025     0.356423794508     0.880769445939

  Mulliken Charges: (a.u.)
   Center  Symbol    Alpha    Beta     Spin     Total
       1     H     0.46270  0.46270  0.00000  0.07460
       2     C     2.88099  2.88099  0.00000  0.23801
       3     N     3.60831  3.60831  0.00000 -0.21662
       4     O     4.21535  4.21535  0.00000 -0.43070
       5     C     3.08128  3.08128  0.00000 -0.16256
       6     H     0.40932  0.40932  0.00000  0.18135
       7     H     0.45470  0.45470  0.00000  0.09060
       8     H     0.43264  0.43264  0.00000  0.13472
       9     H     0.45470  0.45470  0.00000  0.09060

   Total alpha = 16.00000, Total beta = 16.00000, Total charge = -0.00000

*** Psi4 exiting successfully. Buy a developer a beer!
