                              Psi4 1.0.54 Driver

  ==> Input File <==

--------------------------------------------------------------------------
set {
	reference rhf
	basis cc-pvtz
}

set_num_threads( 4 )
memory 2 gb

molecule MOL {
0 1

H	 1.838229	 0.067684	 -1.061627
C	 1.045921	 -0.484944	 -0.604043
C	 1.039342	 -1.865044	 -0.600270
C	 0.000000	 0.179985	 0.000046
H	 1.843553	 -2.400779	 -1.064757
C	 0.000002	 -2.552036	 -0.000007
N	 0.000000	 1.644631	 0.000076
C	 -1.045922	 -0.484969	 0.604107
H	 0.000000	 -3.625035	 -0.000032
C	 -1.039341	 -1.865069	 0.600280
O	 1.050559	 2.194174	 -0.000073
O	 -1.050559	 2.194174	 -0.000074
H	 -1.838225	 0.067641	 1.061720
H	 -1.843554	 -2.400822	 1.064742

	symmetry c1
}
set optking {
	frozen_dihedral = ("
		2 4 7 11
	")
}

ee,wfn = optimize('scf', return_wfn=True)
oeprop( wfn, 'DIPOLE', 'QUADRUPOLE', 'MULLIKEN_CHARGES')
f=open( 'psi4out.xyz', 'w' )
f.write( "14  " )
f.write( str(ee) + "\n" )
f.write( MOL.save_string_xyz() )
f.close()
--------------------------------------------------------------------------

    Molecular point group: c1
  Charge       = 0
  Multiplicity = 1
  Basis Set: CC-PVTZ
  Basis Set:
  @DF-RHF Final Energy:  -434.32830169967832
    Total Energy =                       -434.3283016996786046
    Molecular point group: c1
  Basis Set: CC-PVTZ
  Basis Set:
  Basis Set: CC-PVTZ
  Basis Set:
  @DF-RHF Final Energy:  -434.32042997113223
    Total Energy =                       -434.3204299711319436
  Basis Set: CC-PVTZ
  Basis Set:
  Basis Set: CC-PVTZ
  Basis Set:
  @DF-RHF Final Energy:  -434.32708931715302
    Total Energy =                       -434.3270893171529679
  Basis Set: CC-PVTZ
  Basis Set:
  Basis Set: CC-PVTZ
  Basis Set:
  @DF-RHF Final Energy:  -434.32843191459625
    Total Energy =                       -434.3284319145960808
  Basis Set: CC-PVTZ
  Basis Set:
  Basis Set: CC-PVTZ
  Basis Set:
  @DF-RHF Final Energy:  -434.32840407325023
    Total Energy =                       -434.3284040732503399
  Basis Set: CC-PVTZ
  Basis Set:
  Basis Set: CC-PVTZ
  Basis Set:
  @DF-RHF Final Energy:  -434.32849789132763
    Total Energy =                       -434.3284978913278565
  Basis Set: CC-PVTZ
  Basis Set:
  Basis Set: CC-PVTZ
  Basis Set:
  @DF-RHF Final Energy:  -434.32849838236598
    Total Energy =                       -434.3284983823660923
  Basis Set: CC-PVTZ
  Basis Set:
  Charge       = 0
  Multiplicity = 1
  Basis Set: CC-PVTZ
  Basis Set:

    Orbital Energies (a.u.)
    -----------------------

    Doubly Occupied:

       1A    -20.593064     2A    -20.592969     3A    -15.847491
       4A    -11.303408     5A    -11.267727     6A    -11.267587
       7A    -11.263784     8A    -11.258905     9A    -11.258727
      10A     -1.641651    11A     -1.424353    12A     -1.205320
      13A     -1.096341    14A     -1.055746    15A     -0.959546
      16A     -0.869344    17A     -0.829362    18A     -0.788206
      19A     -0.740456    20A     -0.735518    21A     -0.713538
      22A     -0.657958    23A     -0.651739    24A     -0.626418
      25A     -0.557233    26A     -0.543837    27A     -0.532161
      28A     -0.494468    29A     -0.490815    30A     -0.456947
      31A     -0.376196    32A     -0.369846

  @DF-RHF Final Energy:  -434.32849863726193

   => Energetics <=

    Nuclear Repulsion Energy =            418.1658143800072480
    One-Electron Energy =               -1420.0473014273190984
    Two-Electron Energy =                 567.5529884100498066
    DFT Exchange-Correlation Energy =       0.0000000000000000
    Empirical Dispersion Energy =           0.0000000000000000
    PCM Polarization Energy =               0.0000000000000000
    EFP Energy =                            0.0000000000000000
    Total Energy =                       -434.3284986372619869
    Molecular point group: c1
  Basis Set: CC-PVTZ
  Basis Set:

  -Total Gradient:
     Atom            X                  Y                   Z
    ------   -----------------  -----------------  -----------------
       1       -0.000002467585     0.000000005851    -0.000000667809
       2       -0.001538963554     0.000002131173    -0.002477340771
       3        0.000002008837    -0.000006088949     0.000000058665
       4        0.002296213885    -0.000009626228     0.004836012133
       5        0.000000597413    -0.000001124696     0.000000790346
       6       -0.000001887242    -0.000001189445    -0.000005658510
       7       -0.000893897218     0.000012329466    -0.005756171140
       8       -0.000000286336    -0.000006391233     0.000023657726
       9        0.000000743081    -0.000000704348     0.000001031298
      10        0.000002587637    -0.000001388117     0.000000530735
      11        0.000103511671    -0.000014933013     0.003378059788
      12        0.000026348008     0.000033492323     0.000001292669
      13        0.000006231541    -0.000006258842    -0.000000266768
      14       -0.000000740139    -0.000000253938    -0.000001328360

  **** Optimization is complete! (in 8 steps) ****
    Final optimized geometry and variables:
    Molecular point group: c1

    Geometry (in Angstrom), charge = 0, multiplicity = 1:

    H            1.830142078812     0.073718109662    -1.076100272417
    C            1.036589783743    -0.481041436579    -0.621112071642
    C            1.010742362321    -1.860861024242    -0.651323906621
    C            0.010776054614     0.179660006920     0.017652215393
    H            1.794995557607    -2.396082919222    -1.149337913798
    C           -0.022283796139    -2.548031355638    -0.040638634686
    N            0.012951447664     1.641801761568     0.018758325872
    C           -1.041026505629    -0.481927758556     0.611924141884
    H           -0.033927774944    -3.620676523824    -0.060872651278
    C           -1.042744988656    -1.862067755640     0.592556682299
    O            1.066254686961     2.185608004956    -0.015108808439
    O           -1.036543400516     2.190506097720     0.076108332838
    H           -1.829341641548     0.071903692465     1.076708423639
    H           -1.842462063604    -2.398761256352     1.063686679639

  Mulliken Charges: (a.u.)
   Center  Symbol    Alpha    Beta     Spin     Total
       1     H     0.40309  0.40309  0.00000  0.19382
       2     C     3.08195  3.08195  0.00000 -0.16389
       3     C     3.07151  3.07151  0.00000 -0.14302
       4     C     2.95875  2.95875  0.00000  0.08251
       5     H     0.41701  0.41701  0.00000  0.16598
       6     C     3.06637  3.06637  0.00000 -0.13275
       7     N     3.26437  3.26437  0.00000  0.47125
       8     C     3.08123  3.08123  0.00000 -0.16247
       9     H     0.41723  0.41723  0.00000  0.16555
      10     C     3.07101  3.07101  0.00000 -0.14202
      11     O     4.17356  4.17356  0.00000 -0.34712
      12     O     4.17364  4.17364  0.00000 -0.34729
      13     H     0.40325  0.40325  0.00000  0.19350
      14     H     0.41702  0.41702  0.00000  0.16595

   Total alpha = 32.00000, Total beta = 32.00000, Total charge =  0.00000

*** Psi4 exiting successfully. Buy a developer a beer!
