  ==> Input File <==

--------------------------------------------------------------------------
set {
	reference rhf
	basis 6-31G*
}

set_num_threads( 4 )
memory 2 gb

molecule MOL {
0 1

H	 -2.698709	 -0.000305	 0.034435
C	 -1.693833	 0.000034	 0.434417
O	 -0.828952	 -0.000968	 -0.659236
H	 -1.574200	 0.882896	 1.055746
H	 -1.574147	 -0.881698	 1.057355
C	 0.559449	 -0.000018	 -0.420814
C	 1.354518	 -0.576663	 -1.590541
C	 1.077785	 1.369194	 0.014555
H	 0.665684	 -0.677141	 0.418382
H	 0.928208	 -1.523241	 -1.904863
H	 2.383332	 -0.749372	 -1.290625
H	 1.372008	 0.092331	 -2.445120
H	 0.459535	 1.769757	 0.810654
H	 2.094411	 1.280553	 0.384796
H	 1.089671	 2.083079	 -0.802799

	symmetry c1
}
set optking {
	frozen_dihedral = ("
		9 6 3 2
	")
}

ee = optimize('scf')
oeprop('DIPOLE', 'QUADRUPOLE', 'MULLIKEN_CHARGES')
f=open( 'psi4out.xyz', 'w' )
f.write( "15  " )
f.write( str(ee) + "\n" )
f.write( MOL.save_string_xyz() )
f.close()
--------------------------------------------------------------------------

    Molecular point group: c1
  Charge       = 0
  Multiplicity = 1
  Basis Set: 6-31G*
  Basis Set:
  @DF-RHF Final Energy:  -232.13704139429146
    Total Energy =                       -232.1370413942913729
    Molecular point group: c1
  Basis Set: 6-31G*
  Basis Set:
  Basis Set: 6-31G*
  Basis Set:
  @DF-RHF Final Energy:  -232.14069200743052
    Total Energy =                       -232.1406920074302889
  Basis Set: 6-31G*
  Basis Set:
  Basis Set: 6-31G*
  Basis Set:
  @DF-RHF Final Energy:  -232.14143978347278
    Total Energy =                       -232.1414397834727765
  Basis Set: 6-31G*
  Basis Set:
  Basis Set: 6-31G*
  Basis Set:
  @DF-RHF Final Energy:  -232.14146667211520
    Total Energy =                       -232.1414666721151434
  Basis Set: 6-31G*
  Basis Set:
  Basis Set: 6-31G*
  Basis Set:
  @DF-RHF Final Energy:  -232.14147219168248
    Total Energy =                       -232.1414721916826238
  Basis Set: 6-31G*
  Basis Set:
  Charge       = 0
  Multiplicity = 1
  Basis Set: 6-31G*
  Basis Set:

    Orbital Energies (a.u.)
    -----------------------

    Doubly Occupied:

       1A    -20.550371     2A    -11.274360     3A    -11.263314
       4A    -11.208714     5A    -11.206041     6A     -1.374840
       7A     -1.052317     8A     -0.940443     9A     -0.915887
      10A     -0.793345    11A     -0.672166    12A     -0.638031
      13A     -0.637648    14A     -0.587255    15A     -0.550172
      16A     -0.541099    17A     -0.530134    18A     -0.498104
      19A     -0.489966    20A     -0.454813    21A     -0.407736

  @DF-RHF Final Energy:  -232.14147233954125

   => Energetics <=

    Nuclear Repulsion Energy =            197.3178995569355436
    One-Electron Energy =                -705.7452313636076724
    Two-Electron Energy =                 276.2858594671308197
    DFT Exchange-Correlation Energy =       0.0000000000000000
    Empirical Dispersion Energy =           0.0000000000000000
    PCM Polarization Energy =               0.0000000000000000
    EFP Energy =                            0.0000000000000000
    Total Energy =                       -232.1414723395412807
    Molecular point group: c1
  Basis Set: 6-31G*
  Basis Set:

  -Total Gradient:
     Atom            X                  Y                   Z
    ------   -----------------  -----------------  -----------------
       1       -0.000000211112     0.000002096392     0.000001061431
       2       -0.000024545425    -0.000198932944     0.000004090309
       3        0.000021774791     0.000311534936     0.000049471579
       4        0.000010226043    -0.000004254816    -0.000007735616
       5        0.000002531947     0.000004008382    -0.000001750438
       6        0.000016195557    -0.000267790111    -0.000203723283
       7        0.000018579085    -0.000033653077    -0.000005461621
       8        0.000009826870     0.000005056102     0.000019322297
       9       -0.000029119024     0.000176977739     0.000143740242
      10        0.000004189220    -0.000008933433    -0.000016310521
      11       -0.000015894740    -0.000001370632     0.000000639470
      12       -0.000005357394     0.000006932075     0.000012864116
      13        0.000000991424     0.000011143951     0.000004666535
      14       -0.000007032423     0.000002659266    -0.000000260240
      15       -0.000002154815    -0.000005473830    -0.000000614258

  **** Optimization is complete! (in 6 steps) ****
    Final optimized geometry and variables:
    Molecular point group: c1

    Geometry (in Angstrom), charge = 0, multiplicity = 1:

    H           -2.765625771691    -0.173666543533     0.364654000707
    C           -1.772363169150    -0.138938374916     0.791505926134
    O           -0.867420274317    -0.140082490944    -0.266634715190
    H           -1.692623219485     0.754816269105     1.404661203212
    H           -1.636264256814    -1.009127049625     1.431107401361
    C            0.494957793063    -0.185999565357     0.079196188569
    C            1.234035568226    -0.738449162930    -1.129615603656
    C            1.013456237660     1.191823120410     0.483175089526
    H            0.624278597460    -0.871942861073     0.916492369430
    H            0.850850446212    -1.718479958478    -1.389514894165
    H            2.297298123821    -0.823386214336    -0.928300807359
    H            1.096293003441    -0.083556276794    -1.983630406198
    H            0.490022433446     1.580817611260     1.349817037703
    H            2.069614000390     1.144979803431     0.730310614726
    H            0.882092940029     1.893490352996    -0.334154555654

  Mulliken Charges: (a.u.)
   Center  Symbol    Alpha    Beta     Spin     Total
       1     H     0.41234  0.41234  0.00000  0.17532
       2     C     3.07946  3.07946  0.00000 -0.15891
       3     O     4.30914  4.30914  0.00000 -0.61827
       4     H     0.43001  0.43001  0.00000  0.13998
       5     H     0.43058  0.43058  0.00000  0.13883
       6     C     2.91418  2.91418  0.00000  0.17164
       7     C     3.23870  3.23870  0.00000 -0.47740
       8     C     3.24610  3.24610  0.00000 -0.49220
       9     H     0.43161  0.43161  0.00000  0.13678
      10     H     0.41357  0.41357  0.00000  0.17285
      11     H     0.42366  0.42366  0.00000  0.15267
      12     H     0.41501  0.41501  0.00000  0.16997
      13     H     0.41905  0.41905  0.00000  0.16191
      14     H     0.42174  0.42174  0.00000  0.15653
      15     H     0.41485  0.41485  0.00000  0.17030

   Total alpha = 21.00000, Total beta = 21.00000, Total charge = -0.00000
