  ==> Input File <==

--------------------------------------------------------------------------
set {
	reference rhf
	basis cc-pvtz
}

set_num_threads( 4 )
memory 2 gb

molecule MOL {
0 1

H	 1.214780	 -0.048286	 0.911490
C	 0.848385	 0.440008	 0.000011
C	 -0.623497	 0.751021	 0.000090
O	 1.593669	 0.681510	 -0.885129
C	 -1.523725	 -0.474323	 -0.000013
H	 -0.813143	 1.382932	 -0.864897
H	 -0.813071	 1.382716	 0.865253
H	 -1.342980	 -1.087348	 -0.873016
H	 -2.565269	 -0.177464	 0.000070
H	 -1.342898	 -1.087564	 0.872820

	symmetry c1
}
set optking {
	frozen_dihedral = ("
		4 2 3 6
	")
}

ee = optimize('scf')
oeprop('DIPOLE', 'QUADRUPOLE', 'MULLIKEN_CHARGES')
f=open( 'psi4out.xyz', 'w' )
f.write( "10  " )
f.write( str(ee) + "\n" )
f.write( MOL.save_string_xyz() )
f.close()
--------------------------------------------------------------------------

    Molecular point group: c1
  Charge       = 0
  Multiplicity = 1
  Basis Set: CC-PVTZ
  Basis Set:
  @DF-RHF Final Energy:  -192.02248053730668
    Total Energy =                       -192.0224805373065351
    Molecular point group: c1
  Basis Set: CC-PVTZ
  Basis Set:
  Basis Set: CC-PVTZ
  Basis Set:
  @DF-RHF Final Energy:  -192.02297429212803
    Total Energy =                       -192.0229742921280831
  Basis Set: CC-PVTZ
  Basis Set:
  Basis Set: CC-PVTZ
  Basis Set:
  @DF-RHF Final Energy:  -192.02162398679587
    Total Energy =                       -192.0216239867959871
  Basis Set: CC-PVTZ
  Basis Set:
  Basis Set: CC-PVTZ
  Basis Set:
  @DF-RHF Final Energy:  -192.02320236427710
    Total Energy =                       -192.0232023642770116
  Basis Set: CC-PVTZ
  Basis Set:
  Basis Set: CC-PVTZ
  Basis Set:
  @DF-RHF Final Energy:  -192.02321650009839
    Total Energy =                       -192.0232165000985560
  Basis Set: CC-PVTZ
  Basis Set:
  Charge       = 0
  Multiplicity = 1
  Basis Set: CC-PVTZ
  Basis Set:

    Orbital Energies (a.u.)
    -----------------------

    Doubly Occupied:

       1A    -20.553630     2A    -11.322636     3A    -11.238076
       4A    -11.232705     5A     -1.408467     6A     -1.067886
       7A     -0.905313     8A     -0.793302     9A     -0.679650
      10A     -0.644063    11A     -0.613085    12A     -0.572915
      13A     -0.544773    14A     -0.514052    15A     -0.500460
      16A     -0.414917

  @DF-RHF Final Energy:  -192.02321675707884

   => Energetics <=

    Nuclear Repulsion Energy =            117.8160820987794182
    One-Electron Energy =                -493.6667367774028889
    Two-Electron Energy =                 183.8274379215447141
    DFT Exchange-Correlation Energy =       0.0000000000000000
    Empirical Dispersion Energy =           0.0000000000000000
    PCM Polarization Energy =               0.0000000000000000
    EFP Energy =                            0.0000000000000000
    Total Energy =                       -192.0232167570787567
    Molecular point group: c1
  Basis Set: CC-PVTZ
  Basis Set:

  -Total Gradient:
     Atom            X                  Y                   Z
    ------   -----------------  -----------------  -----------------
       1        0.000011699205     0.000001208087    -0.000012946993
       2        0.000251765494     0.001092242713     0.000525151281
       3       -0.000258693946    -0.001022980618    -0.000610780186
       4       -0.000151004525    -0.000662671249    -0.000288134715
       5        0.000024781277     0.000031413978     0.000003919599
       6        0.000137523589     0.000576846172     0.000376031959
       7       -0.000003523774    -0.000006519918     0.000003177214
       8       -0.000004835003    -0.000005739192    -0.000000420557
       9       -0.000004335970     0.000002881492     0.000000361227
      10       -0.000003376346    -0.000006681466     0.000003641169

  **** Optimization is complete! (in 6 steps) ****
    Final optimized geometry and variables:
    Molecular point group: c1

    Geometry (in Angstrom), charge = 0, multiplicity = 1:

    H            1.109577493234    -0.393831744028     1.154530814851
    C            0.762334953028     0.098161110946     0.236268289939
    C           -0.698976399251     0.453592735586     0.215879121765
    O            1.516036831000     0.291323510257    -0.653577263705
    C           -1.573146520348    -0.802566232282     0.226875437506
    H           -0.893500652589     1.062102557705    -0.656625129641
    H           -0.909980938639     1.048668965486     1.100332439214
    H           -1.408673332940    -1.396565051432    -0.663793457445
    H           -2.620677347887    -0.533606595244     0.263378731185
    H           -1.360563223297    -1.423903539660     1.089913328327

  Mulliken Charges: (a.u.)
   Center  Symbol    Alpha    Beta     Spin     Total
       1     H     0.46526  0.46526  0.00000  0.06948
       2     C     2.90066  2.90066  0.00000  0.19869
       3     C     3.08021  3.08021  0.00000 -0.16042
       4     O     4.16452  4.16452  0.00000 -0.32904
       5     C     3.14999  3.14999  0.00000 -0.29999
       6     H     0.44242  0.44242  0.00000  0.11515
       7     H     0.45213  0.45213  0.00000  0.09573
       8     H     0.44646  0.44646  0.00000  0.10707
       9     H     0.44470  0.44470  0.00000  0.11060
      10     H     0.45364  0.45364  0.00000  0.09271

   Total alpha = 16.00000, Total beta = 16.00000, Total charge = -0.00000
