  ==> Input File <==

--------------------------------------------------------------------------
set {
	reference rhf
	basis cc-pvtz
}

set_num_threads( 4 )
memory 2 gb

molecule MOL {
0 1

O	 1.292000	 1.319000	 -0.000000
C	 1.200000	 0.134000	 0.000000
C	 -0.092000	 -0.645000	 -0.000000
O	 2.250000	 -0.676000	 0.000000
C	 -1.335000	 0.240000	 0.001000
H	 -0.076000	 -1.300000	 -0.867000
H	 -0.076000	 -1.302000	 0.866000
C	 -2.629000	 -0.575000	 -0.000000
H	 -1.310000	 0.893000	 -0.866000
H	 -1.310000	 0.891000	 0.869000
C	 -3.879000	 0.305000	 -0.000000
H	 -2.648000	 -1.227000	 -0.871000
H	 -2.648000	 -1.228000	 0.870000
H	 -3.907000	 0.945000	 -0.877000
H	 -4.782000	 -0.297000	 -0.000000
H	 -3.907000	 0.945000	 0.876000
C	 3.530000	 -0.070000	 -0.000000
H	 3.659000	 0.543000	 -0.880000
H	 4.241000	 -0.881000	 -0.001000
H	 3.661000	 0.542000	 0.881000

	symmetry c1
}
ee = optimize('scf')
oeprop('DIPOLE', 'QUADRUPOLE', 'MULLIKEN_CHARGES')
f=open( 'psi4out.xyz', 'w' )
f.write( "20  " )
f.write( str(ee) + "\n" )
f.write( MOL.save_string_xyz() )
f.close()
--------------------------------------------------------------------------

    Molecular point group: c1
  Charge       = 0
  Multiplicity = 1
  Basis Set: CC-PVTZ
  Basis Set:
  @DF-RHF Final Energy:  -384.08316690439835
    Total Energy =                       -384.0831669043983538
    Molecular point group: c1
  Basis Set: CC-PVTZ
  Basis Set:
  Basis Set: CC-PVTZ
  Basis Set:
  @DF-RHF Final Energy:  -384.08327581623149
    Total Energy =                       -384.0832758162313212
  Basis Set: CC-PVTZ
  Basis Set:
  Basis Set: CC-PVTZ
  Basis Set:
  @DF-RHF Final Energy:  -384.08325777684678
    Total Energy =                       -384.0832577768464944
  Basis Set: CC-PVTZ
  Basis Set:
  Basis Set: CC-PVTZ
  Basis Set:
  @DF-RHF Final Energy:  -384.08327823759436
    Total Energy =                       -384.0832782375936176
  Basis Set: CC-PVTZ
  Basis Set:
  Basis Set: CC-PVTZ
  Basis Set:
  @DF-RHF Final Energy:  -384.08327947840149
    Total Energy =                       -384.0832794784016642
  Basis Set: CC-PVTZ
  Basis Set:
  Charge       = 0
  Multiplicity = 1
  Basis Set: CC-PVTZ
  Basis Set:

    Orbital Energies (a.u.)
    -----------------------

    Doubly Occupied:

       1A    -20.596426     2A    -20.534235     3A    -11.364714
       4A    -11.278575     5A    -11.233966     6A    -11.218440
       7A    -11.217302     8A    -11.208757     9A     -1.472328
      10A     -1.365895    11A     -1.090022    12A     -1.025539
      13A     -0.969971    14A     -0.886434    15A     -0.804592
      16A     -0.769581    17A     -0.699105    18A     -0.686902
      19A     -0.675900    20A     -0.647106    21A     -0.598987
      22A     -0.592530    23A     -0.580242    24A     -0.540464
      25A     -0.538625    26A     -0.524186    27A     -0.501240
      28A     -0.478982    29A     -0.474970    30A     -0.471681
      31A     -0.459355    32A     -0.440194

  @DF-RHF Final Energy:  -384.08327947312881

   => Energetics <=

    Nuclear Repulsion Energy =            381.7254584280606764
    One-Electron Energy =               -1279.7229828305144110
    Two-Electron Energy =                 513.9142449293249229
    DFT Exchange-Correlation Energy =       0.0000000000000000
    Empirical Dispersion Energy =           0.0000000000000000
    PCM Polarization Energy =               0.0000000000000000
    EFP Energy =                            0.0000000000000000
    Total Energy =                       -384.0832794731288686
    Molecular point group: c1
  Basis Set: CC-PVTZ
  Basis Set:

  -Total Gradient:
     Atom            X                  Y                   Z
    ------   -----------------  -----------------  -----------------
       1        0.000008685062     0.000011014361    -0.000005028808
       2       -0.000012072564    -0.000044061104     0.000007044648
       3       -0.000008922992    -0.000001951094    -0.000012676287
       4       -0.000026989734     0.000004283401    -0.000004193568
       5       -0.000006986349     0.000008448592     0.000013268751
       6        0.000005343164    -0.000000007355    -0.000002866272
       7        0.000002998175     0.000007481096     0.000001325473
       8        0.000003168404    -0.000000259943     0.000002552282
       9       -0.000003469586     0.000002250858    -0.000000241857
      10        0.000000193772    -0.000004821873     0.000004531676
      11        0.000007154189     0.000002027226    -0.000006050672
      12        0.000001756015    -0.000000338332     0.000000118318
      13       -0.000004322846     0.000008008192     0.000005359226
      14        0.000002333045     0.000000958701    -0.000002311338
      15       -0.000000225563    -0.000005457337    -0.000002733073
      16        0.000004784122    -0.000003535588     0.000000387956
      17        0.000030396419     0.000019128515     0.000003805868
      18       -0.000000969907    -0.000000887848    -0.000000320978
      19       -0.000002274139    -0.000000018321    -0.000000395954
      20       -0.000000578691    -0.000002262143    -0.000001575387

  **** Optimization is complete! (in 6 steps) ****
    Final optimized geometry and variables:
    Molecular point group: c1

    Geometry (in Angstrom), charge = 0, multiplicity = 1:

    O            1.216069565339     1.304885720708     0.000820767678
    C            1.121787392240     0.124982715831     0.000110267851
    C           -0.170911478884    -0.649867109583    -0.000147183043
    O            2.167738988260    -0.685178355433    -0.000678093920
    C           -1.413044490603     0.229352289385     0.001137155562
    H           -0.152877148644    -1.303435253806    -0.866174727323
    H           -0.152277986284    -1.305116069048     0.864586469571
    C           -2.702562256876    -0.586401172075     0.000227737799
    H           -1.390743413343     0.882000607760    -0.864364768974
    H           -1.390549252280     0.879836389260     0.868264482480
    C           -3.953810017884     0.284958947303    -0.000781880333
    H           -2.717792326842    -1.238567324201    -0.869074993915
    H           -2.719108104313    -1.238472812499     0.869575693927
    H           -3.983726631228     0.924402223170    -0.876454069156
    H           -4.852989244167    -0.320147977166    -0.001515008268
    H           -3.985139880804     0.924398025729     0.874840517014
    C            3.449556674266    -0.089977539920    -0.000570007589
    H            3.585693992760     0.522472259305    -0.879545956832
    H            4.155805057114    -0.904274763795    -0.001388915842
    H            3.586173670614     0.521117316674     0.879271630584

  Mulliken Charges: (a.u.)
   Center  Symbol    Alpha    Beta     Spin     Total
       1     O     4.19685  4.19685  0.00000 -0.39369
       2     C     2.80657  2.80657  0.00000  0.38686
       3     C     3.10025  3.10025  0.00000 -0.20051
       4     O     4.14655  4.14655  0.00000 -0.29310
       5     C     3.08115  3.08115  0.00000 -0.16229
       6     H     0.44026  0.44026  0.00000  0.11947
       7     H     0.44026  0.44026  0.00000  0.11949
       8     C     3.08691  3.08691  0.00000 -0.17381
       9     H     0.44681  0.44681  0.00000  0.10637
      10     H     0.44682  0.44682  0.00000  0.10637
      11     C     3.14922  3.14922  0.00000 -0.29845
      12     H     0.45527  0.45527  0.00000  0.08946
      13     H     0.45525  0.45525  0.00000  0.08951
      14     H     0.45387  0.45387  0.00000  0.09226
      15     H     0.44838  0.44838  0.00000  0.10324
      16     H     0.45387  0.45387  0.00000  0.09227
      17     C     3.03770  3.03770  0.00000 -0.07541
      18     H     0.45434  0.45434  0.00000  0.09132
      19     H     0.44534  0.44534  0.00000  0.10931
      20     H     0.45434  0.45434  0.00000  0.09132

   Total alpha = 32.00000, Total beta = 32.00000, Total charge =  0.00000
