  ==> Input File <==

--------------------------------------------------------------------------
set {
	reference rhf
	basis 6-31G*
}

set_num_threads( 1 )
memory 2 gb

molecule MOL {
0 1

H	 3.365182	 -1.262353	 -0.655825
O	 2.826016	 -1.159218	 0.122261
C	 2.077727	 -0.067559	 -0.035091
C	 0.624473	 -0.343591	 0.253101
O	 2.542965	 0.974826	 -0.363729
C	 -0.265902	 0.883932	 0.072916
H	 0.324016	 -1.163849	 -0.390541
H	 0.565024	 -0.726111	 1.268924
C	 -1.728698	 0.646073	 0.462102
H	 -0.209144	 1.219470	 -0.958188
H	 0.135059	 1.692851	 0.673903
C	 -2.482460	 -0.343073	 -0.431425
H	 -2.245265	 1.602650	 0.432430
H	 -1.779332	 0.308348	 1.496285
C	 -3.960546	 -0.461025	 -0.060175
H	 -2.395034	 -0.026811	 -1.468912
H	 -2.024850	 -1.327147	 -0.371646
H	 -4.472726	 -1.168004	 -0.705284
H	 -4.465146	 0.496508	 -0.151489
H	 -4.081218	 -0.800940	 0.964585

	symmetry c1
}
set optking {
	frozen_dihedral = ("
		16 12 9 6,
		7 4 6 10,
		12 9 6 10,
		5 3 4 7
	")
}

ee = energy('scf')
oeprop('DIPOLE', 'QUADRUPOLE', 'MULLIKEN_CHARGES')
f=open( 'psi4out.xyz', 'w' )
f.write( "20  " )
f.write( str(ee) + "\n" )
f.write( MOL.save_string_xyz() )
f.close()
--------------------------------------------------------------------------

    Molecular point group: c1

    Geometry (in Angstrom), charge = 0, multiplicity = 1:

       Center              X                  Y                   Z               Mass
    ------------   -----------------  -----------------  -----------------  -----------------
           H          3.368344861303    -1.259452686185    -0.650743912432     1.007825032070
           O          2.829178861303    -1.156317686185     0.127342087568    15.994914619560
           C          2.080889861303    -0.064658686185    -0.030009912432    12.000000000000
           C          0.627635861303    -0.340690686185     0.258182087568    12.000000000000
           O          2.546127861303     0.977726313815    -0.358647912432    15.994914619560
           C         -0.262739138697     0.886832313815     0.077997087568    12.000000000000
           H          0.327178861303    -1.160948686185    -0.385459912432     1.007825032070
           H          0.568186861303    -0.723210686185     1.274005087568     1.007825032070
           C         -1.725535138697     0.648973313815     0.467183087568    12.000000000000
           H         -0.205981138697     1.222370313815    -0.953106912432     1.007825032070
           H          0.138221861303     1.695751313815     0.678984087568     1.007825032070
           C         -2.479297138697    -0.340172686185    -0.426343912432    12.000000000000
           H         -2.242102138697     1.605550313815     0.437511087568     1.007825032070
           H         -1.776169138697     0.311248313815     1.501366087568     1.007825032070
           C         -3.957383138697    -0.458124686185    -0.055093912432    12.000000000000
           H         -2.391871138697    -0.023910686185    -1.463830912432     1.007825032070
           H         -2.021687138697    -1.324246686185    -0.366564912432     1.007825032070
           H         -4.469563138697    -1.165103686185    -0.700202912432     1.007825032070
           H         -4.461983138697     0.499408313815    -0.146407912432     1.007825032070
           H         -4.078055138697    -0.798039686185     0.969666087568     1.007825032070

  Charge       = 0
  Multiplicity = 1
  Basis Set: 6-31G*
  Basis Set:

    Orbital Energies (a.u.)
    -----------------------

    Doubly Occupied:

       1A    -20.603883     2A    -20.555598     3A    -11.380344
       4A    -11.239713     5A    -11.222502     6A    -11.221194
       7A    -11.220281     8A    -11.212932     9A     -1.471468
      10A     -1.366486    11A     -1.096044    12A     -1.040501
      13A     -0.959916    14A     -0.867345    15A     -0.817019
      16A     -0.778506    17A     -0.705030    18A     -0.686249
      19A     -0.665593    20A     -0.632324    21A     -0.617048
      22A     -0.588161    23A     -0.561454    24A     -0.548285
      25A     -0.544953    26A     -0.509556    27A     -0.499262
      28A     -0.483731    29A     -0.469582    30A     -0.465726
      31A     -0.457580    32A     -0.443245

  @DF-RHF Final Energy:  -383.93590564651225

   => Energetics <=

    Nuclear Repulsion Energy =            375.9784786946796089
    One-Electron Energy =               -1267.9657440311905248
    Two-Electron Energy =                 508.0513596899982645
    DFT Exchange-Correlation Energy =       0.0000000000000000
    Empirical Dispersion Energy =           0.0000000000000000
    PCM Polarization Energy =               0.0000000000000000
    EFP Energy =                            0.0000000000000000
    Total Energy =                       -383.9359056465127082

  Mulliken Charges: (a.u.)
   Center  Symbol    Alpha    Beta     Spin     Total
       1     H     0.26564  0.26564  0.00000  0.46873
       2     O     4.35547  4.35547  0.00000 -0.71094
       3     C     2.63013  2.63013  0.00000  0.73974
       4     C     3.21155  3.21155  0.00000 -0.42310
       5     O     4.26509  4.26509  0.00000 -0.53018
       6     C     3.15500  3.15500  0.00000 -0.30999
       7     H     0.40141  0.40141  0.00000  0.19718
       8     H     0.39856  0.39856  0.00000  0.20287
       9     C     3.15530  3.15530  0.00000 -0.31060
      10     H     0.41367  0.41367  0.00000  0.17265
      11     H     0.40743  0.40743  0.00000  0.18515
      12     C     3.15478  3.15478  0.00000 -0.30956
      13     H     0.41799  0.41799  0.00000  0.16402
      14     H     0.42342  0.42342  0.00000  0.15315
      15     C     3.23918  3.23918  0.00000 -0.47835
      16     H     0.42200  0.42200  0.00000  0.15600
      17     H     0.42323  0.42323  0.00000  0.15354
      18     H     0.41854  0.41854  0.00000  0.16291
      19     H     0.42050  0.42050  0.00000  0.15900
      20     H     0.42111  0.42111  0.00000  0.15778

   Total alpha = 32.00000, Total beta = 32.00000, Total charge = -0.00000
