  ==> Input File <==

--------------------------------------------------------------------------
set {
	reference rhf
	basis 6-31G*
}

set_num_threads( 4 )
memory 2 gb

molecule MOL {
0 1

H	 2.465338	 -2.224223	 0.000000
O	 2.784187	 -1.332015	 0.000000
C	 1.765313	 -0.449364	 0.000000
C	 0.762336	 -0.631764	 0.946949
C	 1.692900	 0.603213	 -0.891612
H	 0.841480	 -1.457357	 1.628850
C	 -0.306905	 0.238429	 0.997473
H	 2.451356	 0.767461	 -1.631404
C	 0.605283	 1.458030	 -0.812897
H	 -1.076777	 0.090183	 1.731760
C	 -0.402540	 1.303915	 0.112354
N	 0.533555	 2.569902	 -1.758455
H	 -1.225770	 1.987272	 0.139203
O	 1.420007	 2.681579	 -2.550771
O	 -0.405748	 3.300948	 -1.683987

	symmetry c1
}
set optking {
	frozen_dihedral = ("
		4 3 2 1
	")
}

ee = optimize('scf')
oeprop('DIPOLE', 'QUADRUPOLE', 'MULLIKEN_CHARGES')
f=open( 'psi4out.xyz', 'w' )
f.write( "15  " )
f.write( str(ee) + "\n" )
f.write( MOL.save_string_xyz() )
f.close()
--------------------------------------------------------------------------

    Molecular point group: c1
  Charge       = 0
  Multiplicity = 1
  Basis Set: 6-31G*
  Basis Set:
  @DF-RHF Final Energy:  -509.02276164718933
    Total Energy =                       -509.0227616471892134
    Molecular point group: c1
  Basis Set: 6-31G*
  Basis Set:
  Basis Set: 6-31G*
  Basis Set:
  @DF-RHF Final Energy:  -509.02446914509949
    Total Energy =                       -509.0244691450992605
  Basis Set: 6-31G*
  Basis Set:
  Basis Set: 6-31G*
  Basis Set:
  @DF-RHF Final Energy:  -509.00871194293120
    Total Energy =                       -509.0087119429311997
  Basis Set: 6-31G*
  Basis Set:
  Basis Set: 6-31G*
  Basis Set:
  @DF-RHF Final Energy:  -509.02412552068478
    Total Energy =                       -509.0241255206851747
  Basis Set: 6-31G*
  Basis Set:
  Basis Set: 6-31G*
  Basis Set:
  @DF-RHF Final Energy:  -509.02464731273255
    Total Energy =                       -509.0246473127324407
  Basis Set: 6-31G*
  Basis Set:
  Basis Set: 6-31G*
  Basis Set:
  @DF-RHF Final Energy:  -509.02465874611704
    Total Energy =                       -509.0246587461169838
  Basis Set: 6-31G*
  Basis Set:
  Charge       = 0
  Multiplicity = 1
  Basis Set: 6-31G*
  Basis Set:

    Orbital Energies (a.u.)
    -----------------------

    Doubly Occupied:

       1A    -20.607384     2A    -20.602610     3A    -20.602230
       4A    -15.857163     5A    -11.325189     6A    -11.309040
       7A    -11.268035     8A    -11.266460     9A    -11.265952
      10A    -11.265026    11A     -1.636034    12A     -1.426122
      13A     -1.419290    14A     -1.200199    15A     -1.094299
      16A     -1.047107    17A     -0.963985    18A     -0.864565
      19A     -0.841263    20A     -0.794055    21A     -0.735035
      22A     -0.732305    23A     -0.718383    24A     -0.710901
      25A     -0.679508    26A     -0.640600    27A     -0.624529
      28A     -0.572620    29A     -0.562706    30A     -0.532122
      31A     -0.513659    32A     -0.489327    33A     -0.486883
      34A     -0.452411    35A     -0.377865    36A     -0.350549

  @DF-RHF Final Energy:  -509.02466215261404

   => Energetics <=

    Nuclear Repulsion Energy =            503.0157517586568474
    One-Electron Energy =               -1692.4100040749708569
    Two-Electron Energy =                 680.3695901637001953
    DFT Exchange-Correlation Energy =       0.0000000000000000
    Empirical Dispersion Energy =           0.0000000000000000
    PCM Polarization Energy =               0.0000000000000000
    EFP Energy =                            0.0000000000000000
    Total Energy =                       -509.0246621526139279
    Molecular point group: c1
  Basis Set: 6-31G*
  Basis Set:

  -Total Gradient:
     Atom            X                  Y                   Z
    ------   -----------------  -----------------  -----------------
       1       -0.000124491149     0.000039142666    -0.002033488010
       2        0.000558555878     0.000480962777     0.003061251763
       3       -0.001037282541    -0.001239155374    -0.002260009830
       4        0.000529119224     0.000974080543     0.001076248040
       5        0.000135466354    -0.000244682167     0.000078349540
       6        0.000001419208     0.000037797682    -0.000028480034
       7        0.000060133578    -0.000170330727     0.000058253788
       8        0.000014893923    -0.000013633472     0.000000800880
       9       -0.000216538339     0.000051475938     0.000147265661
      10       -0.000038360745     0.000044941423     0.000009114479
      11        0.000104216860     0.000067042415    -0.000136314824
      12        0.000074769595    -0.000018960410     0.000029749291
      13       -0.000021144950    -0.000029697199     0.000045956925
      14       -0.000086171502     0.000030471099     0.000010236120
      15        0.000045414606    -0.000009455191    -0.000058933787

  **** Optimization is complete! (in 7 steps) ****
    Final optimized geometry and variables:
    Molecular point group: c1

    Geometry (in Angstrom), charge = 0, multiplicity = 1:

    H            1.683800558560    -3.207923553440     0.589201852628
    O            1.946474919450    -2.297583963387     0.573346332329
    C            0.863888801393    -1.478378526671     0.621926461162
    C           -0.131122542086    -1.640522751957     1.575145096632
    C            0.807295928061    -0.423045361815    -0.269914026820
    H           -0.062234039837    -2.450875479996     2.278933797746
    C           -1.199672782357    -0.761315422325     1.622661783023
    H            1.578401597972    -0.288938127761    -0.999918854212
    C           -0.263823322250     0.446190656718    -0.187968953214
    H           -1.968859053957    -0.896940998486     2.360097610297
    C           -1.278300102280     0.300284891699     0.738631894122
    N           -0.327072352048     1.561360559347    -1.130358943693
    H           -2.092368430263     0.994669755080     0.764738615833
    O            0.556491837371     1.667256546121    -1.924800042746
    O           -1.260770358330     2.300444217193    -1.049897709972

  Mulliken Charges: (a.u.)
   Center  Symbol    Alpha    Beta     Spin     Total
       1     H     0.26891  0.26891  0.00000  0.46217
       2     O     4.37958  4.37958  0.00000 -0.75916
       3     C     2.80992  2.80992  0.00000  0.38015
       4     C     3.11531  3.11531  0.00000 -0.23062
       5     C     3.10915  3.10915  0.00000 -0.21829
       6     H     0.38920  0.38920  0.00000  0.22160
       7     C     3.10283  3.10283  0.00000 -0.20567
       8     H     0.35782  0.35782  0.00000  0.28436
       9     C     2.91569  2.91569  0.00000  0.16862
      10     H     0.38680  0.38680  0.00000  0.22640
      11     C     3.09353  3.09353  0.00000 -0.18705
      12     N     3.24101  3.24101  0.00000  0.51797
      13     H     0.36455  0.36455  0.00000  0.27091
      14     O     4.23212  4.23212  0.00000 -0.46425
      15     O     4.23358  4.23358  0.00000 -0.46715

   Total alpha = 36.00000, Total beta = 36.00000, Total charge =  0.00000
