                              Psi4 1.0.54 Driver

  ==> Input File <==

--------------------------------------------------------------------------
set {
	reference rhf
	basis cc-pvtz
}

set_num_threads( 4 )
memory 2 gb

molecule MOL {
0 1

H	 -1.393741	 1.038477	 2.127972
C	 -1.064685	 0.569208	 1.224953
C	 -1.921159	 0.444511	 0.084752
C	 0.172226	 0.075988	 1.125868
H	 -2.921973	 0.830884	 0.132132
C	 -1.484709	 -0.146611	 -1.031788
H	 0.871422	 0.131401	 1.936543
N	 0.640204	 -0.530428	 -0.000115
H	 -2.096916	 -0.257381	 -1.902933
C	 -0.135447	 -0.683083	 -1.136289
C	 2.006991	 -1.033007	 -0.000020
O	 0.292911	 -1.220381	 -2.121207
H	 2.182444	 -1.636914	 -0.880881
H	 2.678769	 -0.195442	 -0.002236
H	 2.183828	 -1.633244	 0.883082

	symmetry c1
}
set optking {
	frozen_dihedral = ("
		10 8 11 13
	")
}

ee,wfn = optimize('scf', return_wfn=True)
oeprop( wfn, 'DIPOLE', 'QUADRUPOLE', 'MULLIKEN_CHARGES')
f=open( 'psi4out.xyz', 'w' )
f.write( "15  " )
f.write( str(ee) + "\n" )
f.write( MOL.save_string_xyz() )
f.close()
--------------------------------------------------------------------------

    Molecular point group: c1
  Charge       = 0
  Multiplicity = 1
  Basis Set: CC-PVTZ
  Basis Set:
  @DF-RHF Final Energy:  -360.72224146506818
    Total Energy =                       -360.7222414650683504
    Molecular point group: c1
  Basis Set: CC-PVTZ
  Basis Set:
  Basis Set: CC-PVTZ
  Basis Set:
  @DF-RHF Final Energy:  -360.72253595220252
    Total Energy =                       -360.7225359522024064
  Basis Set: CC-PVTZ
  Basis Set:
  Basis Set: CC-PVTZ
  Basis Set:
  @DF-RHF Final Energy:  -360.72255552430158
    Total Energy =                       -360.7225555243015833
  Basis Set: CC-PVTZ
  Basis Set:
  Basis Set: CC-PVTZ
  Basis Set:
  @DF-RHF Final Energy:  -360.72257579389020
    Total Energy =                       -360.7225757938904280
  Basis Set: CC-PVTZ
  Basis Set:
  Charge       = 0
  Multiplicity = 1
  Basis Set: CC-PVTZ
  Basis Set:

    Orbital Energies (a.u.)
    -----------------------

    Doubly Occupied:

       1A    -20.501760     2A    -15.616478     3A    -11.339550
       4A    -11.293221     5A    -11.263519     6A    -11.258223
       7A    -11.230693     8A    -11.228386     9A     -1.390554
      10A     -1.285767    11A     -1.118810    12A     -1.028879
      13A     -0.972300    14A     -0.875760    15A     -0.838567
      16A     -0.719123    17A     -0.703095    18A     -0.663393
      19A     -0.652687    20A     -0.625221    21A     -0.611929
      22A     -0.574059    23A     -0.558043    24A     -0.550489
      25A     -0.529355    26A     -0.482797    27A     -0.420139
      28A     -0.410791    29A     -0.311007

  @DF-RHF Final Energy:  -360.72258222820392

   => Energetics <=

    Nuclear Repulsion Energy =            358.4573307254772772
    One-Electron Energy =               -1200.2506364574342115
    Two-Electron Energy =                 481.0707235037529017
    DFT Exchange-Correlation Energy =       0.0000000000000000
    Empirical Dispersion Energy =           0.0000000000000000
    PCM Polarization Energy =               0.0000000000000000
    EFP Energy =                            0.0000000000000000
    Total Energy =                       -360.7225822282040326
    Molecular point group: c1
  Basis Set: CC-PVTZ
  Basis Set:

  -Total Gradient:
     Atom            X                  Y                   Z
    ------   -----------------  -----------------  -----------------
       1        0.000008162823     0.000010779222    -0.000008212970
       2        0.000028768612     0.000027005144    -0.000014795320
       3       -0.000016848261    -0.000011429340    -0.000010359303
       4       -0.000056764841    -0.000086714684     0.000052169058
       5       -0.000004063382     0.000000387369    -0.000004251140
       6       -0.000007335074     0.000015930311     0.000007243448
       7        0.000016759137     0.000017236092    -0.000010854632
       8        0.000160510935     0.000436893008    -0.000206068454
       9        0.000003165248     0.000002914450     0.000001055633
      10       -0.000124779390    -0.000218893317     0.000169981847
      11       -0.000152039232    -0.000330364761     0.000250150121
      12        0.000064694290    -0.000010903009     0.000005514441
      13        0.000134564745     0.000170916621    -0.000242005496
      14       -0.000048965100    -0.000026897445     0.000009221485
      15       -0.000005830512     0.000003140339     0.000001211282

  **** Optimization is complete! (in 5 steps) ****
    Final optimized geometry and variables:
    Molecular point group: c1

    Geometry (in Angstrom), charge = 0, multiplicity = 1:

    H           -1.267643673328     1.392304686463     2.384512264477
    C           -0.938288199402     0.920072027994     1.483141257807
    C           -1.795061588362     0.789897863158     0.343607956611
    C            0.298324759569     0.425297164661     1.387041461008
    H           -2.796457791391     1.174924595535     0.389863484723
    C           -1.358150682371     0.195037158915    -0.770705542970
    H            0.996732080611     0.483303615591     2.198148572229
    N            0.766048181601    -0.186560131879     0.263982969952
    H           -1.969919077640     0.080681668798    -1.641781959533
    C           -0.006482679424    -0.335775523465    -0.874620319470
    C            2.134896467578    -0.683039587450     0.259927547206
    O            0.427760274622    -0.865126165153    -1.861126863251
    H            2.284105403457    -1.270173575812    -0.626971188168
    H            2.837108718592     0.141236720070     0.260591799420
    H            2.305501615179    -1.295641924273     1.134844484365

  Mulliken Charges: (a.u.)
   Center  Symbol    Alpha    Beta     Spin     Total
       1     H     0.41409  0.41409  0.00000  0.17182
       2     C     3.10221  3.10221  0.00000 -0.20441
       3     C     3.06191  3.06191  0.00000 -0.12382
       4     C     3.03296  3.03296  0.00000 -0.06591
       5     H     0.41833  0.41833  0.00000  0.16333
       6     C     3.11620  3.11620  0.00000 -0.23239
       7     H     0.42059  0.42059  0.00000  0.15882
       8     N     3.51256  3.51256  0.00000 -0.02513
       9     H     0.40888  0.40888  0.00000  0.18223
      10     C     2.84550  2.84550  0.00000  0.30901
      11     C     3.10877  3.10877  0.00000 -0.21755
      12     O     4.23661  4.23661  0.00000 -0.47323
      13     H     0.42132  0.42132  0.00000  0.15736
      14     H     0.44816  0.44816  0.00000  0.10368
      15     H     0.45191  0.45191  0.00000  0.09618

   Total alpha = 29.00000, Total beta = 29.00000, Total charge = -0.00000

*** Psi4 exiting successfully. Buy a developer a beer!
