  ==> Input File <==

--------------------------------------------------------------------------
set {
	reference rhf
	basis 6-31G*
}

set_num_threads( 4 )
memory 2 gb

molecule MOL {
0 1

H	 -4.031818	 -0.453427	 -0.000094
C	 -2.967712	 -0.297022	 -0.000064
C	 -2.458620	 0.992929	 0.000032
C	 -2.109895	 -1.385637	 -0.000122
H	 -3.124998	 1.836319	 0.000077
C	 -1.090278	 1.193236	 0.000070
H	 -2.506361	 -2.384847	 -0.000198
C	 -0.739812	 -1.187531	 -0.000085
H	 -0.678594	 2.184290	 0.000146
C	 -0.226438	 0.104061	 0.000012
H	 -0.072310	 -2.027032	 -0.000131
C	 1.239129	 0.373821	 0.000060
O	 1.891498	 -0.302533	 -0.933515
O	 1.778722	 1.118751	 0.756882
C	 3.292483	 -0.105565	 -1.005057
H	 3.518849	 0.930458	 -1.210504
H	 3.636296	 -0.732137	 -1.813174
H	 3.763338	 -0.396612	 -0.077422

	symmetry c1
}
set optking {
	frozen_dihedral = ("
		13 12 10 6
	")
}

ee = optimize('scf')
oeprop('DIPOLE', 'QUADRUPOLE', 'MULLIKEN_CHARGES')
f=open( 'psi4out.xyz', 'w' )
f.write( "18  " )
f.write( str(ee) + "\n" )
f.write( MOL.save_string_xyz() )
f.close()
--------------------------------------------------------------------------

    Molecular point group: c1
  Charge       = 0
  Multiplicity = 1
  Basis Set: 6-31G*
  Basis Set:
  @DF-RHF Final Energy:  -457.34385462257200
    Total Energy =                       -457.3438546225718255
    Molecular point group: c1
  Basis Set: 6-31G*
  Basis Set:
  Basis Set: 6-31G*
  Basis Set:
  @DF-RHF Final Energy:  -457.34157262461804
    Total Energy =                       -457.3415726246180384
  Basis Set: 6-31G*
  Basis Set:
  Basis Set: 6-31G*
  Basis Set:
  @DF-RHF Final Energy:  -457.34434973213610
    Total Energy =                       -457.3443497321366067
  Basis Set: 6-31G*
  Basis Set:
  Basis Set: 6-31G*
  Basis Set:
  @DF-RHF Final Energy:  -457.34443527292007
    Total Energy =                       -457.3444352729202365
  Basis Set: 6-31G*
  Basis Set:
  Basis Set: 6-31G*
  Basis Set:
  @DF-RHF Final Energy:  -457.34443674311149
    Total Energy =                       -457.3444367431116007
  Basis Set: 6-31G*
  Basis Set:
  Charge       = 0
  Multiplicity = 1
  Basis Set: 6-31G*
  Basis Set:

    Orbital Energies (a.u.)
    -----------------------

    Doubly Occupied:

       1A    -20.609220     2A    -20.547563     3A    -11.378933
       4A    -11.283355     5A    -11.248650     6A    -11.244556
       7A    -11.243361     8A    -11.242700     9A    -11.238959
      10A    -11.238383    11A     -1.474019    12A     -1.365931
      13A     -1.166361    14A     -1.048849    15A     -1.025672
      16A     -0.979009    17A     -0.860059    18A     -0.836994
      19A     -0.779175    20A     -0.738287    21A     -0.684291
      22A     -0.678676    23A     -0.674939    24A     -0.630344
      25A     -0.628247    26A     -0.597411    27A     -0.589355
      28A     -0.553172    29A     -0.533789    30A     -0.516243
      31A     -0.506790    32A     -0.501744    33A     -0.458672
      34A     -0.444400    35A     -0.343476    36A     -0.342118

  @DF-RHF Final Energy:  -457.34443714640366

   => Energetics <=

    Nuclear Repulsion Energy =            492.4762307980983564
    One-Electron Energy =               -1599.1739298301904455
    Two-Electron Energy =                 649.3532618856885392
    DFT Exchange-Correlation Energy =       0.0000000000000000
    Empirical Dispersion Energy =           0.0000000000000000
    PCM Polarization Energy =               0.0000000000000000
    EFP Energy =                            0.0000000000000000
    Total Energy =                       -457.3444371464034930
    Molecular point group: c1
  Basis Set: 6-31G*
  Basis Set:

  -Total Gradient:
     Atom            X                  Y                   Z
    ------   -----------------  -----------------  -----------------
       1       -0.000001896869     0.000007038147    -0.000006250683
       2        0.000014014755    -0.000074783467     0.000010468555
       3        0.000061004807     0.000043640366    -0.000025105939
       4       -0.000069403852     0.000034774219     0.000032404257
       5       -0.000005749640    -0.000005122682     0.000008613165
       6       -0.000131347606    -0.000077291357    -0.005565242752
       7        0.000007889747     0.000001137120    -0.000006524065
       8        0.000058742021     0.000068046163     0.000021220464
       9        0.000006886256    -0.000002571742    -0.000001084313
      10       -0.000162948590     0.001446028732     0.006741998553
      11        0.000001322935    -0.000008195174    -0.000002143713
      12        0.001052360930    -0.005589298505     0.002434207556
      13       -0.000819924601     0.004134627883    -0.003662327430
      14       -0.000011603752     0.000021076572     0.000026389595
      15       -0.000004162979     0.000011068750    -0.000011337914
      16        0.000008329347    -0.000004853322     0.000001143959
      17       -0.000001244681    -0.000003821989     0.000002119638
      18       -0.000002268231    -0.000001499710     0.000001451070

  **** Optimization is complete! (in 6 steps) ****
    Final optimized geometry and variables:
    Molecular point group: c1

    Geometry (in Angstrom), charge = 0, multiplicity = 1:

    H           -4.011717138031    -0.537299534463     0.088155113920
    C           -2.949370777049    -0.372052770070     0.109575925806
    C           -2.450524004933     0.920739318097     0.126868045040
    C           -2.081215402794    -1.452877235629     0.113137428483
    H           -3.123102464101     1.759191373659     0.113431380937
    C           -1.083144970675     1.133986476997     0.163849699886
    H           -2.468111149032    -2.455679615987     0.094752508679
    C           -0.713382399903    -1.241670257443     0.125068046363
    H           -0.686563500677     2.131885764052     0.194494633483
    C           -0.213551314619     0.052538769508     0.175789193458
    H           -0.037280249105    -2.076158249541     0.099263731451
    C            1.255468580617     0.319528155936     0.155315519144
    O            1.880955556370    -0.383518962955    -0.776291670213
    O            1.800088681177     1.118525068243     0.848351631450
    C            3.282234567359    -0.199784152372    -0.883256135591
    H            3.509479647077     0.825857634685    -1.134626907731
    H            3.605162302531    -0.860161607359    -1.672638612760
    H            3.771595112431    -0.455841560421     0.045396734478

  Mulliken Charges: (a.u.)
   Center  Symbol    Alpha    Beta     Spin     Total
       1     H     0.39594  0.39594  0.00000  0.20811
       2     C     3.09367  3.09367  0.00000 -0.18733
       3     C     3.10331  3.10331  0.00000 -0.20662
       4     C     3.10405  3.10405  0.00000 -0.20810
       5     H     0.39552  0.39552  0.00000  0.20896
       6     C     3.09525  3.09525  0.00000 -0.19051
       7     H     0.39601  0.39601  0.00000  0.20797
       8     C     3.09103  3.09103  0.00000 -0.18206
       9     H     0.38326  0.38326  0.00000  0.23348
      10     C     3.03093  3.03093  0.00000 -0.06186
      11     H     0.38823  0.38823  0.00000  0.22354
      12     C     2.62171  2.62171  0.00000  0.75659
      13     O     4.29996  4.29996  0.00000 -0.59993
      14     O     4.28437  4.28437  0.00000 -0.56873
      15     C     3.09419  3.09419  0.00000 -0.18837
      16     H     0.40716  0.40716  0.00000  0.18568
      17     H     0.40700  0.40700  0.00000  0.18600
      18     H     0.40841  0.40841  0.00000  0.18319

   Total alpha = 36.00000, Total beta = 36.00000, Total charge =  0.00000
