                              Psi4 1.0.54 Driver

  ==> Input File <==

--------------------------------------------------------------------------
set {
	reference rhf
	basis cc-pvtz
}

set_num_threads( 4 )
memory 2 gb

molecule MOL {
0 1

O	 -1.278239	 1.034789	 -0.784693
C	 -1.204115	 0.062668	 -0.112312
C	 -2.386398	 -0.667698	 0.460323
O	 -0.068058	 -0.518372	 0.226882
H	 -2.382952	 -1.693172	 0.114333
H	 -3.296656	 -0.175702	 0.158400
H	 -2.312537	 -0.685191	 1.540100
C	 1.054930	 -0.434433	 -0.656665
C	 1.907577	 -1.655631	 -0.375985
C	 1.794493	 0.871445	 -0.427895
H	 0.682970	 -0.466769	 -1.669427
H	 1.342998	 -2.563563	 -0.545273
H	 2.771772	 -1.662858	 -1.029304
H	 2.253887	 -1.654578	 0.650662
H	 2.652222	 0.931167	 -1.087618
H	 1.152499	 1.717083	 -0.631339
H	 2.145898	 0.934725	 0.595723

	symmetry c1
}
set optking {
	frozen_dihedral = ("
		8 4 2 1
	")
}

ee,wfn = optimize('scf', return_wfn=True)
oeprop( wfn, 'DIPOLE', 'QUADRUPOLE', 'MULLIKEN_CHARGES')
f=open( 'psi4out.xyz', 'w' )
f.write( "17  " )
f.write( str(ee) + "\n" )
f.write( MOL.save_string_xyz() )
f.close()
--------------------------------------------------------------------------

    Molecular point group: c1
  Charge       = 0
  Multiplicity = 1
  Basis Set: CC-PVTZ
  Basis Set:
  @DF-RHF Final Energy:  -345.03815694818240
    Total Energy =                       -345.0381569481821771
    Molecular point group: c1
  Basis Set: CC-PVTZ
  Basis Set:
  Basis Set: CC-PVTZ
  Basis Set:
  @DF-RHF Final Energy:  -345.00832191379629
    Total Energy =                       -345.0083219137962942
  Basis Set: CC-PVTZ
  Basis Set:
  Basis Set: CC-PVTZ
  Basis Set:
  @DF-RHF Final Energy:  -345.03643002199277
    Total Energy =                       -345.0364300219924871
  Basis Set: CC-PVTZ
  Basis Set:
  Basis Set: CC-PVTZ
  Basis Set:
  @DF-RHF Final Energy:  -345.03886447555459
    Total Energy =                       -345.0388644755545329
  Basis Set: CC-PVTZ
  Basis Set:
  @DF-RHF Final Energy:  -345.03912018868664
    Total Energy =                       -345.0391201886861836
  Basis Set: CC-PVTZ
  Basis Set:
  @DF-RHF Final Energy:  -345.03916507240336
    Total Energy =                       -345.0391650724031365
  Basis Set: CC-PVTZ
  Basis Set:
  Basis Set: CC-PVTZ
  Basis Set:
  @DF-RHF Final Energy:  -345.03918303798878
    Total Energy =                       -345.0391830379890052
  Basis Set: CC-PVTZ
  Basis Set:
  Basis Set: CC-PVTZ
  Basis Set:
  @DF-RHF Final Energy:  -345.03918790691080
    Total Energy =                       -345.0391879069107404
  Basis Set: CC-PVTZ
  Basis Set:
  Charge       = 0
  Multiplicity = 1
  Basis Set: CC-PVTZ
  Basis Set:

    Orbital Energies (a.u.)
    -----------------------

    Doubly Occupied:

       1A    -20.587106     2A    -20.533723     3A    -11.367356
       4A    -11.290748     5A    -11.231129     6A    -11.218906
       7A    -11.212038     8A     -1.466069     9A     -1.364742
      10A     -1.078678    11A     -1.006252    12A     -0.947994
      13A     -0.848326    14A     -0.770618    15A     -0.694210
      16A     -0.673659    17A     -0.657607    18A     -0.611380
      19A     -0.588713    20A     -0.580338    21A     -0.565701
      22A     -0.550680    23A     -0.543240    24A     -0.517514
      25A     -0.501861    26A     -0.485030    27A     -0.447444
      28A     -0.440382

  @DF-RHF Final Energy:  -345.03918867340013

   => Energetics <=

    Nuclear Repulsion Energy =            322.8470160184386373
    One-Electron Energy =               -1110.2095245543778219
    Two-Electron Energy =                 442.3233198625391651
    DFT Exchange-Correlation Energy =       0.0000000000000000
    Empirical Dispersion Energy =           0.0000000000000000
    PCM Polarization Energy =               0.0000000000000000
    EFP Energy =                            0.0000000000000000
    Total Energy =                       -345.0391886734000764
    Molecular point group: c1
  Basis Set: CC-PVTZ
  Basis Set:

  -Total Gradient:
     Atom            X                  Y                   Z
    ------   -----------------  -----------------  -----------------
       1        0.001310371671     0.006797672179     0.004740753242
       2       -0.003273314327    -0.013484913176    -0.007445633098
       3       -0.000018311657     0.000171379856    -0.000024520153
       4        0.003951531769     0.012623799589     0.003109989649
       5        0.000035692134    -0.000080206671     0.000033117232
       6       -0.000050421888     0.000029151232     0.000016681788
       7        0.000028487115     0.000031857786     0.000064728088
       8       -0.002111346937    -0.006112870803    -0.000461517081
       9        0.000009311517     0.000033329100    -0.000032845024
      10        0.000071919581    -0.000014441213     0.000030027127
      11        0.000034882609     0.000009753839     0.000000418177
      12       -0.000009177004    -0.000018594807    -0.000003596142
      13        0.000026757648    -0.000025197880    -0.000013786612
      14        0.000005671319     0.000005300171     0.000012283683
      15        0.000011579546     0.000009079392    -0.000013408770
      16       -0.000023263320     0.000022254260    -0.000011839640
      17       -0.000000369779     0.000002647145    -0.000000852464

  **** Optimization is complete! (in 9 steps) ****
    Final optimized geometry and variables:
    Molecular point group: c1

    Geometry (in Angstrom), charge = 0, multiplicity = 1:

    O           -1.398984775004     1.003019610487    -0.691065608290
    C           -1.153887580495     0.321318516625     0.244388407904
    C           -2.154374739478    -0.071951012340     1.294314774671
    O            0.060267557201    -0.121858876787     0.534823170504
    H           -2.284771985926    -1.147236446680     1.280849597595
    H           -3.096214776193     0.416432554668     1.103407831545
    H           -1.779987460854     0.199500611669     2.272610739621
    C            0.991439252558    -0.358433027551    -0.528362758357
    C            1.744584519692    -1.624302569847    -0.170729871663
    C            1.898947059605     0.846763318311    -0.694978674334
    H            0.424343657650    -0.506295221123    -1.436164048034
    H            1.064453486721    -2.459780237314    -0.063172383598
    H            2.460112983052    -1.863132059446    -0.948590764421
    H            2.281230330369    -1.498423621113     0.761909678217
    H            2.612477572213     0.669878770068    -1.491647016088
    H            1.319503569011     1.725055337119    -0.941818759495
    H            2.448375389449     1.035991189470     0.220188998486

  Mulliken Charges: (a.u.)
   Center  Symbol    Alpha    Beta     Spin     Total
       1     O     4.19466  4.19466  0.00000 -0.38932
       2     C     2.80883  2.80883  0.00000  0.38233
       3     C     3.13638  3.13638  0.00000 -0.27276
       4     O     4.16791  4.16791  0.00000 -0.33582
       5     H     0.44857  0.44857  0.00000  0.10286
       6     H     0.43859  0.43859  0.00000  0.12283
       7     H     0.44410  0.44410  0.00000  0.11180
       8     C     2.93014  2.93014  0.00000  0.13972
       9     C     3.13588  3.13588  0.00000 -0.27175
      10     C     3.14871  3.14871  0.00000 -0.29743
      11     H     0.44828  0.44828  0.00000  0.10345
      12     H     0.44883  0.44883  0.00000  0.10235
      13     H     0.45360  0.45360  0.00000  0.09280
      14     H     0.45146  0.45146  0.00000  0.09708
      15     H     0.45202  0.45202  0.00000  0.09595
      16     H     0.43774  0.43774  0.00000  0.12453
      17     H     0.45431  0.45431  0.00000  0.09138

   Total alpha = 28.00000, Total beta = 28.00000, Total charge = -0.00000

*** Psi4 exiting successfully. Buy a developer a beer!
