  ==> Input File <==

--------------------------------------------------------------------------
set {
	reference rhf
	basis 6-31G*
}

set_num_threads( 1 )
memory 2 gb

molecule MOL {
0 1

H	 0.092279	 4.200725	 0.385041
O	 -0.134704	 3.793075	 -0.438784
C	 -0.146663	 2.398767	 -0.287949
C	 1.263305	 1.841079	 -0.206455
H	 -0.711193	 2.094944	 0.589180
H	 -0.645463	 1.993144	 -1.156925
O	 1.171513	 0.459272	 -0.058250
H	 1.792691	 2.283222	 0.639855
H	 1.812990	 2.104383	 -1.108176
C	 2.397842	 -0.198080	 -0.002151
H	 2.508049	 -0.905315	 -0.822092
H	 3.173794	 0.550865	 -0.078850
H	 2.517602	 -0.735921	 0.936026

	symmetry c1
}
set optking {
	frozen_dihedral = ("
		8 4 3 5,
		1 2 3 5,
		10 7 4 8
	")
}

ee = energy('scf')
oeprop('DIPOLE', 'QUADRUPOLE', 'MULLIKEN_CHARGES')
f=open( 'psi4out.xyz', 'w' )
f.write( "13  " )
f.write( str(ee) + "\n" )
f.write( MOL.save_string_xyz() )
f.close()
--------------------------------------------------------------------------

    Molecular point group: c1

    Geometry (in Angstrom), charge = 0, multiplicity = 1:

       Center              X                  Y                   Z               Mass
    ------------   -----------------  -----------------  -----------------  -----------------
           H         -0.819995737189     2.515126943013     0.576086009968     1.007825032070
           O         -1.046978737189     2.107476943013    -0.247738990032    15.994914619560
           C         -1.058937737189     0.713168943013    -0.096903990032    12.000000000000
           C          0.351030262811     0.155480943013    -0.015409990032    12.000000000000
           H         -1.623467737189     0.409345943013     0.780225009968     1.007825032070
           H         -1.557737737189     0.307545943013    -0.965879990032     1.007825032070
           O          0.259238262811    -1.226326056987     0.132795009968    15.994914619560
           H          0.880416262811     0.597623943013     0.830900009968     1.007825032070
           H          0.900715262811     0.418784943013    -0.917130990032     1.007825032070
           C          1.485567262811    -1.883678056987     0.188894009968    12.000000000000
           H          1.595774262811    -2.590913056987    -0.631046990032     1.007825032070
           H          2.261519262811    -1.134733056987     0.112195009968     1.007825032070
           H          1.605327262811    -2.421519056987     1.127071009968     1.007825032070

  Charge       = 0
  Multiplicity = 1
  Basis Set: 6-31G*
  Basis Set:

    Orbital Energies (a.u.)
    -----------------------

    Doubly Occupied:

       1A    -20.560180     2A    -20.558959     3A    -11.271936
       4A    -11.269679     5A    -11.268836     6A     -1.387877
       7A     -1.365142     8A     -1.017739     9A     -0.913068
      10A     -0.843971    11A     -0.709284    12A     -0.671696
      13A     -0.659150    14A     -0.639175    15A     -0.596305
      16A     -0.568333    17A     -0.548953    18A     -0.489131
      19A     -0.481937    20A     -0.438679    21A     -0.416997

  @DF-RHF Final Energy:  -267.94553968730497

   => Energetics <=

    Nuclear Repulsion Energy =            190.3433275794614303
    One-Electron Energy =                -743.2236679762365839
    Two-Electron Energy =                 284.9348007094697550
    DFT Exchange-Correlation Energy =       0.0000000000000000
    Empirical Dispersion Energy =           0.0000000000000000
    PCM Polarization Energy =               0.0000000000000000
    EFP Energy =                            0.0000000000000000
    Total Energy =                       -267.9455396873054269

  Mulliken Charges: (a.u.)
   Center  Symbol    Alpha    Beta     Spin     Total
       1     H     0.28130  0.28130  0.00000  0.43741
       2     O     4.37081  4.37081  0.00000 -0.74162
       3     C     3.00481  3.00481  0.00000 -0.00963
       4     C     2.99939  2.99939  0.00000  0.00123
       5     H     0.42215  0.42215  0.00000  0.15570
       6     H     0.40832  0.40832  0.00000  0.18335
       7     O     4.30984  4.30984  0.00000 -0.61968
       8     H     0.43679  0.43679  0.00000  0.12643
       9     H     0.42243  0.42243  0.00000  0.15514
      10     C     3.07569  3.07569  0.00000 -0.15138
      11     H     0.41947  0.41947  0.00000  0.16107
      12     H     0.42877  0.42877  0.00000  0.14247
      13     H     0.42024  0.42024  0.00000  0.15952

   Total alpha = 21.00000, Total beta = 21.00000, Total charge =  0.00000
