  ==> Input File <==

--------------------------------------------------------------------------
set {
	reference rhf
	basis 6-31G*
}

set_num_threads( 1 )
memory 2 gb

molecule MOL {
0 1

O	 -0.988096	 -1.408613	 0.050699
C	 -0.676749	 -0.249230	 -0.009274
C	 -1.746085	 0.827156	 -0.009539
N	 0.623947	 0.147590	 -0.102813
H	 -1.701500	 1.431508	 -0.908902
H	 -2.703425	 0.330732	 0.036390
H	 -1.647323	 1.487769	 0.845106
C	 0.927745	 1.367504	 -0.824888
C	 1.754917	 -0.715627	 0.157974
H	 1.724126	 1.899503	 -0.316191
H	 0.050378	 1.989357	 -0.863199
H	 1.252549	 1.154660	 -1.841068
H	 2.571690	 -0.120930	 0.549453
H	 1.518507	 -1.468694	 0.892776
H	 2.104352	 -1.211644	 -0.745727

	symmetry c1
}
set optking {
	frozen_dihedral = ("
		2 4 8 10
	")
}

ee = energy('scf')
oeprop('DIPOLE', 'QUADRUPOLE', 'MULLIKEN_CHARGES')
f=open( 'psi4out.xyz', 'w' )
f.write( "15  " )
f.write( str(ee) + "\n" )
f.write( MOL.save_string_xyz() )
f.close()
--------------------------------------------------------------------------

    Molecular point group: c1

    Geometry (in Angstrom), charge = 0, multiplicity = 1:

       Center              X                  Y                   Z               Mass
    ------------   -----------------  -----------------  -----------------  -----------------
           O         -0.979421845858    -1.406648374156     0.179646535046    15.994914619560
           C         -0.668074845858    -0.247265374156     0.119673535046    12.000000000000
           C         -1.737410845858     0.829120625844     0.119408535046    12.000000000000
           N          0.632621154142     0.149554625844     0.026134535046    14.003074004780
           H         -1.692825845858     1.433472625844    -0.779954464954     1.007825032070
           H         -2.694750845858     0.332696625844     0.165337535046     1.007825032070
           H         -1.638648845858     1.489733625844     0.974053535046     1.007825032070
           C          0.936419154142     1.369468625844    -0.695940464954    12.000000000000
           C          1.763591154142    -0.713662374156     0.286921535046    12.000000000000
           H          1.732800154142     1.901467625844    -0.187243464954     1.007825032070
           H          0.059052154142     1.991321625844    -0.734251464954     1.007825032070
           H          1.261223154142     1.156624625844    -1.712120464954     1.007825032070
           H          2.580364154142    -0.118965374156     0.678400535046     1.007825032070
           H          1.527181154142    -1.466729374156     1.021723535046     1.007825032070
           H          2.113026154142    -1.209679374156    -0.616779464954     1.007825032070

  Charge       = 0
  Multiplicity = 1
  Basis Set: 6-31G*
  Basis Set:

    Orbital Energies (a.u.)
    -----------------------

    Doubly Occupied:

       1A    -20.517478     2A    -15.579890     3A    -11.341571
       4A    -11.262685     5A    -11.253937     6A    -11.228641
       7A     -1.384038     8A     -1.243705     9A     -1.016879
      10A     -0.969205    11A     -0.922413    12A     -0.738759
      13A     -0.680292    14A     -0.657673    15A     -0.652362
      16A     -0.597171    17A     -0.578108    18A     -0.565152
      19A     -0.560104    20A     -0.554763    21A     -0.527610
      22A     -0.497340    23A     -0.411895    24A     -0.364495

  @DF-RHF Final Energy:  -286.02065642959224

   => Energetics <=

    Nuclear Repulsion Energy =            252.2450415755795063
    One-Electron Energy =                -888.3189837459830187
    Two-Electron Energy =                 350.0532857408105656
    DFT Exchange-Correlation Energy =       0.0000000000000000
    Empirical Dispersion Energy =           0.0000000000000000
    PCM Polarization Energy =               0.0000000000000000
    EFP Energy =                            0.0000000000000000
    Total Energy =                       -286.0206564295929184

  Mulliken Charges: (a.u.)
   Center  Symbol    Alpha    Beta     Spin     Total
       1     O     4.29578  4.29578  0.00000 -0.59156
       2     C     2.63340  2.63340  0.00000  0.73321
       3     C     3.29952  3.29952  0.00000 -0.59905
       4     N     3.81864  3.81864  0.00000 -0.63727
       5     H     0.40854  0.40854  0.00000  0.18292
       6     H     0.39055  0.39055  0.00000  0.21889
       7     H     0.40381  0.40381  0.00000  0.19237
       8     C     3.14415  3.14415  0.00000 -0.28830
       9     C     3.13621  3.13621  0.00000 -0.27242
      10     H     0.41427  0.41427  0.00000  0.17147
      11     H     0.40828  0.40828  0.00000  0.18345
      12     H     0.41538  0.41538  0.00000  0.16924
      13     H     0.41784  0.41784  0.00000  0.16433
      14     H     0.39659  0.39659  0.00000  0.20682
      15     H     0.41705  0.41705  0.00000  0.16590

   Total alpha = 24.00000, Total beta = 24.00000, Total charge =  0.00000
