  ==> Input File <==

--------------------------------------------------------------------------
set {
	reference rhf
	basis 6-31G*
}

set_num_threads( 4 )
memory 2 gb

molecule MOL {
0 1

O	 -2.439739	 -0.935931	 -0.423848
C	 -1.921153	 0.064240	 -0.045697
C	 -2.624470	 1.379923	 0.150949
O	 -0.632575	 0.154573	 0.251549
H	 -2.168117	 2.136577	 -0.476876
H	 -3.669540	 1.273223	 -0.098610
H	 -2.519365	 1.700893	 1.180846
C	 0.160891	 -1.019931	 0.106212
C	 1.589627	 -0.672828	 0.480843
H	 0.089836	 -1.367806	 -0.916050
H	 -0.238459	 -1.792301	 0.749618
C	 2.604159	 -1.766101	 0.140433
H	 1.608542	 -0.477616	 1.551108
H	 1.866016	 0.255816	 -0.011586
C	 4.027242	 -1.394863	 0.555181
H	 2.313276	 -2.691183	 0.634105
H	 2.575782	 -1.962514	 -0.926326
H	 4.727257	 -2.184902	 0.302496
H	 4.093708	 -1.224157	 1.626031
H	 4.357298	 -0.488621	 0.055313

	symmetry c1
}
set optking {
	frozen_dihedral = ("
		12 9 8 10
	")
}

ee = optimize('scf')
oeprop('DIPOLE', 'QUADRUPOLE', 'MULLIKEN_CHARGES')
f=open( 'psi4out.xyz', 'w' )
f.write( "20  " )
f.write( str(ee) + "\n" )
f.write( MOL.save_string_xyz() )
f.close()
--------------------------------------------------------------------------

    Molecular point group: c1
  Charge       = 0
  Multiplicity = 1
  Basis Set: 6-31G*
  Basis Set:
  @DF-RHF Final Energy:  -383.94490163347245
    Total Energy =                       -383.9449016334721136
    Molecular point group: c1
  Basis Set: 6-31G*
  Basis Set:
  Basis Set: 6-31G*
  Basis Set:
  @DF-RHF Final Energy:  -383.94510043120323
    Total Energy =                       -383.9451004312029454
  Basis Set: 6-31G*
  Basis Set:
  Basis Set: 6-31G*
  Basis Set:
  @DF-RHF Final Energy:  -383.94408161922934
    Total Energy =                       -383.9440816192292232
  Basis Set: 6-31G*
  Basis Set:
  Basis Set: 6-31G*
  Basis Set:
  @DF-RHF Final Energy:  -383.94521485921325
    Total Energy =                       -383.9452148592131380
  Basis Set: 6-31G*
  Basis Set:
  Basis Set: 6-31G*
  Basis Set:
  @DF-RHF Final Energy:  -383.94521602016459
    Total Energy =                       -383.9452160201645370
  Basis Set: 6-31G*
  Basis Set:
  Basis Set: 6-31G*
  Basis Set:
  @DF-RHF Final Energy:  -383.94522074834038
    Total Energy =                       -383.9452207483408301
  Basis Set: 6-31G*
  Basis Set:
  Charge       = 0
  Multiplicity = 1
  Basis Set: 6-31G*
  Basis Set:

    Orbital Energies (a.u.)
    -----------------------

    Doubly Occupied:

       1A    -20.601590     2A    -20.543761     3A    -11.374142
       4A    -11.281587     5A    -11.232989     6A    -11.226461
       7A    -11.224324     8A    -11.215984     9A     -1.467858
      10A     -1.362012    11A     -1.088128    12A     -1.029743
      13A     -0.980809    14A     -0.881304    15A     -0.808497
      16A     -0.776236    17A     -0.691742    18A     -0.686301
      19A     -0.668710    20A     -0.637958    21A     -0.594276
      22A     -0.594082    23A     -0.570557    24A     -0.560415
      25A     -0.545176    26A     -0.519931    27A     -0.506592
      28A     -0.485160    29A     -0.481191    30A     -0.476377
      31A     -0.451952    32A     -0.437184

  @DF-RHF Final Energy:  -383.94522113538551

   => Energetics <=

    Nuclear Repulsion Energy =            378.8482672889937248
    One-Electron Energy =               -1273.5809218272013368
    Two-Electron Energy =                 510.7874334028223871
    DFT Exchange-Correlation Energy =       0.0000000000000000
    Empirical Dispersion Energy =           0.0000000000000000
    PCM Polarization Energy =               0.0000000000000000
    EFP Energy =                            0.0000000000000000
    Total Energy =                       -383.9452211353852249
    Molecular point group: c1
  Basis Set: 6-31G*
  Basis Set:

  -Total Gradient:
     Atom            X                  Y                   Z
    ------   -----------------  -----------------  -----------------
       1        0.000002456160     0.000002608064     0.000000526007
       2        0.000007435830     0.000016656746    -0.000016525240
       3       -0.000008637978    -0.000005353313     0.000010622779
       4       -0.000024621849    -0.000001107619    -0.000013335521
       5       -0.000001355970     0.000000458925    -0.000001868640
       6       -0.000001437160     0.000003196304     0.000000279302
       7        0.000002114214     0.000000403753    -0.000002104105
       8       -0.000309800836     0.002749372426    -0.001320804661
       9       -0.000219531771    -0.001374532276     0.002054932812
      10        0.000316687974    -0.001998991691     0.000659704364
      11        0.000017825913     0.000004125233    -0.000007235068
      12        0.000218412133     0.000608306900    -0.001353429426
      13       -0.000003200425    -0.000006196376    -0.000003182105
      14       -0.000003589210    -0.000001578179     0.000000768664
      15        0.000012034857     0.000001319444    -0.000012960721
      16       -0.000005795179     0.000007432365     0.000004406540
      17        0.000003999814    -0.000005226977    -0.000001643484
      18        0.000001066643     0.000003575167    -0.000005421724
      19       -0.000002479078    -0.000008906882     0.000001349959
      20       -0.000001584072     0.000004437985     0.000005920269

  **** Optimization is complete! (in 7 steps) ****
    Final optimized geometry and variables:
    Molecular point group: c1

    Geometry (in Angstrom), charge = 0, multiplicity = 1:

    O           -2.518435465493    -0.432560558122    -0.560556520237
    C           -2.005568098693     0.575926681293    -0.196840290903
    C           -2.720808902510     1.884681115092     0.003278503121
    O           -0.714624548979     0.682040616022     0.084448486937
    H           -2.280972231369     2.643201983491    -0.633927632517
    H           -3.767806045043     1.765207427888    -0.232058562202
    H           -2.605521153519     2.211529479893     1.030249474796
    C            0.087688877296    -0.483755408108    -0.059096771495
    C            1.509378377221    -0.122789556226     0.331579444004
    H            0.032048650841    -0.838320160698    -1.080208070260
    H           -0.310593406623    -1.265571576771     0.574530272541
    C            2.501733946984    -1.236948570052    -0.007236333944
    H            1.543246559454     0.103458262911     1.393724414169
    H            1.792080052846     0.786714443820    -0.191385515475
    C            3.931928917439    -0.897886755449     0.410516867698
    H            2.195292766507    -2.161348816206     0.478060956235
    H            2.474309184798    -1.429535048405    -1.077138117298
    H            4.615835276032    -1.699321915393     0.150370334166
    H            3.999764265606    -0.739082818669     1.482752286570
    H            4.278958200663     0.006749154650    -0.080279530059

  Mulliken Charges: (a.u.)
   Center  Symbol    Alpha    Beta     Spin     Total
       1     O     4.28331  4.28331  0.00000 -0.56661
       2     C     2.62005  2.62005  0.00000  0.75991
       3     C     3.28155  3.28155  0.00000 -0.56309
       4     O     4.31048  4.31048  0.00000 -0.62097
       5     H     0.40057  0.40057  0.00000  0.19885
       6     H     0.39701  0.39701  0.00000  0.20597
       7     H     0.40055  0.40055  0.00000  0.19890
       8     C     2.99532  2.99532  0.00000  0.00935
       9     C     3.16376  3.16376  0.00000 -0.32753
      10     H     0.41146  0.41146  0.00000  0.17708
      11     H     0.41094  0.41094  0.00000  0.17812
      12     C     3.16074  3.16074  0.00000 -0.32148
      13     H     0.41513  0.41513  0.00000  0.16974
      14     H     0.41372  0.41372  0.00000  0.17257
      15     C     3.23930  3.23930  0.00000 -0.47861
      16     H     0.41997  0.41997  0.00000  0.16005
      17     H     0.41930  0.41930  0.00000  0.16140
      18     H     0.41696  0.41696  0.00000  0.16608
      19     H     0.41994  0.41994  0.00000  0.16012
      20     H     0.41993  0.41993  0.00000  0.16015

   Total alpha = 32.00000, Total beta = 32.00000, Total charge =  0.00000
