  ==> Input File <==

--------------------------------------------------------------------------
set {
	reference rhf
	basis 6-31G*
}

set_num_threads( 4 )
memory 2 gb

molecule MOL {
0 1

H	 3.463771	 0.168298	 -0.756243
C	 2.752674	 -0.045734	 0.033351
C	 1.322923	 0.120767	 -0.479465
H	 2.934561	 -1.059086	 0.377456
H	 2.958358	 0.631174	 0.856809
C	 0.306652	 -0.176050	 0.621399
H	 1.144658	 -0.551717	 -1.312180
H	 1.166477	 1.131798	 -0.836680
N	 -1.068537	 -0.011044	 0.085269
H	 0.372515	 -1.192590	 0.973735
H	 0.391664	 0.520566	 1.441230
O	 -1.313501	 0.997042	 -0.502207
O	 -1.845225	 -0.889047	 0.308630

	symmetry c1
}
set optking {
	frozen_dihedral = ("
		12 9 6 3
	")
}

ee = optimize('scf')
oeprop('DIPOLE', 'QUADRUPOLE', 'MULLIKEN_CHARGES')
f=open( 'psi4out.xyz', 'w' )
f.write( "13  " )
f.write( str(ee) + "\n" )
f.write( MOL.save_string_xyz() )
f.close()
--------------------------------------------------------------------------

    Molecular point group: c1
  Charge       = 0
  Multiplicity = 1
  Basis Set: 6-31G*
  Basis Set:
  @DF-RHF Final Energy:  -321.73504271547608
    Total Energy =                       -321.7350427154759700
    Molecular point group: c1
  Basis Set: 6-31G*
  Basis Set:
  Basis Set: 6-31G*
  Basis Set:
  @DF-RHF Final Energy:  -321.73079917374514
    Total Energy =                       -321.7307991737453676
  Basis Set: 6-31G*
  Basis Set:
  Basis Set: 6-31G*
  Basis Set:
  @DF-RHF Final Energy:  -321.73212593776287
    Total Energy =                       -321.7321259377629303
  Basis Set: 6-31G*
  Basis Set:
  Basis Set: 6-31G*
  Basis Set:
  @DF-RHF Final Energy:  -321.73505749545785
    Total Energy =                       -321.7350574954578519
  Basis Set: 6-31G*
  Basis Set:
  @DF-RHF Final Energy:  -321.73536621043490
    Total Energy =                       -321.7353662104346199
  Basis Set: 6-31G*
  Basis Set:
  @DF-RHF Final Energy:  -321.73540177965333
    Total Energy =                       -321.7354017796532162
  Basis Set: 6-31G*
  Basis Set:
  Basis Set: 6-31G*
  Basis Set:
  @DF-RHF Final Energy:  -321.73540459724489
    Total Energy =                       -321.7354045972448375
  Basis Set: 6-31G*
  Basis Set:
  Basis Set: 6-31G*
  Basis Set:
  @DF-RHF Final Energy:  -321.73540636068128
    Total Energy =                       -321.7354063606813952
  Basis Set: 6-31G*
  Basis Set:
  Charge       = 0
  Multiplicity = 1
  Basis Set: 6-31G*
  Basis Set:

    Orbital Energies (a.u.)
    -----------------------

    Doubly Occupied:

       1A    -20.602892     2A    -20.599672     3A    -15.847832
       4A    -11.300023     5A    -11.253391     6A    -11.238679
       7A     -1.631384     8A     -1.416676     9A     -1.134000
      10A     -1.027956    11A     -0.884455    12A     -0.829855
      13A     -0.760062    14A     -0.739779    15A     -0.724592
      16A     -0.666095    17A     -0.605373    18A     -0.584111
      19A     -0.550802    20A     -0.522652    21A     -0.511465
      22A     -0.484373    23A     -0.473298    24A     -0.449057

  @DF-RHF Final Energy:  -321.73540643680587

   => Energetics <=

    Nuclear Repulsion Energy =            247.1686811850628374
    One-Electron Energy =                -928.1312271557461600
    Two-Electron Energy =                 359.2271395338774482
    DFT Exchange-Correlation Energy =       0.0000000000000000
    Empirical Dispersion Energy =           0.0000000000000000
    PCM Polarization Energy =               0.0000000000000000
    EFP Energy =                            0.0000000000000000
    Total Energy =                       -321.7354064368058744
    Molecular point group: c1
  Basis Set: 6-31G*
  Basis Set:

  -Total Gradient:
     Atom            X                  Y                   Z
    ------   -----------------  -----------------  -----------------
       1        0.000007834828     0.000001114224     0.000001891276
       2        0.000005771881     0.000007325301    -0.000000540044
       3       -0.000012244752     0.000247717877     0.000071543697
       4        0.000000395603     0.000001618063    -0.000003937697
       5       -0.000002090404    -0.000004011838     0.000000185471
       6        0.000029675509    -0.000380455052    -0.000224068777
       7        0.000003303908    -0.000000208947    -0.000009304499
       8       -0.000002961905    -0.000002834982     0.000005546200
       9       -0.000133765816     0.000295479162     0.000455662406
      10       -0.000018572188     0.000006247394    -0.000013054452
      11        0.000000133509    -0.000000013002     0.000014731999
      12        0.000125494095    -0.000173533101    -0.000305687974
      13       -0.000002974265     0.000001554902     0.000007032394

  **** Optimization is complete! (in 9 steps) ****
    Final optimized geometry and variables:
    Molecular point group: c1

    Geometry (in Angstrom), charge = 0, multiplicity = 1:

    H            3.487489456174     0.165064819795    -0.758054743509
    C            2.766398736136    -0.049123291156     0.022374226001
    C            1.343104916925     0.132145888931    -0.504981695543
    H            2.939304882784    -1.065388999097     0.362839849095
    H            2.968982986474     0.621270691955     0.852229199369
    C            0.320296394811    -0.166220264721     0.584183214242
    H            1.172737037581    -0.533456083764    -1.345505971235
    H            1.197626480670     1.143168018096    -0.860818014239
    N           -1.073062645820    -0.013970963626     0.083641043122
    H            0.387516842594    -1.173955680026     0.959589577612
    H            0.401042763252     0.534100342801     1.405276619958
    O           -1.338514195830     0.995425539000    -0.494894187928
    O           -1.836517839312    -0.901294070183     0.306677245778

  Mulliken Charges: (a.u.)
   Center  Symbol    Alpha    Beta     Spin     Total
       1     H     0.40747  0.40747  0.00000  0.18506
       2     C     3.24904  3.24904  0.00000 -0.49808
       3     C     3.17096  3.17096  0.00000 -0.34192
       4     H     0.41545  0.41545  0.00000  0.16910
       5     H     0.41558  0.41558  0.00000  0.16885
       6     C     3.08748  3.08748  0.00000 -0.17497
       7     H     0.40566  0.40566  0.00000  0.18869
       8     H     0.39369  0.39369  0.00000  0.21262
       9     N     3.22204  3.22204  0.00000  0.55592
      10     H     0.38587  0.38587  0.00000  0.22826
      11     H     0.38770  0.38770  0.00000  0.22461
      12     O     4.23066  4.23066  0.00000 -0.46133
      13     O     4.22840  4.22840  0.00000 -0.45680

   Total alpha = 24.00000, Total beta = 24.00000, Total charge =  0.00000
