                              Psi4 1.0.54 Driver

  ==> Input File <==

--------------------------------------------------------------------------
set {
	reference rhf
	basis cc-pvtz
}

set_num_threads( 4 )
memory 2 gb

molecule MOL {
0 1

H	 2.614283	 2.028610	 0.296620
O	 3.358864	 1.662087	 -0.142800
C	 3.565468	 0.338079	 0.273842
C	 2.533667	 -0.637565	 -0.272227
H	 4.548038	 0.064914	 -0.086598
H	 3.593945	 0.282242	 1.360360
C	 1.231504	 -0.684201	 0.524044
H	 2.322080	 -0.374713	 -1.304359
H	 2.983491	 -1.627469	 -0.284327
C	 0.233445	 -1.697817	 -0.033896
H	 0.779518	 0.302040	 0.530360
H	 1.451903	 -0.934164	 1.560494
C	 -1.060807	 -1.839802	 0.769228
H	 -0.008449	 -1.432704	 -1.060263
H	 0.717477	 -2.669475	 -0.079314
C	 -1.969794	 -0.612112	 0.753035
H	 -1.616170	 -2.685866	 0.373912
H	 -0.817891	 -2.093780	 1.798617
C	 -3.290907	 -0.837366	 1.484014
H	 -2.175097	 -0.332459	 -0.278039
H	 -1.461211	 0.235370	 1.202614
C	 -4.199287	 0.387631	 1.472988
H	 -3.812674	 -1.676219	 1.031619
H	 -3.087394	 -1.125091	 2.512050
H	 -4.447657	 0.681545	 0.458510
H	 -5.127994	 0.193063	 1.997155
H	 -3.720428	 1.234820	 1.952901

	symmetry c1
}
set optking {
	frozen_dihedral = ("
		8 4 3 2
	")
}

ee,wfn = optimize('scf', return_wfn=True)
oeprop( wfn, 'DIPOLE', 'QUADRUPOLE', 'MULLIKEN_CHARGES')
f=open( 'psi4out.xyz', 'w' )
f.write( "27  " )
f.write( str(ee) + "\n" )
f.write( MOL.save_string_xyz() )
f.close()
--------------------------------------------------------------------------

    Molecular point group: c1
  Charge       = 0
  Multiplicity = 1
  Basis Set: CC-PVTZ
  Basis Set:
  @DF-RHF Final Energy:  -388.42645988852655
    Total Energy =                       -388.4264598885264377
    Molecular point group: c1
  Basis Set: CC-PVTZ
  Basis Set:
  Basis Set: CC-PVTZ
  Basis Set:
  @DF-RHF Final Energy:  -388.42661495834699
    Total Energy =                       -388.4266149583467040
  Basis Set: CC-PVTZ
  Basis Set:
  Basis Set: CC-PVTZ
  Basis Set:
  @DF-RHF Final Energy:  -388.42667266666803
    Total Energy =                       -388.4266726666680825
  Basis Set: CC-PVTZ
  Basis Set:
  Basis Set: CC-PVTZ
  Basis Set:
  @DF-RHF Final Energy:  -388.42667392404883
    Total Energy =                       -388.4266739240486004
  Basis Set: CC-PVTZ
  Basis Set:
  Charge       = 0
  Multiplicity = 1
  Basis Set: CC-PVTZ
  Basis Set:

    Orbital Energies (a.u.)
    -----------------------

    Doubly Occupied:

       1A    -20.545422     2A    -11.264704     3A    -11.217100
       4A    -11.214683     5A    -11.214187     6A    -11.213404
       7A    -11.212931     8A    -11.212252     9A    -11.207637
      10A     -1.362824    11A     -1.096430    12A     -1.062780
      13A     -1.012427    14A     -0.948701    15A     -0.888001
      16A     -0.821400    17A     -0.803102    18A     -0.778806
      19A     -0.694114    20A     -0.654744    21A     -0.641467
      22A     -0.613275    23A     -0.601570    24A     -0.583420
      25A     -0.580170    26A     -0.553654    27A     -0.539255
      28A     -0.534589    29A     -0.506309    30A     -0.498734
      31A     -0.485524    32A     -0.474160    33A     -0.467305
      34A     -0.461370    35A     -0.454034    36A     -0.442031
      37A     -0.425681

  @DF-RHF Final Energy:  -388.42667450519258

   => Energetics <=

    Nuclear Repulsion Energy =            459.1900853214427229
    One-Electron Energy =               -1436.6571149629744468
    Two-Electron Energy =                 589.0403551363394854
    DFT Exchange-Correlation Energy =       0.0000000000000000
    Empirical Dispersion Energy =           0.0000000000000000
    PCM Polarization Energy =               0.0000000000000000
    EFP Energy =                            0.0000000000000000
    Total Energy =                       -388.4266745051922953
    Molecular point group: c1
  Basis Set: CC-PVTZ
  Basis Set:

  -Total Gradient:
     Atom            X                  Y                   Z
    ------   -----------------  -----------------  -----------------
       1        0.000022174951     0.000020683411    -0.000009756614
       2        0.001615795076    -0.000378709356    -0.002254384990
       3       -0.002833094155     0.001024135597     0.003302762675
       4        0.003924633181    -0.002706004670    -0.002095613401
       5        0.000001020923    -0.000020147214     0.000020839023
       6        0.000009297890     0.000000156399    -0.000012034580
       7       -0.000002553516    -0.000018174663    -0.000010903779
       8       -0.002686037233     0.002064476802     0.001038905907
       9       -0.000033911004     0.000009485655    -0.000002938965
      10       -0.000012782448     0.000007102445     0.000009127139
      11       -0.000014881361     0.000009087610    -0.000004267747
      12        0.000004864308    -0.000002853821     0.000020817504
      13        0.000006356722    -0.000011121285     0.000006839624
      14        0.000000710179    -0.000000634994     0.000005838602
      15       -0.000001613014    -0.000003102464    -0.000001556177
      16       -0.000005289567     0.000004224278    -0.000011185032
      17        0.000006510998     0.000000326258     0.000000819245
      18        0.000000111933    -0.000002770290    -0.000003030113
      19       -0.000002415076    -0.000002922208     0.000002961882
      20       -0.000004652019     0.000003703916    -0.000003535929
      21       -0.000003190579    -0.000001314497    -0.000000727970
      22        0.000007704500     0.000006679990    -0.000001643169
      23        0.000003081580     0.000002340495    -0.000000467550
      24        0.000001414408    -0.000004109222     0.000001310618
      25       -0.000000806697     0.000000537491     0.000000733152
      26        0.000000340535    -0.000001822701     0.000001217002
      27       -0.000002790521     0.000000747040    -0.000000126359

  **** Optimization is complete! (in 5 steps) ****
    Final optimized geometry and variables:
    Molecular point group: c1

    Geometry (in Angstrom), charge = 0, multiplicity = 1:

    H            2.424718459422     2.397407046238    -0.294119667438
    O            3.202243612352     2.062263901063    -0.701011737026
    C            3.468242341473     0.759964362113    -0.248867785042
    C            2.477338741516    -0.271344299235    -0.775562162257
    H            4.460387296277     0.529270102077    -0.612620822392
    H            3.509323597492     0.730255902642     0.837686480486
    C            1.158739506256    -0.308880923790    -0.002540726895
    H            2.267879843856    -0.029745182741    -1.812622584307
    H            2.938433515829    -1.254146937610    -0.748964786888
    C            0.159464267844    -1.309063232408    -0.581074741531
    H            0.717361402936     0.683729134921     0.003714587192
    H            1.358807653000    -0.562594819147     1.036261690862
    C           -1.138872425029    -1.460679509191     0.213558359666
    H           -0.076624179430    -1.027547600926    -1.604422275133
    H            0.641197208856    -2.281264955861    -0.639818407921
    C           -2.038577615911    -0.226156848012     0.223413705816
    H           -1.698943025491    -2.292920291564    -0.203695773212
    H           -0.901769670511    -1.740606883526     1.237454121927
    C           -3.364641723911    -0.458877203599     0.942856500079
    H           -2.237198909980     0.080188838942    -0.801390310855
    H           -1.525521284105     0.605896850640     0.696171615742
    C           -4.262706015996     0.773566953241     0.959778521529
    H           -3.891384358070    -1.281342390698     0.466856099618
    H           -3.167889506514    -0.774647433875     1.963883207919
    H           -4.504675991352     1.095378461584    -0.047740064574
    H           -5.195038689166     0.573536277059     1.475281393343
    H           -3.778759052054     1.604112316618     1.463070981415

  Mulliken Charges: (a.u.)
   Center  Symbol    Alpha    Beta     Spin     Total
       1     H     0.39358  0.39358  0.00000  0.21285
       2     O     4.20441  4.20441  0.00000 -0.40882
       3     C     2.97595  2.97595  0.00000  0.04811
       4     C     3.09610  3.09610  0.00000 -0.19220
       5     H     0.44886  0.44886  0.00000  0.10227
       6     H     0.47119  0.47119  0.00000  0.05761
       7     C     3.09522  3.09522  0.00000 -0.19043
       8     H     0.44934  0.44934  0.00000  0.10131
       9     H     0.45357  0.45357  0.00000  0.09285
      10     C     3.09898  3.09898  0.00000 -0.19797
      11     H     0.46141  0.46141  0.00000  0.07719
      12     H     0.45387  0.45387  0.00000  0.09226
      13     C     3.09784  3.09784  0.00000 -0.19569
      14     H     0.45162  0.45162  0.00000  0.09675
      15     H     0.44781  0.44781  0.00000  0.10438
      16     C     3.08811  3.08811  0.00000 -0.17623
      17     H     0.44795  0.44795  0.00000  0.10411
      18     H     0.45361  0.45361  0.00000  0.09278
      19     C     3.08402  3.08402  0.00000 -0.16803
      20     H     0.45434  0.45434  0.00000  0.09132
      21     H     0.45534  0.45534  0.00000  0.08932
      22     C     3.14968  3.14968  0.00000 -0.29936
      23     H     0.45366  0.45366  0.00000  0.09267
      24     H     0.45456  0.45456  0.00000  0.09088
      25     H     0.45494  0.45494  0.00000  0.09011
      26     H     0.44818  0.44818  0.00000  0.10364
      27     H     0.45584  0.45584  0.00000  0.08832

   Total alpha = 37.00000, Total beta = 37.00000, Total charge = -0.00000

*** Psi4 exiting successfully. Buy a developer a beer!
