                              Psi4 1.0.54 Driver

  ==> Input File <==

--------------------------------------------------------------------------
set {
	reference rhf
	basis cc-pvtz
}

set_num_threads( 4 )
memory 2 gb

molecule MOL {
0 1

O	 0.758802	 2.028098	 -0.340340
C	 -0.205879	 2.224825	 -0.997416
C	 -1.464999	 1.396868	 -0.973611
O	 -0.303738	 3.223723	 -1.859393
C	 -1.413045	 0.229353	 0.001137
H	 -2.285470	 2.067557	 -0.740194
H	 -1.642989	 1.054529	 -1.987803
C	 -2.702562	 -0.586401	 0.000228
H	 -1.216551	 0.604566	 0.999208
H	 -0.573956	 -0.409760	 -0.249881
C	 -3.953810	 0.284959	 -0.000782
H	 -2.717793	 -1.238567	 -0.869075
H	 -2.719108	 -1.238472	 0.869576
H	 -3.983727	 0.924403	 -0.876454
H	 -4.852989	 -0.320147	 -0.001515
H	 -3.985140	 0.924399	 0.874841
C	 0.810252	 4.084358	 -1.984499
H	 1.028384	 4.565167	 -1.042443
H	 0.536476	 4.820075	 -2.723170
H	 1.681488	 3.535535	 -2.310022

	symmetry c1
}
set optking {
	frozen_dihedral = ("
		9 5 8 12
	")
}

ee,wfn = optimize('scf', return_wfn=True)
oeprop( wfn, 'DIPOLE', 'QUADRUPOLE', 'MULLIKEN_CHARGES')
f=open( 'psi4out.xyz', 'w' )
f.write( "20  " )
f.write( str(ee) + "\n" )
f.write( MOL.save_string_xyz() )
f.close()
--------------------------------------------------------------------------

    Molecular point group: c1
  Charge       = 0
  Multiplicity = 1
  Basis Set: CC-PVTZ
  Basis Set:
  @DF-RHF Final Energy:  -384.07790374728052
    Total Energy =                       -384.0779037472805157
    Molecular point group: c1
  Basis Set: CC-PVTZ
  Basis Set:
  Basis Set: CC-PVTZ
  Basis Set:
  @DF-RHF Final Energy:  -384.07761936554141
    Total Energy =                       -384.0776193655415227
  Basis Set: CC-PVTZ
  Basis Set:
  Basis Set: CC-PVTZ
  Basis Set:
  @DF-RHF Final Energy:  -384.08011680980542
    Total Energy =                       -384.0801168098055314
  Basis Set: CC-PVTZ
  Basis Set:
  Basis Set: CC-PVTZ
  Basis Set:
  @DF-RHF Final Energy:  -384.08002223333966
    Total Energy =                       -384.0800222333396050
  Basis Set: CC-PVTZ
  Basis Set:
  Basis Set: CC-PVTZ
  Basis Set:
  @DF-RHF Final Energy:  -384.07999088734351
    Total Energy =                       -384.0799908873433424
  Basis Set: CC-PVTZ
  Basis Set:
  Basis Set: CC-PVTZ
  Basis Set:
  @DF-RHF Final Energy:  -384.08027777664444
    Total Energy =                       -384.0802777766439249
  Basis Set: CC-PVTZ
  Basis Set:
  Basis Set: CC-PVTZ
  Basis Set:
  @DF-RHF Final Energy:  -384.08027993956659
    Total Energy =                       -384.0802799395667080
  Basis Set: CC-PVTZ
  Basis Set:
  Charge       = 0
  Multiplicity = 1
  Basis Set: CC-PVTZ
  Basis Set:

    Orbital Energies (a.u.)
    -----------------------

    Doubly Occupied:

       1A    -20.596255     2A    -20.534148     3A    -11.364628
       4A    -11.278451     5A    -11.233557     6A    -11.218524
       7A    -11.217292     8A    -11.211245     9A     -1.472211
      10A     -1.365805    11A     -1.089324    12A     -1.023383
      13A     -0.968569    14A     -0.898019    15A     -0.799709
      16A     -0.764642    17A     -0.703897    18A     -0.686016
      19A     -0.675736    20A     -0.637827    21A     -0.609495
      22A     -0.594682    23A     -0.570026    24A     -0.550073
      25A     -0.538999    26A     -0.524258    27A     -0.511261
      28A     -0.474618    29A     -0.470640    30A     -0.467613
      31A     -0.458372    32A     -0.441077

  @DF-RHF Final Energy:  -384.08028005556986

   => Energetics <=

    Nuclear Repulsion Energy =            385.7762773180717772
    One-Electron Energy =               -1287.8124056849189856
    Two-Electron Energy =                 517.9558483112772365
    DFT Exchange-Correlation Energy =       0.0000000000000000
    Empirical Dispersion Energy =           0.0000000000000000
    PCM Polarization Energy =               0.0000000000000000
    EFP Energy =                            0.0000000000000000
    Total Energy =                       -384.0802800555699150
    Molecular point group: c1
  Basis Set: CC-PVTZ
  Basis Set:

  -Total Gradient:
     Atom            X                  Y                   Z
    ------   -----------------  -----------------  -----------------
       1       -0.000001814297    -0.000013602673     0.000006975465
       2       -0.000005296463     0.000025903905    -0.000001746052
       3        0.000005929903    -0.000005126841    -0.000017242033
       4       -0.000011154204    -0.000019271481    -0.000002579652
       5       -0.002444883529     0.003253605627    -0.000503338891
       6        0.000000563924     0.000000335117     0.000002110262
       7       -0.000003396544     0.000005230059     0.000000852952
       8       -0.001923778254     0.002644956584    -0.002382468223
       9        0.002346331931    -0.003155978756     0.000801451638
      10        0.000000526712    -0.000002155618     0.000003344285
      11       -0.000006481996    -0.000002818543    -0.000012186732
      12        0.002013628096    -0.002744048812     0.002093190683
      13        0.000008222459     0.000008995323    -0.000009652829
      14        0.000004794199    -0.000009178605     0.000014936658
      15        0.000019710706     0.000016124406    -0.000005617217
      16       -0.000005200380    -0.000000056545     0.000005467831
      17        0.000012190712     0.000004398333     0.000007026050
      18       -0.000000772135    -0.000000746766    -0.000003149626
      19       -0.000006227781    -0.000007252061     0.000002537976
      20       -0.000002893052     0.000000687348     0.000000087452

  **** Optimization is complete! (in 8 steps) ****
    Final optimized geometry and variables:
    Molecular point group: c1

    Geometry (in Angstrom), charge = 0, multiplicity = 1:

    O            1.796441397198     0.422086626752     0.437436157963
    C            0.833520275141     0.623246802088    -0.220742652565
    C           -0.436176457469    -0.188996423656    -0.190430988552
    O            0.745947966740     1.616189093285    -1.090940230407
    C           -0.387920414694    -1.348188035979     0.794438530666
    H           -1.243331697740     0.498839776720     0.030808954543
    H           -0.614935944198    -0.540687080697    -1.201844375763
    C           -1.610250122965    -2.270587442150     0.756050429949
    H           -0.236664961243    -0.977974905559     1.802358107067
    H            0.493615441647    -1.941935116004     0.582822484827
    C           -2.967149719088    -1.577588546075     0.833019726938
    H           -1.558788921128    -2.903573158742    -0.125673809840
    H           -1.524440739053    -2.953805009491     1.595562513609
    H           -3.167001836699    -0.971938364343    -0.042966019023
    H           -3.764078108807    -2.307777282747     0.910229253438
    H           -3.027530682743    -0.931867812795     1.703518394095
    C            1.869007208337     2.463671311937    -1.223563711115
    H            2.092401078887     2.950374596195    -0.285778152752
    H            1.603028106274     3.195794298226    -1.968637994465
    H            2.734328345567     1.902794350321    -1.544307502767

  Mulliken Charges: (a.u.)
   Center  Symbol    Alpha    Beta     Spin     Total
       1     O     4.19648  4.19648  0.00000 -0.39297
       2     C     2.80755  2.80755  0.00000  0.38490
       3     C     3.10179  3.10179  0.00000 -0.20358
       4     O     4.14683  4.14683  0.00000 -0.29366
       5     C     3.09021  3.09021  0.00000 -0.18041
       6     H     0.43775  0.43775  0.00000  0.12449
       7     H     0.43927  0.43927  0.00000  0.12147
       8     C     3.09321  3.09321  0.00000 -0.18643
       9     H     0.44522  0.44522  0.00000  0.10955
      10     H     0.44235  0.44235  0.00000  0.11531
      11     C     3.15682  3.15682  0.00000 -0.31364
      12     H     0.45240  0.45240  0.00000  0.09519
      13     H     0.44788  0.44788  0.00000  0.10424
      14     H     0.45338  0.45338  0.00000  0.09324
      15     H     0.44436  0.44436  0.00000  0.11127
      16     H     0.45266  0.45266  0.00000  0.09467
      17     C     3.03795  3.03795  0.00000 -0.07591
      18     H     0.45438  0.45438  0.00000  0.09124
      19     H     0.44522  0.44522  0.00000  0.10956
      20     H     0.45428  0.45428  0.00000  0.09145

   Total alpha = 32.00000, Total beta = 32.00000, Total charge = -0.00000

*** Psi4 exiting successfully. Buy a developer a beer!
