                              Psi4 1.0.54 Driver

  ==> Input File <==

--------------------------------------------------------------------------
set {
	reference rhf
	basis cc-pvtz
}

set_num_threads( 4 )
memory 2 gb

molecule MOL {
0 1

H	 -3.758260	 1.125915	 0.695445
O	 -2.907518	 1.423038	 0.430881
C	 -2.021813	 0.336996	 0.342658
C	 -0.669613	 0.837286	 -0.127252
H	 -1.915076	 -0.141660	 1.312823
H	 -2.403067	 -0.408569	 -0.352440
C	 0.490865	 -0.082543	 0.241244
H	 -0.708709	 0.967192	 -1.204587
H	 -0.507562	 1.822272	 0.303070
C	 1.839800	 0.429565	 -0.255472
H	 0.305636	 -1.070211	 -0.165276
H	 0.527397	 -0.195943	 1.322876
C	 3.001144	 -0.485193	 0.119072
H	 1.804373	 0.541073	 -1.335756
H	 2.020437	 1.423114	 0.146921
H	 2.866892	 -1.477297	 -0.298806
H	 3.943543	 -0.095749	 -0.249061
H	 3.085064	 -0.590459	 1.195790

	symmetry c1
}
set optking {
	frozen_dihedral = ("
		2 3 4 8
	")
}

ee,wfn = optimize('scf', return_wfn=True)
oeprop( wfn, 'DIPOLE', 'QUADRUPOLE', 'MULLIKEN_CHARGES')
f=open( 'psi4out.xyz', 'w' )
f.write( "18  " )
f.write( str(ee) + "\n" )
f.write( MOL.save_string_xyz() )
f.close()
--------------------------------------------------------------------------

    Molecular point group: c1
  Charge       = 0
  Multiplicity = 1
  Basis Set: CC-PVTZ
  Basis Set:
  @DF-RHF Final Energy:  -271.28512139438510
    Total Energy =                       -271.2851213943855555
    Molecular point group: c1
  Basis Set: CC-PVTZ
  Basis Set:
  Basis Set: CC-PVTZ
  Basis Set:
  @DF-RHF Final Energy:  -271.28468911189304
    Total Energy =                       -271.2846891118928170
  Basis Set: CC-PVTZ
  Basis Set:
  Basis Set: CC-PVTZ
  Basis Set:
  @DF-RHF Final Energy:  -271.28537155425062
    Total Energy =                       -271.2853715542505597
  Basis Set: CC-PVTZ
  Basis Set:
  Basis Set: CC-PVTZ
  Basis Set:
  @DF-RHF Final Energy:  -271.28538372310277
    Total Energy =                       -271.2853837231027683
  Basis Set: CC-PVTZ
  Basis Set:
  Basis Set: CC-PVTZ
  Basis Set:
  @DF-RHF Final Energy:  -271.28538506069003
    Total Energy =                       -271.2853850606899186
  Basis Set: CC-PVTZ
  Basis Set:
  Charge       = 0
  Multiplicity = 1
  Basis Set: CC-PVTZ
  Basis Set:

    Orbital Energies (a.u.)
    -----------------------

    Doubly Occupied:

       1A    -20.545434     2A    -11.265303     3A    -11.213685
       4A    -11.213049     5A    -11.209307     6A    -11.206620
       7A     -1.363025     8A     -1.081402     9A     -1.011910
      10A     -0.913806    11A     -0.820664    12A     -0.792397
      13A     -0.698985    14A     -0.659478    15A     -0.623430
      16A     -0.588185    17A     -0.572805    18A     -0.558659
      19A     -0.531621    20A     -0.496294    21A     -0.490680
      22A     -0.468666    23A     -0.464611    24A     -0.452055
      25A     -0.435871

  @DF-RHF Final Energy:  -271.28538551443734

   => Energetics <=

    Nuclear Repulsion Energy =            245.6557933253029091
    One-Electron Energy =                -854.5264705066113038
    Two-Electron Energy =                 337.5852916668710577
    DFT Exchange-Correlation Energy =       0.0000000000000000
    Empirical Dispersion Energy =           0.0000000000000000
    PCM Polarization Energy =               0.0000000000000000
    EFP Energy =                            0.0000000000000000
    Total Energy =                       -271.2853855144372801
    Molecular point group: c1
  Basis Set: CC-PVTZ
  Basis Set:

  -Total Gradient:
     Atom            X                  Y                   Z
    ------   -----------------  -----------------  -----------------
       1        0.000000582684    -0.000003600900     0.000003128714
       2        0.000736186799     0.000090168301     0.002906642594
       3       -0.000699414431    -0.000989755326    -0.003985160309
       4       -0.001105446089     0.004539497974     0.001910988554
       5        0.000003426113     0.000011184720    -0.000004180204
       6       -0.000014221472     0.000010538159    -0.000004071427
       7        0.000000960596    -0.000002972646     0.000004270201
       8        0.001064724807    -0.003661801815    -0.000832385980
       9        0.000003833200    -0.000000044332     0.000001948925
      10        0.000016525633    -0.000003449675    -0.000018583415
      11       -0.000010876217     0.000007664655    -0.000000564676
      12        0.000004462990    -0.000008287204     0.000007166790
      13       -0.000006748992     0.000006494333     0.000018034426
      14       -0.000004844120     0.000001789572    -0.000008589405
      15        0.000007147284     0.000004583439     0.000001048304
      16       -0.000000894208    -0.000000163429    -0.000005552701
      17        0.000000840324     0.000005207191     0.000001284250
      18        0.000003755103    -0.000007053018     0.000004575359

  **** Optimization is complete! (in 6 steps) ****
    Final optimized geometry and variables:
    Molecular point group: c1

    Geometry (in Angstrom), charge = 0, multiplicity = 1:

    H           -3.630719995211     0.838604657578     0.503836571277
    O           -2.751115522407     1.124443778199     0.339912276044
    C           -1.908005919076     0.015780433175     0.165173873201
    C           -0.519052679155     0.510133236770    -0.203082607618
    H           -1.858848002935    -0.558862875829     1.087731511379
    H           -2.290586239724    -0.643763079259    -0.609812444241
    C            0.564327566145    -0.530206266888     0.072646736656
    H           -0.497644779164     0.760574028431    -1.258983897470
    H           -0.318704986780     1.416504938520     0.356195282925
    C            1.954667353399    -0.081531043802    -0.367853986286
    H            0.313779459639    -1.460095075070    -0.434266006746
    H            0.582722625732    -0.759208415837     1.135296866782
    C            3.038213824642    -1.114048000700    -0.075909209515
    H            1.941190688555     0.135401403965    -1.432300431927
    H            2.202821352726     0.852083758834     0.129350544348
    H            2.835593181724    -2.049499809293    -0.587036392592
    H            4.011478817934    -0.764518159646    -0.400727352962
    H            3.100956111324    -1.326294044045     0.986254167200

  Mulliken Charges: (a.u.)
   Center  Symbol    Alpha    Beta     Spin     Total
       1     H     0.39647  0.39647  0.00000  0.20706
       2     O     4.19579  4.19579  0.00000 -0.39157
       3     C     2.96297  2.96297  0.00000  0.07406
       4     C     3.08461  3.08461  0.00000 -0.16922
       5     H     0.47717  0.47717  0.00000  0.04566
       6     H     0.47260  0.47260  0.00000  0.05480
       7     C     3.09654  3.09654  0.00000 -0.19307
       8     H     0.45473  0.45473  0.00000  0.09054
       9     H     0.44741  0.44741  0.00000  0.10517
      10     C     3.08424  3.08424  0.00000 -0.16849
      11     H     0.45678  0.45678  0.00000  0.08644
      12     H     0.45472  0.45472  0.00000  0.09055
      13     C     3.14947  3.14947  0.00000 -0.29894
      14     H     0.45405  0.45405  0.00000  0.09190
      15     H     0.45336  0.45336  0.00000  0.09329
      16     H     0.45565  0.45565  0.00000  0.08869
      17     H     0.44826  0.44826  0.00000  0.10348
      18     H     0.45517  0.45517  0.00000  0.08966

   Total alpha = 25.00000, Total beta = 25.00000, Total charge =  0.00000

*** Psi4 exiting successfully. Buy a developer a beer!
