  ==> Input File <==

--------------------------------------------------------------------------
set {
	reference rhf
	basis 6-31G*
}

set_num_threads( 4 )
memory 2 gb

molecule MOL {
0 1

O	 1.772342	 3.069126	 -1.825434
C	 1.164106	 2.802083	 -2.816138
C	 -0.113845	 1.983033	 -2.785512
C	 1.632962	 3.267639	 -4.179438
C	 -0.535959	 1.541402	 -1.387293
H	 -0.899083	 2.573058	 -3.256319
H	 0.027499	 1.120459	 -3.435428
C	 -1.826162	 0.719786	 -1.396499
H	 -0.661066	 2.418251	 -0.759906
H	 0.266418	 0.963821	 -0.939254
C	 -2.259874	 0.272531	 0.000494
H	 -2.625707	 1.303653	 -1.850233
H	 -1.694271	 -0.157092	 -2.028762
C	 -3.549786	 -0.549746	 -0.000374
H	 -2.392704	 1.148344	 0.633208
H	 -1.461710	 -0.311958	 0.454700
C	 -4.809590	 0.315458	 -0.000369
H	 -3.560515	 -1.202009	 -0.871156
H	 -3.561123	 -1.202955	 0.869711
H	 -4.844746	 0.956611	 -0.876632
H	 -5.706986	 -0.295590	 -0.001609
H	 -4.845960	 0.954827	 0.877144
H	 0.872127	 3.881503	 -4.652640
H	 2.544943	 3.838992	 -4.076087
H	 1.810444	 2.416189	 -4.829951

	symmetry c1
}
set optking {
	frozen_dihedral = ("
		15 11 14 18
	")
}

ee = optimize('scf')
oeprop('DIPOLE', 'QUADRUPOLE', 'MULLIKEN_CHARGES')
f=open( 'psi4out.xyz', 'w' )
f.write( "25  " )
f.write( str(ee) + "\n" )
f.write( MOL.save_string_xyz() )
f.close()
--------------------------------------------------------------------------

    Molecular point group: c1
  Charge       = 0
  Multiplicity = 1
  Basis Set: 6-31G*
  Basis Set:
  @DF-RHF Final Energy:  -387.13376830425267
    Total Energy =                       -387.1337683042527260
    Molecular point group: c1
  Basis Set: 6-31G*
  Basis Set:
  Basis Set: 6-31G*
  Basis Set:
  @DF-RHF Final Energy:  -387.13390132416600
    Total Energy =                       -387.1339013241653220
  Basis Set: 6-31G*
  Basis Set:
  Basis Set: 6-31G*
  Basis Set:
  @DF-RHF Final Energy:  -387.13395513158679
    Total Energy =                       -387.1339551315863901
  Basis Set: 6-31G*
  Basis Set:
  Basis Set: 6-31G*
  Basis Set:
  @DF-RHF Final Energy:  -387.13395340113749
    Total Energy =                       -387.1339534011370915
  Basis Set: 6-31G*
  Basis Set:
  Basis Set: 6-31G*
  Basis Set:
  @DF-RHF Final Energy:  -387.13395173842895
    Total Energy =                       -387.1339517384291184
  Basis Set: 6-31G*
  Basis Set:
  Basis Set: 6-31G*
  Basis Set:
  @DF-RHF Final Energy:  -387.13395673401658
    Total Energy =                       -387.1339567340161238
  Basis Set: 6-31G*
  Basis Set:
  Charge       = 0
  Multiplicity = 1
  Basis Set: 6-31G*
  Basis Set:

    Orbital Energies (a.u.)
    -----------------------

    Doubly Occupied:

       1A    -20.550489     2A    -11.326327     3A    -11.231933
       4A    -11.228368     5A    -11.217014     6A    -11.216422
       7A    -11.215565     8A    -11.213662     9A    -11.208857
      10A     -1.395794    11A     -1.093478    12A     -1.055586
      13A     -1.013700    14A     -0.967607    15A     -0.893421
      16A     -0.820522    17A     -0.783658    18A     -0.729685
      19A     -0.658190    20A     -0.653118    21A     -0.624778
      22A     -0.619319    23A     -0.611318    24A     -0.588652
      25A     -0.568746    26A     -0.556623    27A     -0.537674
      28A     -0.522406    29A     -0.515669    30A     -0.492137
      31A     -0.486959    32A     -0.477353    33A     -0.463142
      34A     -0.455692    35A     -0.450769    36A     -0.399452

  @DF-RHF Final Energy:  -387.13395697419207

   => Energetics <=

    Nuclear Repulsion Energy =            441.8405358041301270
    One-Electron Energy =               -1400.2608191719573369
    Two-Electron Energy =                 571.2863263936345675
    DFT Exchange-Correlation Energy =       0.0000000000000000
    Empirical Dispersion Energy =           0.0000000000000000
    PCM Polarization Energy =               0.0000000000000000
    EFP Energy =                            0.0000000000000000
    Total Energy =                       -387.1339569741926425
    Molecular point group: c1
  Basis Set: 6-31G*
  Basis Set:

  -Total Gradient:
     Atom            X                  Y                   Z
    ------   -----------------  -----------------  -----------------
       1       -0.000000851285     0.000001650480     0.000000104614
       2        0.000004611602    -0.000007310250    -0.000002835990
       3        0.000003166231     0.000001248245    -0.000000155931
       4        0.000000065872     0.000001117281     0.000000342718
       5       -0.000004361640     0.000012279388     0.000001724617
       6       -0.000000793402    -0.000002000405     0.000002603990
       7        0.000002258217     0.000000365978    -0.000002597224
       8       -0.000006344186     0.000001875377     0.000008144072
       9        0.000003498933    -0.000001098554     0.000005628535
      10       -0.000001237003    -0.000001751174    -0.000007031004
      11        0.000768339248    -0.001244202829     0.002185616822
      12       -0.000011819326    -0.000000469162    -0.000001138858
      13        0.000000980375    -0.000003179587     0.000007786101
      14        0.001242107256    -0.001985955116     0.001227485297
      15       -0.000858587932     0.001354882500    -0.002060841396
      16        0.000003135273    -0.000008434966     0.000013746846
      17        0.000007716130    -0.000003406636    -0.000004507385
      18       -0.001162093693     0.001898365974    -0.001373781189
      19        0.000003824474    -0.000013288480     0.000005841228
      20        0.000006515333     0.000002900439    -0.000008233500
      21       -0.000003256378    -0.000002881440     0.000003226720
      22        0.000004010578    -0.000002488481    -0.000001271925
      23       -0.000000167560     0.000001122160    -0.000001300704
      24        0.000000198556     0.000000316777    -0.000000274868
      25       -0.000000915670     0.000000342479     0.000001718415

  **** Optimization is complete! (in 7 steps) ****
    Final optimized geometry and variables:
    Molecular point group: c1

    Geometry (in Angstrom), charge = 0, multiplicity = 1:

    O            2.709996307457     1.594060378388    -0.221808587685
    C            2.113048930859     1.312779101951    -1.215421508164
    C            0.844249388957     0.479432575865    -1.189140145454
    C            2.587802429034     1.773611045354    -2.578286519480
    C            0.416089308413     0.042668585622     0.208790027980
    H            0.056189524716     1.057353786158    -1.670185195866
    H            1.000498705132    -0.385870934680    -1.831946963320
    C           -0.864915952754    -0.793196166945     0.195695775040
    H            0.276939586006     0.922337006975     0.829224189466
    H            1.221319167283    -0.523089142902     0.666881530052
    C           -1.291288354564    -1.249164620617     1.594842467210
    H           -1.666204224765    -0.217291776001    -0.263495592539
    H           -0.720616482166    -1.669411237974    -0.434644002662
    C           -2.602529904995    -2.049833578777     1.608242973307
    H           -1.401196815182    -0.369535141386     2.226111673904
    H           -0.491800967126    -1.846522933603     2.025571604577
    C           -3.854991111035    -1.169836527015     1.601760948841
    H           -2.634129249167    -2.703997327370     0.739632781857
    H           -2.629675774011    -2.691043156288     2.484716833354
    H           -3.885545902700    -0.520755225457     0.731764705498
    H           -4.756688408820    -1.774636702551     1.589647356092
    H           -3.892016763637    -0.538885229421     2.485260961486
    H            1.824000037381     2.375330304523    -3.062190696974
    H            3.492375335360     2.356039655561    -2.471776382246
    H            2.780227227220     0.919495623370    -3.221015970769

  Mulliken Charges: (a.u.)
   Center  Symbol    Alpha    Beta     Spin     Total
       1     O     4.26114  4.26114  0.00000 -0.52227
       2     C     2.73573  2.73573  0.00000  0.52854
       3     C     3.21076  3.21076  0.00000 -0.42151
       4     C     3.28665  3.28665  0.00000 -0.57329
       5     C     3.14795  3.14795  0.00000 -0.29591
       6     H     0.41008  0.41008  0.00000  0.17985
       7     H     0.41000  0.41000  0.00000  0.18000
       8     C     3.15538  3.15538  0.00000 -0.31075
       9     H     0.41209  0.41209  0.00000  0.17582
      10     H     0.41230  0.41230  0.00000  0.17541
      11     C     3.15343  3.15343  0.00000 -0.30685
      12     H     0.42405  0.42405  0.00000  0.15189
      13     H     0.42481  0.42481  0.00000  0.15037
      14     C     3.15403  3.15403  0.00000 -0.30805
      15     H     0.42191  0.42191  0.00000  0.15617
      16     H     0.41987  0.41987  0.00000  0.16027
      17     C     3.24035  3.24035  0.00000 -0.48070
      18     H     0.42325  0.42325  0.00000  0.15351
      19     H     0.41958  0.41958  0.00000  0.16084
      20     H     0.42202  0.42202  0.00000  0.15595
      21     H     0.41960  0.41960  0.00000  0.16079
      22     H     0.42114  0.42114  0.00000  0.15771
      23     H     0.40874  0.40874  0.00000  0.18252
      24     H     0.39645  0.39645  0.00000  0.20710
      25     H     0.40870  0.40870  0.00000  0.18261

   Total alpha = 36.00000, Total beta = 36.00000, Total charge =  0.00000
