  ==> Input File <==

--------------------------------------------------------------------------
set {
	reference rhf
	basis 6-31G*
}

set_num_threads( 4 )
memory 2 gb

molecule MOL {
0 1

H	 3.113011	 4.276212	 -3.118776
C	 2.743326	 3.483495	 -2.492903
C	 1.578755	 3.665537	 -1.762298
C	 3.432670	 2.283357	 -2.419384
H	 1.045105	 4.596788	 -1.820218
C	 1.104038	 2.645800	 -0.957771
H	 4.335243	 2.144067	 -2.986453
C	 2.959346	 1.261188	 -1.614704
H	 0.204626	 2.768952	 -0.385440
C	 1.792464	 1.440507	 -0.881223
H	 3.489580	 0.330820	 -1.554801
C	 1.239129	 0.373821	 0.000060
O	 1.970282	 -0.730723	 0.000018
O	 0.243043	 0.491566	 0.642560
C	 3.377318	 -0.566646	 -0.000065
H	 3.695437	 -0.028981	 -0.881264
H	 3.789299	 -1.563704	 0.000236
H	 3.695516	 -0.028316	 0.880770

	symmetry c1
}
set optking {
	frozen_dihedral = ("
		10 12 13 15
	")
}

ee = optimize('scf')
oeprop('DIPOLE', 'QUADRUPOLE', 'MULLIKEN_CHARGES')
f=open( 'psi4out.xyz', 'w' )
f.write( "18  " )
f.write( str(ee) + "\n" )
f.write( MOL.save_string_xyz() )
f.close()
--------------------------------------------------------------------------

    Molecular point group: c1
  Charge       = 0
  Multiplicity = 1
  Basis Set: 6-31G*
  Basis Set:
  @DF-RHF Final Energy:  -457.19087929044321
    Total Energy =                       -457.1908792904429220
    Molecular point group: c1
  Basis Set: 6-31G*
  Basis Set:
  Basis Set: 6-31G*
  Basis Set:
  @DF-RHF Final Energy:  -457.25819210343917
    Total Energy =                       -457.2581921034390007
  Basis Set: 6-31G*
  Basis Set:
  Basis Set: 6-31G*
  Basis Set:
  @DF-RHF Final Energy:  -457.28916350425880
    Total Energy =                       -457.2891635042587950
  Basis Set: 6-31G*
  Basis Set:
  Basis Set: 6-31G*
  Basis Set:
  @DF-RHF Final Energy:  -457.30795641690412
    Total Energy =                       -457.3079564169040623
  Basis Set: 6-31G*
  Basis Set:
  @DF-RHF Final Energy:  -457.31729863430542
    Total Energy =                       -457.3172986343049615
  @DF-RHF Final Energy:  -457.32319974176124
    Total Energy =                       -457.3231997417610728
  @DF-RHF Final Energy:  -457.32576567053292
    Total Energy =                       -457.3257656705334284
  @DF-RHF Final Energy:  -457.32764566709187
    Total Energy =                       -457.3276456670920425
  @DF-RHF Final Energy:  -457.32838050335278
    Total Energy =                       -457.3283805033528324
  @DF-RHF Final Energy:  -457.32857771960875
    Total Energy =                       -457.3285777196085746
  @DF-RHF Final Energy:  -457.32873238620391
    Total Energy =                       -457.3287323862042513
  @DF-RHF Final Energy:  -457.32874925129994
    Total Energy =                       -457.3287492513001098
  @DF-RHF Final Energy:  -457.32875605958725
    Total Energy =                       -457.3287560595877039
  @DF-RHF Final Energy:  -457.32876130162447
    Total Energy =                       -457.3287613016243540
  @DF-RHF Final Energy:  -457.32877374530705
    Total Energy =                       -457.3287737453069894
  @DF-RHF Final Energy:  -457.32878327444888
    Total Energy =                       -457.3287832744487105
  @DF-RHF Final Energy:  -457.32879808439839
    Total Energy =                       -457.3287980843983860
  @DF-RHF Final Energy:  -457.32881792666262
    Total Energy =                       -457.3288179266627367
  @DF-RHF Final Energy:  -457.32883386074542
    Total Energy =                       -457.3288338607450214
  Basis Set: 6-31G*
  Basis Set:
  @DF-RHF Final Energy:  -457.32884318039117
    Total Energy =                       -457.3288431803912317
  Basis Set: 6-31G*
  Basis Set:
  Basis Set: 6-31G*
  Basis Set:
  @DF-RHF Final Energy:  -457.32883519372467
    Total Energy =                       -457.3288351937244443
  Basis Set: 6-31G*
  Basis Set:
  Basis Set: 6-31G*
  Basis Set:
  @DF-RHF Final Energy:  -457.32884760240580
    Total Energy =                       -457.3288476024060856
  Basis Set: 6-31G*
  Basis Set:
  Charge       = 0
  Multiplicity = 1
  Basis Set: 6-31G*
  Basis Set:

    Orbital Energies (a.u.)
    -----------------------

    Doubly Occupied:

       1A    -20.598665     2A    -20.545347     3A    -11.379529
       4A    -11.293729     5A    -11.255042     6A    -11.253773
       7A    -11.250840     8A    -11.249030     9A    -11.246591
      10A    -11.244616    11A     -1.462254    12A     -1.366552
      13A     -1.172680    14A     -1.047238    15A     -1.032920
      16A     -0.983713    17A     -0.875710    18A     -0.844815
      19A     -0.783842    20A     -0.737309    21A     -0.688668
      22A     -0.675902    23A     -0.672096    24A     -0.639902
      25A     -0.628476    26A     -0.606107    27A     -0.599375
      28A     -0.565123    29A     -0.537439    30A     -0.516795
      31A     -0.511229    32A     -0.498236    33A     -0.453813
      34A     -0.440798    35A     -0.351343    36A     -0.348523

  @DF-RHF Final Energy:  -457.32884812922555

   => Energetics <=

    Nuclear Repulsion Energy =            497.9729092180062935
    One-Electron Energy =               -1609.8874698036652262
    Two-Electron Energy =                 654.5857124564338392
    DFT Exchange-Correlation Energy =       0.0000000000000000
    Empirical Dispersion Energy =           0.0000000000000000
    PCM Polarization Energy =               0.0000000000000000
    EFP Energy =                            0.0000000000000000
    Total Energy =                       -457.3288481292249799
    Molecular point group: c1
  Basis Set: 6-31G*
  Basis Set:

  -Total Gradient:
     Atom            X                  Y                   Z
    ------   -----------------  -----------------  -----------------
       1       -0.000000439283    -0.000001331416    -0.000001109332
       2       -0.000030888541     0.000031810270     0.000027579745
       3        0.000024245205     0.000024031775    -0.000032775315
       4        0.000034958285    -0.000003533595    -0.000026429399
       5        0.000005099268     0.000002284265     0.000002968192
       6       -0.000003094492    -0.000054152679    -0.000008210488
       7        0.000002691189     0.000008259498     0.000000645004
       8        0.000006499651    -0.000023859499    -0.000024606235
       9        0.000002427578     0.000002572229     0.000003330003
      10        0.000031821812     0.000161260810     0.000214397447
      11       -0.000019296987     0.000000236419     0.000030733120
      12        0.000001473785    -0.000185578444    -0.000423586064
      13       -0.000056019734     0.000065118543     0.000498592824
      14       -0.000023718228    -0.000010447493    -0.000011233513
      15        0.000005522264    -0.000025329714    -0.000196452482
      16        0.000004025394    -0.000012677553    -0.000068589999
      17        0.000019015334     0.000013087574     0.000007270186
      18       -0.000004322497     0.000008249016     0.000007476306

  **** Optimization is complete! (in 23 steps) ****
    Final optimized geometry and variables:
    Molecular point group: c1

    Geometry (in Angstrom), charge = 0, multiplicity = 1:

    H            1.008175276354     3.193268883104    -1.966510837479
    C            0.663848433043     2.324097462120    -1.435303063989
    C           -0.338804980036     2.445201280510    -0.485126243228
    C            1.216173414187     1.083091350078    -1.708670864955
    H           -0.773086663695     3.406525126860    -0.278717782311
    C           -0.790034303901     1.325275643319     0.189916519690
    H            1.980526941792     0.985166193997    -2.458107612417
    C            0.780305829446    -0.034787113174    -1.017579835770
    H           -1.583319417338     1.401719237777     0.909300326640
    C           -0.220514968398     0.082623794969    -0.061053552746
    H            1.199854768488    -0.997517229990    -1.243026863811
    C           -0.777282476045    -1.110248759915     0.655023995120
    O            0.054059030725    -2.115813627776     0.948693298297
    O           -1.926805553101    -1.197312463572     0.926753562725
    C            1.376594044028    -1.900637146457     1.401196300291
    H            2.084863119090    -2.133064563492     0.618148363753
    H            1.530673331922    -2.573933104436     2.231477586200
    H            1.528722831507    -0.883165967080     1.732544894790

  Mulliken Charges: (a.u.)
   Center  Symbol    Alpha    Beta     Spin     Total
       1     H     0.39412  0.39412  0.00000  0.21176
       2     C     3.09270  3.09270  0.00000 -0.18541
       3     C     3.10426  3.10426  0.00000 -0.20851
       4     C     3.10387  3.10387  0.00000 -0.20775
       5     H     0.39360  0.39360  0.00000  0.21280
       6     C     3.08862  3.08862  0.00000 -0.17723
       7     H     0.39476  0.39476  0.00000  0.21048
       8     C     3.09703  3.09703  0.00000 -0.19407
       9     H     0.37873  0.37873  0.00000  0.24254
      10     C     3.07088  3.07088  0.00000 -0.14176
      11     H     0.38804  0.38804  0.00000  0.22393
      12     C     2.60232  2.60232  0.00000  0.79536
      13     O     4.30942  4.30942  0.00000 -0.61885
      14     O     4.26058  4.26058  0.00000 -0.52116
      15     C     3.09218  3.09218  0.00000 -0.18437
      16     H     0.41561  0.41561  0.00000  0.16878
      17     H     0.40180  0.40180  0.00000  0.19639
      18     H     0.41146  0.41146  0.00000  0.17707

   Total alpha = 36.00000, Total beta = 36.00000, Total charge = -0.00000
