  ==> Input File <==

--------------------------------------------------------------------------
set {
	reference rhf
	basis 6-31G*
}

set_num_threads( 4 )
memory 2 gb

molecule MOL {
0 1

H	 -2.153054	 -2.250733	 0.000000
O	 -2.462445	 -1.355403	 0.000000
C	 -1.434260	 -0.483044	 0.000000
C	 -0.160282	 -0.998433	 0.214627
C	 -1.606806	 0.873172	 -0.202032
H	 -0.050522	 -2.055314	 0.369249
C	 0.931284	 -0.154718	 0.225708
H	 -2.586306	 1.284548	 -0.369080
C	 -0.495009	 1.711703	 -0.187945
H	 1.912113	 -0.560710	 0.392185
C	 0.777868	 1.209965	 0.024721
C	 -0.683838	 3.129388	 -0.400099
H	 1.624995	 1.868669	 0.032793
N	 -0.834781	 4.243052	 -0.567054

	symmetry c1
}
set optking {
	frozen_dihedral = ("
		5 3 2 1
	")
}

ee = optimize('scf')
oeprop('DIPOLE', 'QUADRUPOLE', 'MULLIKEN_CHARGES')
f=open( 'psi4out.xyz', 'w' )
f.write( "14  " )
f.write( str(ee) + "\n" )
f.write( MOL.save_string_xyz() )
f.close()
--------------------------------------------------------------------------

    Molecular point group: c1
  Charge       = 0
  Multiplicity = 1
  Basis Set: 6-31G*
  Basis Set:
  @DF-RHF Final Energy:  -397.28898558061934
    Total Energy =                       -397.2889855806192827
    Molecular point group: c1
  Basis Set: 6-31G*
  Basis Set:
  Basis Set: 6-31G*
  Basis Set:
  @DF-RHF Final Energy:  -397.08226500411376
    Total Energy =                       -397.0822650041137649
  Basis Set: 6-31G*
  Basis Set:
  Basis Set: 6-31G*
  Basis Set:
  @DF-RHF Final Energy:  -397.19910003878209
    Total Energy =                       -397.1991000387818644
  Basis Set: 6-31G*
  Basis Set:
  Basis Set: 6-31G*
  Basis Set:
  @DF-RHF Final Energy:  -397.24385406218352
    Total Energy =                       -397.2438540621839138
  Basis Set: 6-31G*
  Basis Set:
  @DF-RHF Final Energy:  -397.20246284545749
    Total Energy =                       -397.2024628454578306
  @DF-RHF Final Energy:  -397.18362460384856
    Total Energy =                       -397.1836246038488980
  @DF-RHF Final Energy:  -396.74771551590936
    Total Energy =                       -396.7477155159093627
  @DF-RHF Final Energy:  -397.24060946522854
    Total Energy =                       -397.2406094652283741
  @DF-RHF Final Energy:  -396.95969588854319
    Total Energy =                       -396.9596958885431377
  @DF-RHF Final Energy:  -397.25898874304835
    Total Energy =                       -397.2589887430483486
  @DF-RHF Final Energy:  -397.27756067317779
    Total Energy =                       -397.2775606731779590
  @DF-RHF Final Energy:  -397.28929727647306
    Total Energy =                       -397.2892972764726665
  @DF-RHF Final Energy:  -397.29131805401772
    Total Energy =                       -397.2913180540177791
  @DF-RHF Final Energy:  -397.29134306327859
    Total Energy =                       -397.2913430632788732
  @DF-RHF Final Energy:  -397.29144265062843
    Total Energy =                       -397.2914426506288237
  @DF-RHF Final Energy:  -397.29147418003765
    Total Energy =                       -397.2914741800373122
  @DF-RHF Final Energy:  -397.28687295250955
    Total Energy =                       -397.2868729525093840
  @DF-RHF Final Energy:  -397.29036825636433
    Total Energy =                       -397.2903682563641041
  @DF-RHF Final Energy:  -397.29099023300256
    Total Energy =                       -397.2909902330025034
  @DF-RHF Final Energy:  -397.29143847172850
    Total Energy =                       -397.2914384717286111
  @DF-RHF Final Energy:  -397.29143396934904
    Total Energy =                       -397.2914339693493275
  @DF-RHF Final Energy:  -397.29037875956794
    Total Energy =                       -397.2903787595680569
  @DF-RHF Final Energy:  -397.29104702418965
    Total Energy =                       -397.2910470241896519
  @DF-RHF Final Energy:  -397.28972606291603
    Total Energy =                       -397.2897260629160883
  @DF-RHF Final Energy:  -397.29055416173759
    Total Energy =                       -397.2905541617373046
  @DF-RHF Final Energy:  -397.29061948436555
    Total Energy =                       -397.2906194843653793
  @DF-RHF Final Energy:  -397.29097792108649
    Total Energy =                       -397.2909779210860961
  @DF-RHF Final Energy:  -397.29112862555593
    Total Energy =                       -397.2911286255560981
  @DF-RHF Final Energy:  -397.29121006642686
    Total Energy =                       -397.2912100664268564
  @DF-RHF Final Energy:  -397.29128990051964
    Total Energy =                       -397.2912899005198142
  @DF-RHF Final Energy:  -397.29121886912105
    Total Energy =                       -397.2912188691213942
  @DF-RHF Final Energy:  -397.29134861038443
    Total Energy =                       -397.2913486103846026
  @DF-RHF Final Energy:  -397.29116399320094
    Total Energy =                       -397.2911639932008256
  @DF-RHF Final Energy:  -397.29134273677823
    Total Energy =                       -397.2913427367788017
  @DF-RHF Final Energy:  -397.29113491876751
    Total Energy =                       -397.2911349187673977
  @DF-RHF Final Energy:  -397.29136505769804
    Total Energy =                       -397.2913650576977034
  Basis Set: 6-31G*
  Basis Set:
  @DF-RHF Final Energy:  -397.29135345103418
    Total Energy =                       -397.2913534510344107
  Basis Set: 6-31G*
  Basis Set:
  Basis Set: 6-31G*
  Basis Set:
  @DF-RHF Final Energy:  -397.29136911013904
    Total Energy =                       -397.2913691101389304
  Basis Set: 6-31G*
  Basis Set:
  Basis Set: 6-31G*
  Basis Set:
  @DF-RHF Final Energy:  -397.29137106552673
    Total Energy =                       -397.2913710655267323
  Basis Set: 6-31G*
  Basis Set:
  Charge       = 0
  Multiplicity = 1
  Basis Set: 6-31G*
  Basis Set:

    Orbital Energies (a.u.)
    -----------------------

    Doubly Occupied:

       1A    -20.612926     2A    -15.573392     3A    -11.326704
       4A    -11.293153     5A    -11.274401     6A    -11.263804
       7A    -11.259652     8A    -11.258974     9A    -11.258200
      10A     -1.430087    11A     -1.231926    12A     -1.182514
      13A     -1.063425    14A     -1.039596    15A     -0.898658
      16A     -0.857409    17A     -0.792926    18A     -0.714143
      19A     -0.692071    20A     -0.670472    21A     -0.629310
      22A     -0.614024    23A     -0.592556    24A     -0.564151
      25A     -0.547260    26A     -0.537718    27A     -0.524708
      28A     -0.473704    29A     -0.471288    30A     -0.363313
      31A     -0.337135

  @DF-RHF Final Energy:  -397.29130653453893

   => Energetics <=

    Nuclear Repulsion Energy =            379.3840924831725374
    One-Electron Energy =               -1290.6515925864021028
    Two-Electron Energy =                 513.9761935686910874
    DFT Exchange-Correlation Energy =       0.0000000000000000
    Empirical Dispersion Energy =           0.0000000000000000
    PCM Polarization Energy =               0.0000000000000000
    EFP Energy =                            0.0000000000000000
    Total Energy =                       -397.2913065345385348
    Molecular point group: c1
  Basis Set: 6-31G*
  Basis Set:

  -Total Gradient:
     Atom            X                  Y                   Z
    ------   -----------------  -----------------  -----------------
       1        0.000754882326    -0.004785971780    -0.000938666441
       2       -0.003979752175     0.001999288473     0.000873099162
       3        0.000137531592     0.003322431353     0.000219863067
       4        0.004685391915     0.001552060033     0.000383788220
       5        0.002759133304     0.002126999751    -0.000747756471
       6        0.000347629764    -0.000230828826     0.000048655816
       7       -0.002009892334    -0.000172583839    -0.000228441365
       8        0.000130840274     0.000073369371     0.000067909647
       9       -0.005344921510    -0.001024644590     0.000948967101
      10       -0.000212486174     0.000042822896     0.000007417912
      11        0.000735281530    -0.001873323327     0.000105481523
      12        0.003319188571     0.001907969704    -0.002324562119
      13        0.000066940805    -0.000126635929     0.000111337126
      14       -0.001389767884    -0.002810953291     0.001472906821

    Molecular point group: c1

    Geometry (in Angstrom), charge = 0, multiplicity = 1:

    H           -1.571842158157    -3.047401880740     0.094704601647
    O           -1.804678301771    -2.122605001430     0.094283144079
    C           -0.699199299228    -1.337233543628     0.104763557836
    C            0.580202901774    -1.838177414305     0.320503689707
    C           -0.882869472528     0.021198320980    -0.108703309722
    H            0.724217614715    -2.892086631987     0.488379856652
    C            1.667772998600    -0.983282785063     0.322949330859
    H           -1.871888252657     0.401258883051    -0.277066137520
    C            0.216092069820     0.861212719207    -0.097104749424
    H            2.651314237551    -1.381356436998     0.490782673053
    C            1.500626821580     0.370565477058     0.115600399085
    C            0.024061965584     2.276836358124    -0.318185390184
    H            2.340746183283     1.038264171076     0.119018030925
    N           -0.164600348226     3.386742053374    -0.464820689605

  Mulliken Charges: (a.u.)
   Center  Symbol    Alpha    Beta     Spin     Total
       1     H     0.26884  0.26884  0.00000  0.46231
       2     O     4.37712  4.37712  0.00000 -0.75424
       3     C     2.79368  2.79368  0.00000  0.41265
       4     C     3.13372  3.13372  0.00000 -0.26743
       5     C     3.11114  3.11114  0.00000 -0.22227
       6     H     0.39567  0.39567  0.00000  0.20866
       7     C     3.09426  3.09426  0.00000 -0.18851
       8     H     0.37287  0.37287  0.00000  0.25427
       9     C     2.99260  2.99260  0.00000  0.01480
      10     H     0.38895  0.38895  0.00000  0.22209
      11     C     3.09965  3.09965  0.00000 -0.19930
      12     C     2.86569  2.86569  0.00000  0.26863
      13     H     0.38177  0.38177  0.00000  0.23647
      14     N     3.72406  3.72406  0.00000 -0.44812

   Total alpha = 31.00000, Total beta = 31.00000, Total charge =  0.00000
