                              Psi4 1.0.54 Driver

  ==> Input File <==

--------------------------------------------------------------------------
set {
	reference rhf
	basis cc-pvtz
}

set_num_threads( 4 )
memory 2 gb

molecule MOL {
0 1

H	 -2.498963	 -0.741158	 -0.729149
O	 -2.346257	 -0.289210	 0.080372
C	 -1.183935	 0.486039	 -0.009831
C	 0.062853	 -0.375310	 0.027457
H	 -1.178881	 1.094526	 -0.908634
H	 -1.184406	 1.155156	 0.838676
O	 -0.211446	 -1.569537	 -0.628312
H	 0.353335	 -0.565001	 1.062122
H	 0.884621	 0.153825	 -0.450339
C	 0.860260	 -2.451445	 -0.698349
H	 1.200710	 -2.742694	 0.292884
H	 0.528876	 -3.333973	 -1.225620
H	 1.698960	 -2.015557	 -1.236032

	symmetry c1
}
set optking {
	frozen_dihedral = ("
		8 4 3 5
	")
}

ee,wfn = optimize('scf', return_wfn=True)
oeprop( wfn, 'DIPOLE', 'QUADRUPOLE', 'MULLIKEN_CHARGES')
f=open( 'psi4out.xyz', 'w' )
f.write( "13  " )
f.write( str(ee) + "\n" )
f.write( MOL.save_string_xyz() )
f.close()
--------------------------------------------------------------------------

    Molecular point group: c1
  Charge       = 0
  Multiplicity = 1
  Basis Set: CC-PVTZ
  Basis Set:
  @DF-RHF Final Energy:  -268.05845104348953
    Total Energy =                       -268.0584510434894128
    Molecular point group: c1
  Basis Set: CC-PVTZ
  Basis Set:
  Basis Set: CC-PVTZ
  Basis Set:
  @DF-RHF Final Energy:  -268.06039638703078
    Total Energy =                       -268.0603963870307780
  Basis Set: CC-PVTZ
  Basis Set:
  Basis Set: CC-PVTZ
  Basis Set:
  @DF-RHF Final Energy:  -268.06125267047673
    Total Energy =                       -268.0612526704766765
  Basis Set: CC-PVTZ
  Basis Set:
  Basis Set: CC-PVTZ
  Basis Set:
  @DF-RHF Final Energy:  -268.06152217790520
    Total Energy =                       -268.0615221779049762
  Basis Set: CC-PVTZ
  Basis Set:
  Basis Set: CC-PVTZ
  Basis Set:
  @DF-RHF Final Energy:  -268.06169779199286
    Total Energy =                       -268.0616977919927422
  Basis Set: CC-PVTZ
  Basis Set:
  Basis Set: CC-PVTZ
  Basis Set:
  @DF-RHF Final Energy:  -268.06179788551401
    Total Energy =                       -268.0617978855139540
  Basis Set: CC-PVTZ
  Basis Set:
  Basis Set: CC-PVTZ
  Basis Set:
  @DF-RHF Final Energy:  -268.06182471066410
    Total Energy =                       -268.0618247106642116
  Basis Set: CC-PVTZ
  Basis Set:
  Charge       = 0
  Multiplicity = 1
  Basis Set: CC-PVTZ
  Basis Set:

    Orbital Energies (a.u.)
    -----------------------

    Doubly Occupied:

       1A    -20.564573     2A    -20.540375     3A    -11.274273
       4A    -11.273518     5A    -11.266915     6A     -1.401891
       7A     -1.358076     8A     -1.020316     9A     -0.926047
      10A     -0.836531    11A     -0.703977    12A     -0.684733
      13A     -0.671960    14A     -0.636610    15A     -0.590651
      16A     -0.580030    17A     -0.546727    18A     -0.497331
      19A     -0.480208    20A     -0.442227    21A     -0.423432

  @DF-RHF Final Energy:  -268.06182519797790

   => Energetics <=

    Nuclear Repulsion Energy =            195.0417514825825833
    One-Electron Energy =                -752.7663511707850148
    Two-Electron Energy =                 289.6627744902243649
    DFT Exchange-Correlation Energy =       0.0000000000000000
    Empirical Dispersion Energy =           0.0000000000000000
    PCM Polarization Energy =               0.0000000000000000
    EFP Energy =                            0.0000000000000000
    Total Energy =                       -268.0618251979781235
    Molecular point group: c1
  Basis Set: CC-PVTZ
  Basis Set:

  -Total Gradient:
     Atom            X                  Y                   Z
    ------   -----------------  -----------------  -----------------
       1       -0.000014073434    -0.000013121596    -0.000007468304
       2       -0.000001010185     0.000000182515    -0.000009359594
       3       -0.003569763290    -0.004807156707    -0.004101681688
       4       -0.004594603179    -0.005827169589     0.001195700055
       5        0.003776803148     0.005047652679     0.003260897761
       6       -0.000009856103     0.000012184438    -0.000003018120
       7        0.000019708184    -0.000005942540     0.000006360353
       8        0.004391317896     0.005628619647    -0.000333969348
       9        0.000000936958    -0.000015104342    -0.000000659266
      10        0.000003476368    -0.000019795293    -0.000008109912
      11       -0.000000694660     0.000000673212     0.000000301046
      12        0.000002415262    -0.000004202875    -0.000000193870
      13       -0.000004656965     0.000003180450     0.000001200888

  **** Optimization is complete! (in 8 steps) ****
    Final optimized geometry and variables:
    Molecular point group: c1

    Geometry (in Angstrom), charge = 0, multiplicity = 1:

    H           -1.742895170946    -0.085316993803    -0.113498639912
    O           -1.753327310849     0.709763835547     0.390254030414
    C           -0.543427844981     1.368781043239     0.203895490154
    C            0.659113194545     0.435141136199     0.254078931860
    H           -0.523349764337     1.948009508845    -0.716069080881
    H           -0.445920296573     2.089533839382     1.007069467777
    O            0.347690267040    -0.746636984504    -0.409876473121
    H            0.968469583694     0.254411692073     1.281520111291
    H            1.501338233657     0.928587195005    -0.230880615885
    C            1.366722535163    -1.693508249051    -0.425250692958
    H            1.644830836297    -1.989620663368     0.582814515336
    H            1.004532625340    -2.560700021475    -0.957420838113
    H            2.250697160971    -1.314380677935    -0.931748349957

  Mulliken Charges: (a.u.)
   Center  Symbol    Alpha    Beta     Spin     Total
       1     H     0.38375  0.38375  0.00000  0.23251
       2     O     4.20630  4.20630  0.00000 -0.41261
       3     C     2.95872  2.95872  0.00000  0.08256
       4     C     2.96964  2.96964  0.00000  0.06073
       5     H     0.47472  0.47472  0.00000  0.05056
       6     H     0.46424  0.46424  0.00000  0.07151
       7     O     4.18324  4.18324  0.00000 -0.36648
       8     H     0.47265  0.47265  0.00000  0.05469
       9     H     0.47422  0.47422  0.00000  0.05157
      10     C     3.02989  3.02989  0.00000 -0.05978
      11     H     0.46793  0.46793  0.00000  0.06413
      12     H     0.44618  0.44618  0.00000  0.10764
      13     H     0.46851  0.46851  0.00000  0.06298

   Total alpha = 21.00000, Total beta = 21.00000, Total charge = -0.00000

*** Psi4 exiting successfully. Buy a developer a beer!
