  ==> Input File <==

--------------------------------------------------------------------------
set {
	reference rhf
	basis cc-pvtz
}

set_num_threads( 4 )
memory 2 gb

molecule MOL {
0 1

H	 -3.883344	 -1.711053	 -0.877134
C	 -2.815805	 -1.604770	 -0.912336
C	 -2.124534	 -1.958403	 -2.057207
C	 -2.135832	 -1.114891	 0.186590
H	 -2.652988	 -2.338572	 -2.909796
C	 -0.752752	 -1.821545	 -2.101686
H	 -2.672841	 -0.840930	 1.073967
C	 -0.762256	 -0.977274	 0.143596
H	 -0.201875	 -2.090503	 -2.979897
C	 -0.066562	 -1.330570	 -1.001699
H	 -0.232626	 -0.598208	 0.992908
C	 1.415542	 -1.201616	 -1.099972
O	 1.968286	 -0.725612	 -0.000027
O	 2.040479	 -1.494525	 -2.063735
C	 3.373556	 -0.568203	 0.000011
H	 3.695416	 -0.031588	 -0.879663
H	 3.782700	 -1.565294	 -0.000152
H	 3.695405	 -0.031851	 0.879862

	symmetry c1
}
set optking {
	frozen_dihedral = ("
		12 13 15 16
	")
}

ee = optimize('scf')
oeprop('DIPOLE', 'QUADRUPOLE', 'MULLIKEN_CHARGES')
f=open( 'psi4out.xyz', 'w' )
f.write( "18  " )
f.write( str(ee) + "\n" )
f.write( MOL.save_string_xyz() )
f.close()
--------------------------------------------------------------------------

    Molecular point group: c1
  Charge       = 0
  Multiplicity = 1
  Basis Set: CC-PVTZ
  Basis Set:
  @DF-RHF Final Energy:  -457.50858665488818
    Total Energy =                       -457.5085866548878357
    Molecular point group: c1
  Basis Set: CC-PVTZ
  Basis Set:
  Basis Set: CC-PVTZ
  Basis Set:
  @DF-RHF Final Energy:  -457.50976464234373
    Total Energy =                       -457.5097646423439528
  Basis Set: CC-PVTZ
  Basis Set:
  Basis Set: CC-PVTZ
  Basis Set:
  @DF-RHF Final Energy:  -457.50945398509191
    Total Energy =                       -457.5094539850919091
  Basis Set: CC-PVTZ
  Basis Set:
  Basis Set: CC-PVTZ
  Basis Set:
  @DF-RHF Final Energy:  -457.51006804279450
    Total Energy =                       -457.5100680427949555
  Basis Set: CC-PVTZ
  Basis Set:
  Charge       = 0
  Multiplicity = 1
  Basis Set: CC-PVTZ
  Basis Set:

    Orbital Energies (a.u.)
    -----------------------

    Doubly Occupied:

       1A    -20.600943     2A    -20.534466     3A    -11.371878
       4A    -11.281128     5A    -11.244970     6A    -11.243504
       7A    -11.242694     8A    -11.240052     9A    -11.236070
      10A    -11.235310    11A     -1.476980    12A     -1.368599
      13A     -1.170802    14A     -1.051882    15A     -1.029067
      16A     -0.980611    17A     -0.863210    18A     -0.838477
      19A     -0.781306    20A     -0.745143    21A     -0.687981
      22A     -0.681542    23A     -0.676434    24A     -0.634158
      25A     -0.630103    26A     -0.601329    27A     -0.587834
      28A     -0.565106    29A     -0.531746    30A     -0.520381
      31A     -0.509493    32A     -0.502247    33A     -0.463912
      34A     -0.449500    35A     -0.350224    36A     -0.346263

  @DF-RHF Final Energy:  -457.51006945590700

   => Energetics <=

    Nuclear Repulsion Energy =            494.0360252908438952
    One-Electron Energy =               -1602.5415050661099485
    Two-Electron Energy =                 650.9954103193592800
    DFT Exchange-Correlation Energy =       0.0000000000000000
    Empirical Dispersion Energy =           0.0000000000000000
    PCM Polarization Energy =               0.0000000000000000
    EFP Energy =                            0.0000000000000000
    Total Energy =                       -457.5100694559066596
    Molecular point group: c1
  Basis Set: CC-PVTZ
  Basis Set:

  -Total Gradient:
     Atom            X                  Y                   Z
    ------   -----------------  -----------------  -----------------
       1        0.000000441572     0.000001520220     0.000001754505
       2       -0.000001797988    -0.000008133386    -0.000010701971
       3       -0.000004462906     0.000017765500     0.000004790758
       4        0.000020589692    -0.000005111665     0.000011799169
       5        0.000006645301     0.000000518627    -0.000001807143
       6        0.000035671751    -0.000004778890     0.000003139084
       7        0.000002689220     0.000001235269     0.000000923308
       8       -0.000000452815     0.000004853015    -0.000011465352
       9        0.000000268799    -0.000003924600    -0.000003788419
      10        0.000008336157     0.000004282172     0.000029430958
      11        0.000012683880     0.000008008987     0.000010581999
      12        0.000038258412     0.000737218492    -0.000324009454
      13        0.000193435353    -0.001252425026     0.000281041034
      14       -0.000032726937     0.000022963820     0.000006198535
      15       -0.000182876460     0.001254013860     0.000492327554
      16       -0.000013281104    -0.000796444316    -0.000513846631
      17       -0.000071296473    -0.000014070154     0.000005807274
      18       -0.000012125450     0.000032508074     0.000017824789

  **** Optimization is complete! (in 5 steps) ****
    Final optimized geometry and variables:
    Molecular point group: c1

    Geometry (in Angstrom), charge = 0, multiplicity = 1:

    H           -4.026589859733    -0.430918321433     0.007845772132
    C           -2.958537445107    -0.329920984365    -0.028396421707
    C           -2.270237288431    -0.686037333168    -1.174400750560
    C           -2.274839902018     0.155536843187     1.070151508575
    H           -2.801497821810    -1.062880662431    -2.026788299875
    C           -0.897840945027    -0.556184644016    -1.220221142366
    H           -2.809315854956     0.431460352426     1.958486777261
    C           -0.900538467903     0.286445267270     1.025697734085
    H           -0.349352564071    -0.827419889536    -2.099291521405
    C           -0.208028496831    -0.069383365201    -0.120595546331
    H           -0.368190844452     0.662170851844     1.874873555763
    C            1.274854014168     0.052402007388    -0.220917059537
    O            1.830711525067     0.521579256912     0.880183922200
    O            1.896345156245    -0.241200446860    -1.186621881611
    C            3.234237474496     0.691198926475     0.877227653756
    H            3.550433615283     1.239053190829     0.003533145260
    H            3.727749789939    -0.270031670611     0.886045064190
    H            3.470898699526     1.237589520862     1.775567091185

  Mulliken Charges: (a.u.)
   Center  Symbol    Alpha    Beta     Spin     Total
       1     H     0.42029  0.42029  0.00000  0.15943
       2     C     3.06976  3.06976  0.00000 -0.13952
       3     C     3.07550  3.07550  0.00000 -0.15099
       4     C     3.07492  3.07492  0.00000 -0.14985
       5     H     0.42038  0.42038  0.00000  0.15923
       6     C     3.07590  3.07590  0.00000 -0.15181
       7     H     0.42189  0.42189  0.00000  0.15623
       8     C     3.08211  3.08211  0.00000 -0.16422
       9     H     0.40665  0.40665  0.00000  0.18669
      10     C     3.01297  3.01297  0.00000 -0.02593
      11     H     0.41105  0.41105  0.00000  0.17790
      12     C     2.78162  2.78162  0.00000  0.43676
      13     O     4.14844  4.14844  0.00000 -0.29688
      14     O     4.21141  4.21141  0.00000 -0.42281
      15     C     3.03689  3.03689  0.00000 -0.07378
      16     H     0.45034  0.45034  0.00000  0.09931
      17     H     0.45442  0.45442  0.00000  0.09116
      18     H     0.44547  0.44547  0.00000  0.10907

   Total alpha = 36.00000, Total beta = 36.00000, Total charge =  0.00000
