  ==> Input File <==

--------------------------------------------------------------------------
set {
	reference rhf
	basis 6-31G*
}

set_num_threads( 4 )
memory 2 gb

molecule MOL {
0 1

O	 1.170070	 -2.288085	 1.442050
C	 0.330891	 -1.782397	 0.770161
C	 -1.099003	 -2.240218	 0.678686
O	 0.550821	 -0.724572	 0.000672
H	 -1.760738	 -1.436123	 0.979055
H	 -1.245677	 -3.098715	 1.316936
H	 -1.336523	 -2.495016	 -0.347590
C	 1.863949	 -0.193559	 -0.000319
H	 2.028859	 0.409284	 -0.881648
H	 2.526261	 -1.045082	 -0.000003
H	 2.029520	 0.410555	 0.880008

	symmetry c1
}
set optking {
	frozen_dihedral = ("
		2 4 8 9
	")
}

ee = optimize('scf')
oeprop('DIPOLE', 'QUADRUPOLE', 'MULLIKEN_CHARGES')
f=open( 'psi4out.xyz', 'w' )
f.write( "11  " )
f.write( str(ee) + "\n" )
f.write( MOL.save_string_xyz() )
f.close()
--------------------------------------------------------------------------

    Molecular point group: c1
  Charge       = 0
  Multiplicity = 1
  Basis Set: 6-31G*
  Basis Set:
  @DF-RHF Final Energy:  -266.83412757053929
    Total Energy =                       -266.8341275705390103
    Molecular point group: c1
  Basis Set: 6-31G*
  Basis Set:
  Basis Set: 6-31G*
  Basis Set:
  @DF-RHF Final Energy:  -266.83543405677688
    Total Energy =                       -266.8354340567770464
  Basis Set: 6-31G*
  Basis Set:
  Basis Set: 6-31G*
  Basis Set:
  @DF-RHF Final Energy:  -266.83571869375788
    Total Energy =                       -266.8357186937581105
  Basis Set: 6-31G*
  Basis Set:
  Basis Set: 6-31G*
  Basis Set:
  @DF-RHF Final Energy:  -266.83566471444544
    Total Energy =                       -266.8356647144451017
  Basis Set: 6-31G*
  Basis Set:
  Charge       = 0
  Multiplicity = 1
  Basis Set: 6-31G*
  Basis Set:

    Orbital Energies (a.u.)
    -----------------------

    Doubly Occupied:

       1A    -20.605657     2A    -20.546330     3A    -11.376841
       4A    -11.281859     5A    -11.234484     6A     -1.470325
       7A     -1.364694     8A     -1.035949     9A     -0.953157
      10A     -0.778034    11A     -0.695905    12A     -0.680652
      13A     -0.677108    14A     -0.596383    15A     -0.591302
      16A     -0.560615    17A     -0.526481    18A     -0.521650
      19A     -0.457342    20A     -0.442204

  @DF-RHF Final Energy:  -266.83582900116278

   => Energetics <=

    Nuclear Repulsion Energy =            183.1709353963792921
    One-Electron Energy =                -727.2195846141974016
    Two-Electron Energy =                 277.2128202166554729
    DFT Exchange-Correlation Energy =       0.0000000000000000
    Empirical Dispersion Energy =           0.0000000000000000
    PCM Polarization Energy =               0.0000000000000000
    EFP Energy =                            0.0000000000000000
    Total Energy =                       -266.8358290011626650
    Molecular point group: c1
  Basis Set: 6-31G*
  Basis Set:

  -Total Gradient:
     Atom            X                  Y                   Z
    ------   -----------------  -----------------  -----------------
       1       -0.000006284770    -0.000210916635     0.000104880725
       2        0.000285300885    -0.000699712767    -0.000953812864
       3        0.000037700570    -0.000014427721    -0.000054042490
       4       -0.000500264626     0.000880565571     0.001299462992
       5        0.000033218229     0.000015263710     0.000004496585
       6        0.000019969731    -0.000005149861    -0.000002634396
       7       -0.000009972486    -0.000011628569     0.000000663502
       8       -0.000465326483     0.001234175249     0.000412248960
       9        0.000598445517    -0.001215183307    -0.000770482336
      10       -0.000006822349     0.000011613635    -0.000020649377
      11        0.000014035784     0.000015400693    -0.000020131301

  **** Optimization is complete! (in 5 steps) ****
    Final optimized geometry and variables:
    Molecular point group: c1

    Geometry (in Angstrom), charge = 0, multiplicity = 1:

    O            0.574714871691    -0.865875733027     0.880720946791
    C           -0.251593642450    -0.348879967467     0.201586652422
    C           -1.682581352395    -0.798587208767     0.088115273635
    O           -0.020014081368     0.713017325815    -0.559648740817
    H           -2.343307079263     0.006677254051     0.387646020642
    H           -1.841627859703    -1.661543249418     0.717201777133
    H           -1.909069582032    -1.042960268175    -0.943207717867
    C            1.298052171554     1.232768683408    -0.580788026517
    H            1.373103585090     1.822969166904    -1.481017468063
    H            2.022842247586     0.433910711817    -0.600113331884
    H            1.468760088184     1.851249801497     0.289754145252

  Mulliken Charges: (a.u.)
   Center  Symbol    Alpha    Beta     Spin     Total
       1     O     4.28190  4.28190  0.00000 -0.56380
       2     C     2.62237  2.62237  0.00000  0.75525
       3     C     3.28178  3.28178  0.00000 -0.56356
       4     O     4.30003  4.30003  0.00000 -0.60006
       5     H     0.39985  0.39985  0.00000  0.20030
       6     H     0.39665  0.39665  0.00000  0.20669
       7     H     0.40010  0.40010  0.00000  0.19981
       8     C     3.09376  3.09376  0.00000 -0.18751
       9     H     0.40892  0.40892  0.00000  0.18216
      10     H     0.40289  0.40289  0.00000  0.19422
      11     H     0.41175  0.41175  0.00000  0.17651

   Total alpha = 20.00000, Total beta = 20.00000, Total charge = -0.00000
