                              Psi4 1.0.54 Driver

  ==> Input File <==

--------------------------------------------------------------------------
set {
	reference rhf
	basis cc-pvtz
}

set_num_threads( 4 )
memory 2 gb

molecule MOL {
0 1

H	 2.181380	 -0.890542	 -0.515750
C	 1.948180	 -0.217873	 0.320185
C	 0.692262	 0.592428	 0.156232
O	 2.667091	 -0.168097	 1.257374
C	 -0.554654	 -0.292621	 0.086567
H	 0.791858	 1.203694	 -0.731051
H	 0.617379	 1.254358	 1.016534
C	 -1.846385	 0.513195	 -0.016346
H	 -0.473986	 -0.956115	 -0.769708
H	 -0.597929	 -0.929215	 0.966651
C	 -3.089953	 -0.365049	 -0.098564
H	 -1.798267	 1.154820	 -0.891143
H	 -1.925398	 1.173265	 0.842889
H	 -3.055079	 -1.012299	 -0.968245
H	 -3.988403	 0.236438	 -0.170014
H	 -3.183055	 -0.995885	 0.779079

	symmetry c1
}
set optking {
	frozen_dihedral = ("
		4 2 3 6
	")
}

ee,wfn = optimize('scf', return_wfn=True)
oeprop( wfn, 'DIPOLE', 'QUADRUPOLE', 'MULLIKEN_CHARGES')
f=open( 'psi4out.xyz', 'w' )
f.write( "16  " )
f.write( str(ee) + "\n" )
f.write( MOL.save_string_xyz() )
f.close()
--------------------------------------------------------------------------

    Molecular point group: c1
  Charge       = 0
  Multiplicity = 1
  Basis Set: CC-PVTZ
  Basis Set:
  @DF-RHF Final Energy:  -270.11884962034776
    Total Energy =                       -270.1188496203478735
    Molecular point group: c1
  Basis Set: CC-PVTZ
  Basis Set:
  Basis Set: CC-PVTZ
  Basis Set:
  @DF-RHF Final Energy:  -270.11898270776834
    Total Energy =                       -270.1189827077682821
  Basis Set: CC-PVTZ
  Basis Set:
  Basis Set: CC-PVTZ
  Basis Set:
  @DF-RHF Final Energy:  -270.11915923987533
    Total Energy =                       -270.1191592398753301
  Basis Set: CC-PVTZ
  Basis Set:
  Basis Set: CC-PVTZ
  Basis Set:
  @DF-RHF Final Energy:  -270.11923129088967
    Total Energy =                       -270.1192312908899567
  Basis Set: CC-PVTZ
  Basis Set:
  Basis Set: CC-PVTZ
  Basis Set:
  @DF-RHF Final Energy:  -270.11923940723796
    Total Energy =                       -270.1192394072380125
  Basis Set: CC-PVTZ
  Basis Set:
  Basis Set: CC-PVTZ
  Basis Set:
  @DF-RHF Final Energy:  -270.11923850503996
    Total Energy =                       -270.1192385050400162
  Basis Set: CC-PVTZ
  Basis Set:
  Basis Set: CC-PVTZ
  Basis Set:
  @DF-RHF Final Energy:  -270.11924092701327
    Total Energy =                       -270.1192409270132089
  Basis Set: CC-PVTZ
  Basis Set:
  Charge       = 0
  Multiplicity = 1
  Basis Set: CC-PVTZ
  Basis Set:

    Orbital Energies (a.u.)
    -----------------------

    Doubly Occupied:

       1A    -20.552100     2A    -11.321275     3A    -11.234719
       4A    -11.233953     5A    -11.227485     6A    -11.216664
       7A     -1.406856     8A     -1.097922     9A     -1.020159
      10A     -0.906861    11A     -0.812627    12A     -0.793754
      13A     -0.681464    14A     -0.649006    15A     -0.634114
      16A     -0.604574    17A     -0.582292    18A     -0.552735
      19A     -0.529902    20A     -0.510820    21A     -0.488588
      22A     -0.482742    23A     -0.480211    24A     -0.411530

  @DF-RHF Final Energy:  -270.11924095649579

   => Energetics <=

    Nuclear Repulsion Energy =            229.4541904395030940
    One-Electron Energy =                -820.2821551401248144
    Two-Electron Energy =                 320.7087237441259617
    DFT Exchange-Correlation Energy =       0.0000000000000000
    Empirical Dispersion Energy =           0.0000000000000000
    PCM Polarization Energy =               0.0000000000000000
    EFP Energy =                            0.0000000000000000
    Total Energy =                       -270.1192409564957302
    Molecular point group: c1
  Basis Set: CC-PVTZ
  Basis Set:

  -Total Gradient:
     Atom            X                  Y                   Z
    ------   -----------------  -----------------  -----------------
       1       -0.000001959916     0.000002661566     0.000002776422
       2        0.000089791962     0.000131156827    -0.000093459808
       3        0.000038260454     0.000060191828     0.000109161868
       4       -0.000070581177    -0.000102194254     0.000056722086
       5        0.000003485299     0.000003422144    -0.000003668612
       6       -0.000059392996    -0.000092165296    -0.000066307057
       7        0.000003648372    -0.000002887518    -0.000001956744
       8        0.000000703982    -0.000001836763    -0.000008817867
       9        0.000000238711     0.000003038819     0.000001017661
      10       -0.000001172495    -0.000000783210    -0.000002354632
      11       -0.000002974536     0.000001564546     0.000008927078
      12        0.000001165038    -0.000001997820    -0.000000121325
      13       -0.000000079990    -0.000000254261    -0.000003516365
      14        0.000001006937     0.000003940704    -0.000000037130
      15       -0.000001305014    -0.000001071166     0.000002640656
      16       -0.000000834635    -0.000002786145    -0.000001006233

  **** Optimization is complete! (in 8 steps) ****
    Final optimized geometry and variables:
    Molecular point group: c1

    Geometry (in Angstrom), charge = 0, multiplicity = 1:

    H            2.137583337729    -0.929738706287    -0.839143548410
    C            1.972313270416    -0.248037122749     0.005600872437
    C            0.723151772234     0.584129972711    -0.080839830930
    O            2.746175989780    -0.214612232614     0.898748426468
    C           -0.534113729088    -0.286113130706    -0.160579406171
    H            0.796413112234     1.193923986849    -0.978758352574
    H            0.690180788605     1.244548756272     0.775617336374
    C           -1.811563520334     0.534156999844    -0.314821096906
    H           -0.446730536434    -0.975055979056    -0.996903190026
    H           -0.602533239335    -0.896264288056     0.735394746350
    C           -3.067312071547    -0.328098124462    -0.379426988851
    H           -1.741371697364     1.139691460798    -1.214050251421
    H           -1.892229824988     1.228871532364     0.515916545182
    H           -3.030808515638    -1.011285998930    -1.221330183207
    H           -3.955248560450     0.283321618096    -0.488253202132
    H           -3.181964647270    -0.920568192970     0.521862255759

  Mulliken Charges: (a.u.)
   Center  Symbol    Alpha    Beta     Spin     Total
       1     H     0.46513  0.46513  0.00000  0.06974
       2     C     2.90944  2.90944  0.00000  0.18113
       3     C     3.07644  3.07644  0.00000 -0.15288
       4     O     4.16435  4.16435  0.00000 -0.32871
       5     C     3.10218  3.10218  0.00000 -0.20437
       6     H     0.45040  0.45040  0.00000  0.09920
       7     H     0.44255  0.44255  0.00000  0.11490
       8     C     3.08464  3.08464  0.00000 -0.16928
       9     H     0.45197  0.45197  0.00000  0.09607
      10     H     0.44549  0.44549  0.00000  0.10902
      11     C     3.14907  3.14907  0.00000 -0.29815
      12     H     0.45331  0.45331  0.00000  0.09338
      13     H     0.45066  0.45066  0.00000  0.09867
      14     H     0.45455  0.45455  0.00000  0.09090
      15     H     0.44665  0.44665  0.00000  0.10669
      16     H     0.45316  0.45316  0.00000  0.09367

   Total alpha = 24.00000, Total beta = 24.00000, Total charge =  0.00000

*** Psi4 exiting successfully. Buy a developer a beer!
