  ==> Input File <==

--------------------------------------------------------------------------
set {
	reference rhf
	basis cc-pvtz
}

set_num_threads( 4 )
memory 2 gb

molecule MOL {
0 1

H	 2.773316	 0.707715	 0.434451
N	 2.326826	 -0.066186	 0.000000
C	 0.934676	 -0.005420	 0.000000
H	 2.730880	 -0.264478	 -0.885688
C	 0.226436	 -0.001077	 -1.195129
C	 0.226436	 -0.001077	 1.195129
H	 0.759091	 -0.011439	 -2.128123
C	 -1.153391	 0.009141	 -1.189028
H	 0.759091	 -0.011439	 2.128123
C	 -1.153391	 0.009141	 1.189028
H	 -1.680905	 0.012964	 -2.124348
C	 -1.857876	 0.014675	 0.000000
H	 -1.680905	 0.012964	 2.124348
H	 -2.930222	 0.022904	 0.000000

	symmetry c1
}
set optking {
	frozen_dihedral = ("
		1 2 3 5
	")
}

ee = optimize('scf')
oeprop('DIPOLE', 'QUADRUPOLE', 'MULLIKEN_CHARGES')
f=open( 'psi4out.xyz', 'w' )
f.write( "14  " )
f.write( str(ee) + "\n" )
f.write( MOL.save_string_xyz() )
f.close()
--------------------------------------------------------------------------

    Molecular point group: c1
  Charge       = 0
  Multiplicity = 1
  Basis Set: CC-PVTZ
  Basis Set:
  @DF-RHF Final Energy:  -285.83072633279943
    Total Energy =                       -285.8307263327993724
    Molecular point group: c1
  Basis Set: CC-PVTZ
  Basis Set:
  Basis Set: CC-PVTZ
  Basis Set:
  @DF-RHF Final Energy:  -285.83146916755004
    Total Energy =                       -285.8314691675501535
  Basis Set: CC-PVTZ
  Basis Set:
  Basis Set: CC-PVTZ
  Basis Set:
  @DF-RHF Final Energy:  -285.83160445881714
    Total Energy =                       -285.8316044588166278
  Basis Set: CC-PVTZ
  Basis Set:
  Basis Set: CC-PVTZ
  Basis Set:
  @DF-RHF Final Energy:  -285.83161324831389
    Total Energy =                       -285.8316132483139427
  Basis Set: CC-PVTZ
  Basis Set:
  Charge       = 0
  Multiplicity = 1
  Basis Set: CC-PVTZ
  Basis Set:

    Orbital Energies (a.u.)
    -----------------------

    Doubly Occupied:

       1A    -15.552424     2A    -11.267371     3A    -11.228165
       4A    -11.227568     5A    -11.219497     6A    -11.217084
       7A    -11.216066     8A     -1.221820     9A     -1.131810
      10A     -1.014899    11A     -0.989234    12A     -0.832681
      13A     -0.812549    14A     -0.707147    15A     -0.679943
      16A     -0.652475    17A     -0.608933    18A     -0.594936
      19A     -0.584017    20A     -0.522983    21A     -0.506261
      22A     -0.490381    23A     -0.442563    24A     -0.336802
      25A     -0.304933

  @DF-RHF Final Energy:  -285.83161404265860

   => Energetics <=

    Nuclear Repulsion Energy =            273.4808677179598249
    One-Electron Energy =                -927.8998781766464390
    Two-Electron Energy =                 368.5873964160279002
    DFT Exchange-Correlation Energy =       0.0000000000000000
    Empirical Dispersion Energy =           0.0000000000000000
    PCM Polarization Energy =               0.0000000000000000
    EFP Energy =                            0.0000000000000000
    Total Energy =                       -285.8316140426587708
    Molecular point group: c1
  Basis Set: CC-PVTZ
  Basis Set:

  -Total Gradient:
     Atom            X                  Y                   Z
    ------   -----------------  -----------------  -----------------
       1        0.000143469147     0.001663430944    -0.002784791419
       2       -0.000140157430    -0.000795016934     0.003570654992
       3       -0.000166819718    -0.003387166317    -0.000541105116
       4        0.000035892552     0.000002938968    -0.000057053149
       5       -0.000054186810     0.002552330090    -0.000101305491
       6        0.000149219551    -0.000019890749    -0.000085685325
       7        0.000005683112    -0.000007584159    -0.000001245848
       8        0.000160058041    -0.000052437887    -0.000075549397
       9        0.000002452105     0.000014882269     0.000020947799
      10       -0.000138937809    -0.000023881118    -0.000097168924
      11       -0.000008622685     0.000013033608     0.000007891271
      12       -0.000002328683     0.000039085940     0.000166361463
      13        0.000018145362    -0.000003373564    -0.000002110072
      14       -0.000003866732     0.000003648910    -0.000019840787

  **** Optimization is complete! (in 5 steps) ****
    Final optimized geometry and variables:
    Molecular point group: c1

    Geometry (in Angstrom), charge = 0, multiplicity = 1:

    H            2.739659700527     0.707352847249     0.483101433196
    N            2.338106021365    -0.079741042268     0.021576068605
    C            0.930664994875    -0.030036607461    -0.004072894063
    H            2.729294727187    -0.141576320732    -0.892078062149
    C            0.221333391419    -0.013496487994    -1.194538797005
    C            0.228782583904    -0.003915190167     1.193923200425
    H            0.750305198071    -0.021061517220    -2.129815582668
    C           -1.161234941154     0.007227526331    -1.186485860318
    H            0.771293664644    -0.029517668804     2.119991620691
    C           -1.149449620412     0.039025328844     1.194465537549
    H           -1.693006800073     0.011244242651    -2.119239461319
    C           -1.856710558641     0.039584571049     0.004995640218
    H           -1.675214746816     0.060683204229     2.130360492867
    H           -2.929058477161     0.063732264191     0.009224277668

  Mulliken Charges: (a.u.)
   Center  Symbol    Alpha    Beta     Spin     Total
       1     H     0.41921  0.41921  0.00000  0.16157
       2     N     3.68172  3.68172  0.00000 -0.36345
       3     C     2.88631  2.88631  0.00000  0.22739
       4     H     0.42681  0.42681  0.00000  0.14638
       5     C     3.11728  3.11728  0.00000 -0.23456
       6     C     3.11442  3.11442  0.00000 -0.22883
       7     H     0.43348  0.43348  0.00000  0.13305
       8     C     3.06369  3.06369  0.00000 -0.12739
       9     H     0.42565  0.42565  0.00000  0.14869
      10     C     3.06091  3.06091  0.00000 -0.12183
      11     H     0.42428  0.42428  0.00000  0.15143
      12     C     3.09744  3.09744  0.00000 -0.19487
      13     H     0.42412  0.42412  0.00000  0.15175
      14     H     0.42467  0.42467  0.00000  0.15065

   Total alpha = 25.00000, Total beta = 25.00000, Total charge =  0.00000
