  ==> Input File <==

--------------------------------------------------------------------------
set {
	reference rhf
	basis 6-31G*
}

set_num_threads( 4 )
memory 2 gb

molecule MOL {
0 1

H	 1.573570	 -1.219366	 0.783487
O	 1.586534	 -0.678666	 -0.000226
C	 0.489431	 0.077273	 0.000046
C	 -0.764129	 -0.759190	 0.000191
O	 0.537743	 1.263962	 0.000257
C	 -2.038368	 0.075731	 -0.000248
H	 -0.717284	 -1.412404	 -0.866059
H	 -0.717458	 -1.411724	 0.866967
H	 -2.086483	 0.712501	 -0.875098
H	 -2.908485	 -0.571682	 -0.000042
H	 -2.086576	 0.713280	 0.874068

	symmetry c1
}
set optking {
	frozen_dihedral = ("
		1 2 3 5
	")
}

ee = optimize('scf')
oeprop('DIPOLE', 'QUADRUPOLE', 'MULLIKEN_CHARGES')
f=open( 'psi4out.xyz', 'w' )
f.write( "11  " )
f.write( str(ee) + "\n" )
f.write( MOL.save_string_xyz() )
f.close()
--------------------------------------------------------------------------

    Molecular point group: c1
  Charge       = 0
  Multiplicity = 1
  Basis Set: 6-31G*
  Basis Set:
  @DF-RHF Final Energy:  -266.82473980070114
    Total Energy =                       -266.8247398007011952
    Molecular point group: c1
  Basis Set: 6-31G*
  Basis Set:
  Basis Set: 6-31G*
  Basis Set:
  @DF-RHF Final Energy:  -266.82622045914565
    Total Energy =                       -266.8262204591457589
  Basis Set: 6-31G*
  Basis Set:
  Basis Set: 6-31G*
  Basis Set:
  @DF-RHF Final Energy:  -266.82608673218624
    Total Energy =                       -266.8260867321861269
  Basis Set: 6-31G*
  Basis Set:
  Basis Set: 6-31G*
  Basis Set:
  @DF-RHF Final Energy:  -266.82636592403446
    Total Energy =                       -266.8263659240344055
  Basis Set: 6-31G*
  Basis Set:
  Basis Set: 6-31G*
  Basis Set:
  @DF-RHF Final Energy:  -266.82637417530225
    Total Energy =                       -266.8263741753023623
  Basis Set: 6-31G*
  Basis Set:
  Charge       = 0
  Multiplicity = 1
  Basis Set: 6-31G*
  Basis Set:

    Orbital Energies (a.u.)
    -----------------------

    Doubly Occupied:

       1A    -20.599953     2A    -20.560203     3A    -11.382185
       4A    -11.250789     5A    -11.224183     6A     -1.462728
       7A     -1.370412     8A     -1.066359     9A     -0.908742
      10A     -0.815914    11A     -0.715646    12A     -0.670234
      13A     -0.658530    14A     -0.616153    15A     -0.574967
      16A     -0.531809    17A     -0.520957    18A     -0.505796
      19A     -0.487675    20A     -0.445485

  @DF-RHF Final Energy:  -266.82637515323052

   => Energetics <=

    Nuclear Repulsion Energy =            179.1379016106351685
    One-Electron Energy =                -719.1911156024268621
    Two-Electron Energy =                 273.2268388385613207
    DFT Exchange-Correlation Energy =       0.0000000000000000
    Empirical Dispersion Energy =           0.0000000000000000
    PCM Polarization Energy =               0.0000000000000000
    EFP Energy =                            0.0000000000000000
    Total Energy =                       -266.8263751532304013
    Molecular point group: c1
  Basis Set: 6-31G*
  Basis Set:

  -Total Gradient:
     Atom            X                  Y                   Z
    ------   -----------------  -----------------  -----------------
       1        0.002591014605     0.004079655717     0.002636024765
       2       -0.003320408776    -0.005068738241    -0.001174423367
       3        0.000768141223     0.000789764754    -0.006254846314
       4        0.000038805799     0.000015668985    -0.000081135727
       5       -0.000040361837     0.000176772629     0.004811515614
       6       -0.000030460833    -0.000004399540     0.000025184900
       7       -0.000003819780     0.000002246843     0.000027038820
       8        0.000003442918     0.000011570697     0.000027373212
       9        0.000002743406    -0.000003489128    -0.000002663086
      10       -0.000015075605     0.000006230990    -0.000006115234
      11        0.000005978880    -0.000005283705    -0.000007953585

  **** Optimization is complete! (in 6 steps) ****
    Final optimized geometry and variables:
    Molecular point group: c1

    Geometry (in Angstrom), charge = 0, multiplicity = 1:

    H            1.689844288859    -1.190731242203     0.796496562716
    O            1.635097419499    -0.653242660255     0.016331421479
    C            0.496709466394     0.082958060053    -0.007517114717
    C           -0.771941628633    -0.740109773609    -0.012524300071
    O            0.535436173014     1.261010312150    -0.043347075739
    C           -2.041111789159     0.102456134503    -0.006267610183
    H           -0.729010587311    -1.385116606913    -0.885652127708
    H           -0.745628647065    -1.407388063004     0.847131341972
    H           -2.078228885292     0.749983540698    -0.873288117513
    H           -2.916461776422    -0.537771980887    -0.018166228715
    H           -2.088147021566     0.729975901990     0.875493660282

  Mulliken Charges: (a.u.)
   Center  Symbol    Alpha    Beta     Spin     Total
       1     H     0.26841  0.26841  0.00000  0.46319
       2     O     4.36347  4.36347  0.00000 -0.72693
       3     C     2.62543  2.62543  0.00000  0.74913
       4     C     3.21491  3.21491  0.00000 -0.42982
       5     O     4.24739  4.24739  0.00000 -0.49478
       6     C     3.23861  3.23861  0.00000 -0.47721
       7     H     0.39618  0.39618  0.00000  0.20765
       8     H     0.41291  0.41291  0.00000  0.17417
       9     H     0.40606  0.40606  0.00000  0.18787
      10     H     0.41683  0.41683  0.00000  0.16635
      11     H     0.40981  0.40981  0.00000  0.18038

   Total alpha = 20.00000, Total beta = 20.00000, Total charge = -0.00000
