                              Psi4 1.0.54 Driver

  ==> Input File <==

--------------------------------------------------------------------------
set {
	reference rhf
	basis cc-pvtz
}

set_num_threads( 4 )
memory 2 gb

molecule MOL {
0 1

H	 -0.077827	 3.043585	 6.462988
C	 -0.648361	 2.151247	 6.232573
C	 -0.989900	 2.083356	 4.747963
H	 -0.057332	 1.293579	 6.534742
H	 -1.545988	 2.165866	 6.842370
C	 -1.804125	 0.842747	 4.387551
H	 -0.073406	 2.094885	 4.169306
H	 -1.549359	 2.972783	 4.467341
C	 -2.166202	 0.751087	 2.908570
H	 -1.254923	 -0.046292	 4.671832
H	 -2.724608	 0.843621	 4.964175
C	 -1.001931	 0.421912	 1.989549
H	 -2.901867	 -0.034817	 2.757185
H	 -2.639794	 1.666700	 2.566691
C	 -1.180025	 0.697761	 0.509157
O	 0.005662	 -0.053376	 2.404437
C	 -2.285431	 -0.137488	 -0.145671
H	 -0.229782	 0.497502	 0.032947
H	 -1.402764	 1.753815	 0.381352
C	 -3.646545	 0.082747	 0.508954
H	 -2.348635	 0.118247	 -1.199806
H	 -2.034895	 -1.192387	 -0.096473
C	 -4.757412	 -0.737227	 -0.138149
H	 -3.900211	 1.137405	 0.459735
H	 -3.580878	 -0.166775	 1.564416
H	 -4.867876	 -0.486707	 -1.187777
H	 -4.549650	 -1.800049	 -0.072540
H	 -5.709585	 -0.556397	 0.346597

	symmetry c1
}
set optking {
	frozen_dihedral = ("
		12 15 17 21
	")
}

ee,wfn = optimize('scf', return_wfn=True)
oeprop( wfn, 'DIPOLE', 'QUADRUPOLE', 'MULLIKEN_CHARGES')
f=open( 'psi4out.xyz', 'w' )
f.write( "28  " )
f.write( str(ee) + "\n" )
f.write( MOL.save_string_xyz() )
f.close()
--------------------------------------------------------------------------

    Molecular point group: c1
  Charge       = 0
  Multiplicity = 1
  Basis Set: CC-PVTZ
  Basis Set:
  @DF-RHF Final Energy:  -426.29441607435035
    Total Energy =                       -426.2944160743502380
    Molecular point group: c1
  Basis Set: CC-PVTZ
  Basis Set:
  Basis Set: CC-PVTZ
  Basis Set:
  @DF-RHF Final Energy:  -426.31013124725598
    Total Energy =                       -426.3101312472559812
  Basis Set: CC-PVTZ
  Basis Set:
  Basis Set: CC-PVTZ
  Basis Set:
  @DF-RHF Final Energy:  -426.28316395675654
    Total Energy =                       -426.2831639567567663
  Basis Set: CC-PVTZ
  Basis Set:
  Basis Set: CC-PVTZ
  Basis Set:
  @DF-RHF Final Energy:  -426.31244060446500
    Total Energy =                       -426.3124406044644275
  Basis Set: CC-PVTZ
  Basis Set:
  @DF-RHF Final Energy:  -426.27073953804518
    Total Energy =                       -426.2707395380452908
  @DF-RHF Final Energy:  -426.30738452685159
    Total Energy =                       -426.3073845268517061
  @DF-RHF Final Energy:  -426.31296144053226
    Total Energy =                       -426.3129614405322627
  @DF-RHF Final Energy:  -426.28169410247494
    Total Energy =                       -426.2816941024743755
  @DF-RHF Final Energy:  -426.31385816770114
    Total Energy =                       -426.3138581677010279
  @DF-RHF Final Energy:  -426.31549659234054
    Total Energy =                       -426.3154965923404234
  @DF-RHF Final Energy:  -426.31620314624581
    Total Energy =                       -426.3162031462460391
  @DF-RHF Final Energy:  -426.31704716173942
    Total Energy =                       -426.3170471617391968
  @DF-RHF Final Energy:  -426.31262588173502
    Total Energy =                       -426.3126258817346752
  @DF-RHF Final Energy:  -426.31821932716377
    Total Energy =                       -426.3182193271641154
  @DF-RHF Final Energy:  -426.31480776146259
    Total Energy =                       -426.3148077614623617
  @DF-RHF Final Energy:  -426.31961429208229
    Total Energy =                       -426.3196142920821785
  @DF-RHF Final Energy:  -426.25993714067522
    Total Energy =                       -426.2599371406751061
  @DF-RHF Final Energy:  -426.31740561829827
    Total Energy =                       -426.3174056182982667
  @DF-RHF Final Energy:  -426.32004693383351
    Total Energy =                       -426.3200469338332823
  @DF-RHF Final Energy:  -426.32013722619502
    Total Energy =                       -426.3201372261949018
  @DF-RHF Final Energy:  -426.32032239492423
    Total Energy =                       -426.3203223949237781
  @DF-RHF Final Energy:  -426.32044572650182
    Total Energy =                       -426.3204457265017027
  @DF-RHF Final Energy:  -426.31766313213677
    Total Energy =                       -426.3176631321371133
  @DF-RHF Final Energy:  -426.32071366712796
    Total Energy =                       -426.3207136671276203
  @DF-RHF Final Energy:  -426.32080322333218
    Total Energy =                       -426.3208032233322911
  Basis Set: CC-PVTZ
  Basis Set:
  @DF-RHF Final Energy:  -426.32079409237008
    Total Energy =                       -426.3207940923705337
  Basis Set: CC-PVTZ
  Basis Set:
  Basis Set: CC-PVTZ
  Basis Set:
  @DF-RHF Final Energy:  -426.32082541721127
    Total Energy =                       -426.3208254172108127
  Basis Set: CC-PVTZ
  Basis Set:
  Basis Set: CC-PVTZ
  Basis Set:
  @DF-RHF Final Energy:  -426.32084096005417
    Total Energy =                       -426.3208409600542836
  Basis Set: CC-PVTZ
  Basis Set:
  Charge       = 0
  Multiplicity = 1
  Basis Set: CC-PVTZ
  Basis Set:

    Orbital Energies (a.u.)
    -----------------------

    Doubly Occupied:

       1A    -20.537755     2A    -11.318727     3A    -11.229635
       4A    -11.229498     5A    -11.217271     6A    -11.215346
       7A    -11.211421     8A    -11.210552     9A    -11.204674
      10A    -11.204502    11A     -1.398790    12A     -1.089058
      13A     -1.077733    14A     -1.022285    15A     -0.990710
      16A     -0.910857    17A     -0.866095    18A     -0.808574
      19A     -0.790125    20A     -0.723393    21A     -0.677873
      22A     -0.638749    23A     -0.634721    24A     -0.616442
      25A     -0.606673    26A     -0.587026    27A     -0.578686
      28A     -0.574918    29A     -0.542592    30A     -0.524624
      31A     -0.522900    32A     -0.510821    33A     -0.499530
      34A     -0.479929    35A     -0.471629    36A     -0.468103
      37A     -0.468057    38A     -0.459534    39A     -0.458716
      40A     -0.395860

  @DF-RHF Final Energy:  -426.32084110367498

   => Energetics <=

    Nuclear Repulsion Energy =            539.4554389298324395
    One-Electron Energy =               -1647.6038125403592858
    Two-Electron Energy =                 681.8275325068512984
    DFT Exchange-Correlation Energy =       0.0000000000000000
    Empirical Dispersion Energy =           0.0000000000000000
    PCM Polarization Energy =               0.0000000000000000
    EFP Energy =                            0.0000000000000000
    Total Energy =                       -426.3208411036756615
    Molecular point group: c1
  Basis Set: CC-PVTZ
  Basis Set:

  -Total Gradient:
     Atom            X                  Y                   Z
    ------   -----------------  -----------------  -----------------
       1        0.000001664755     0.000006861481    -0.000005385951
       2        0.000008849645     0.000001176064     0.000015952876
       3       -0.000008791735     0.000001358898    -0.000020952698
       4        0.000001104228    -0.000005939115    -0.000003762107
       5       -0.000001595470    -0.000000416872     0.000001270012
       6       -0.000023008398    -0.000010503025     0.000003284979
       7        0.000004901117     0.000014635176    -0.000002321579
       8       -0.000000743046    -0.000001546814     0.000000553680
       9       -0.000002099232    -0.000024371850     0.000003993434
      10       -0.000002788330     0.000001787694     0.000001005977
      11       -0.000004545956    -0.000008180117     0.000002161662
      12        0.000368487466     0.002302727955    -0.001445555699
      13       -0.000002374870    -0.000002553818    -0.000000327726
      14       -0.000001408203     0.000001777271    -0.000000614576
      15       -0.000423743179    -0.002604392128     0.001640010490
      16        0.000019191150    -0.000005056630     0.000013049852
      17       -0.000415714550    -0.002652585316     0.001691617942
      18        0.000004636201    -0.000004774595     0.000005839917
      19       -0.000003640629    -0.000009277443    -0.000006750263
      20       -0.000005840931    -0.000007042370    -0.000005567878
      21        0.000486156533     0.002998830537    -0.001891812670
      22        0.000006183373     0.000000549006     0.000000269035
      23        0.000001225922     0.000002362416    -0.000006587187
      24       -0.000004140133    -0.000002277154     0.000004035741
      25       -0.000001629988     0.000002706912     0.000002457332
      26       -0.000001061316     0.000004891837     0.000008386320
      27        0.000003093337     0.000002834191    -0.000003082546
      28       -0.000002367757    -0.000003582189    -0.000001168362

  **** Optimization is complete! (in 29 steps) ****
    Final optimized geometry and variables:
    Molecular point group: c1

    Geometry (in Angstrom), charge = 0, multiplicity = 1:

    H            1.954859447075    -0.388871137193     4.825686765728
    C            1.866573669427     0.424986067447     4.115305947416
    C            1.755586593238    -0.099219673159     2.687686194701
    H            0.991265763045     1.005810586605     4.384910865379
    H            2.736404991778     1.063104566005     4.233490541401
    C            1.641867819339     1.021314675236     1.656373778744
    H            0.891796245240    -0.749333752263     2.611185173117
    H            2.627748540401    -0.707687843013     2.460005494087
    C            1.532825380888     0.526108695526     0.218664972486
    H            0.780102589782     1.636936953366     1.883898128066
    H            2.515934534768     1.661606352442     1.731716541015
    C            0.201623115674    -0.103417425201    -0.145779731799
    H            1.666274019727     1.352982691341    -0.476150464722
    H            2.326475826314    -0.178667832713    -0.013800916333
    C            0.182168480211    -0.911990923788    -1.429439949436
    O           -0.764375277960     0.020734469913     0.535128359735
    C           -1.189578889350    -1.097479718565    -2.072412580121
    H            0.614017962749    -1.878769648482    -1.179068058791
    H            0.871621969137    -0.457557391756    -2.135105912420
    C           -1.873475696125     0.208901772659    -2.476883026042
    H           -1.052287546455    -1.689135265105    -2.973054643129
    H           -1.834577902785    -1.656696442550    -1.405709307641
    C           -3.200519277171    -0.025892525216    -3.190981743323
    H           -1.210121380654     0.770541720461    -3.131213974515
    H           -2.042190432599     0.820872234694    -1.600473496945
    H           -3.064838665142    -0.612251737524    -4.094035983138
    H           -3.896293145439    -0.559268435145    -2.552241296474
    H           -3.664412085345     0.912300163549    -3.472714767390

  Mulliken Charges: (a.u.)
   Center  Symbol    Alpha    Beta     Spin     Total
       1     H     0.44866  0.44866  0.00000  0.10268
       2     C     3.15153  3.15153  0.00000 -0.30307
       3     C     3.08468  3.08468  0.00000 -0.16936
       4     H     0.45189  0.45189  0.00000  0.09622
       5     H     0.45684  0.45684  0.00000  0.08632
       6     C     3.08746  3.08746  0.00000 -0.17491
       7     H     0.44573  0.44573  0.00000  0.10855
       8     H     0.45844  0.45844  0.00000  0.08312
       9     C     3.12009  3.12009  0.00000 -0.24018
      10     H     0.44501  0.44501  0.00000  0.10999
      11     H     0.44743  0.44743  0.00000  0.10513
      12     C     2.86527  2.86527  0.00000  0.26947
      13     H     0.43675  0.43675  0.00000  0.12651
      14     H     0.44261  0.44261  0.00000  0.11478
      15     C     3.12137  3.12137  0.00000 -0.24274
      16     O     4.18047  4.18047  0.00000 -0.36094
      17     C     3.08279  3.08279  0.00000 -0.16558
      18     H     0.43629  0.43629  0.00000  0.12743
      19     H     0.44272  0.44272  0.00000  0.11457
      20     C     3.08961  3.08961  0.00000 -0.17921
      21     H     0.44875  0.44875  0.00000  0.10250
      22     H     0.44617  0.44617  0.00000  0.10766
      23     C     3.15148  3.15148  0.00000 -0.30296
      24     H     0.45847  0.45847  0.00000  0.08306
      25     H     0.44143  0.44143  0.00000  0.11714
      26     H     0.45702  0.45702  0.00000  0.08595
      27     H     0.45272  0.45272  0.00000  0.09455
      28     H     0.44834  0.44834  0.00000  0.10332

   Total alpha = 40.00000, Total beta = 40.00000, Total charge = -0.00000

*** Psi4 exiting successfully. Buy a developer a beer!
