  ==> Input File <==

--------------------------------------------------------------------------
set {
	reference rhf
	basis cc-pvtz
}

set_num_threads( 4 )
memory 2 gb

molecule MOL {
0 1

O	 -0.694481	 1.313155	 -0.204815
C	 -0.862519	 0.151932	 -0.046791
C	 -2.171428	 -0.477048	 0.339095
O	 0.085519	 -0.757083	 -0.192238
H	 -2.467997	 -1.191667	 -0.417688
H	 -2.923379	 0.287970	 0.444097
H	 -2.053854	 -1.015120	 1.270901
C	 1.445613	 -0.343722	 -0.130943
C	 1.948970	 -0.284101	 1.296284
H	 1.548911	 0.612310	 -0.619970
H	 1.983745	 -1.088650	 -0.697729
H	 3.003327	 -0.031564	 1.299263
H	 1.417750	 0.468725	 1.862359
H	 1.827194	 -1.243052	 1.785341

	symmetry c1
}
set optking {
	frozen_dihedral = ("
		8 4 2 1
	")
}

ee = optimize('scf')
oeprop('DIPOLE', 'QUADRUPOLE', 'MULLIKEN_CHARGES')
f=open( 'psi4out.xyz', 'w' )
f.write( "14  " )
f.write( str(ee) + "\n" )
f.write( MOL.save_string_xyz() )
f.close()
--------------------------------------------------------------------------

    Molecular point group: c1
  Charge       = 0
  Multiplicity = 1
  Basis Set: CC-PVTZ
  Basis Set:
  @DF-RHF Final Energy:  -305.98889265777495
    Total Energy =                       -305.9888926577751818
    Molecular point group: c1
  Basis Set: CC-PVTZ
  Basis Set:
  Basis Set: CC-PVTZ
  Basis Set:
  @DF-RHF Final Energy:  -305.98590487818444
    Total Energy =                       -305.9859048781842148
  Basis Set: CC-PVTZ
  Basis Set:
  Basis Set: CC-PVTZ
  Basis Set:
  @DF-RHF Final Energy:  -305.98914304485868
    Total Energy =                       -305.9891430448585652
  Basis Set: CC-PVTZ
  Basis Set:
  Basis Set: CC-PVTZ
  Basis Set:
  @DF-RHF Final Energy:  -305.98919077515848
    Total Energy =                       -305.9891907751585336
  Basis Set: CC-PVTZ
  Basis Set:
  @DF-RHF Final Energy:  -305.98921021869353
    Total Energy =                       -305.9892102186936427
  @DF-RHF Final Energy:  -305.98922122954707
    Total Energy =                       -305.9892212295470699
  @DF-RHF Final Energy:  -305.98922311249970
    Total Energy =                       -305.9892231124997011
  Basis Set: CC-PVTZ
  Basis Set:
  @DF-RHF Final Energy:  -305.98922413973042
    Total Energy =                       -305.9892241397303678
  Basis Set: CC-PVTZ
  Basis Set:
  Basis Set: CC-PVTZ
  Basis Set:
  @DF-RHF Final Energy:  -305.98920510515768
    Total Energy =                       -305.9892051051574526
  Basis Set: CC-PVTZ
  Basis Set:
  Basis Set: CC-PVTZ
  Basis Set:
  @DF-RHF Final Energy:  -305.98922470994791
    Total Energy =                       -305.9892247099481324
  Basis Set: CC-PVTZ
  Basis Set:
  Charge       = 0
  Multiplicity = 1
  Basis Set: CC-PVTZ
  Basis Set:

    Orbital Energies (a.u.)
    -----------------------

    Doubly Occupied:

       1A    -20.592404     2A    -20.534007     3A    -11.368179
       4A    -11.283592     5A    -11.231715     6A    -11.220144
       7A     -1.469164     8A     -1.366075     9A     -1.055617
      10A     -1.001324    11A     -0.884960    12A     -0.764995
      13A     -0.700507    14A     -0.686013    15A     -0.663397
      16A     -0.613088    17A     -0.588799    18A     -0.571675
      19A     -0.558773    20A     -0.531133    21A     -0.521814
      22A     -0.494533    23A     -0.455083    24A     -0.441501

  @DF-RHF Final Energy:  -305.98922484164370

   => Energetics <=

    Nuclear Repulsion Energy =            249.3946967714810796
    One-Electron Energy =                -911.5708644657831883
    Two-Electron Energy =                 356.1869428526582624
    DFT Exchange-Correlation Energy =       0.0000000000000000
    Empirical Dispersion Energy =           0.0000000000000000
    PCM Polarization Energy =               0.0000000000000000
    EFP Energy =                            0.0000000000000000
    Total Energy =                       -305.9892248416438179
    Molecular point group: c1
  Basis Set: CC-PVTZ
  Basis Set:

  -Total Gradient:
     Atom            X                  Y                   Z
    ------   -----------------  -----------------  -----------------
       1       -0.001555774021    -0.000162607423    -0.005677530410
       2        0.002439554583    -0.000253849455     0.010912912928
       3        0.000046556877     0.000066275077     0.000045019699
       4       -0.001036461764     0.001397120530    -0.009663622547
       5        0.000006413787    -0.000067759618    -0.000029628768
       6        0.000035769589     0.000019121480    -0.000026651499
       7        0.000004599919    -0.000020774386    -0.000068932693
       8        0.000029298458    -0.001049345385     0.004549439374
       9        0.000050631737     0.000013523479    -0.000052795245
      10       -0.000013310271     0.000012393476     0.000006424136
      11       -0.000017429801     0.000001779578    -0.000000274745
      12        0.000042824986     0.000018334940     0.000044930642
      13       -0.000015421386     0.000006306286    -0.000001153440
      14       -0.000017252693     0.000019481418    -0.000038137434

  **** Optimization is complete! (in 11 steps) ****
    Final optimized geometry and variables:
    Molecular point group: c1

    Geometry (in Angstrom), charge = 0, multiplicity = 1:

    O           -0.639396200482     1.386951751238    -0.260199478799
    C           -0.820487066685     0.220208747201    -0.184846792932
    C           -2.143948652196    -0.419543903623     0.123451008262
    O            0.114317737860    -0.688190867359    -0.420883862416
    H           -2.382700779707    -1.152204463138    -0.635920910091
    H           -2.910558218524     0.336548527514     0.172453499317
    H           -2.076537378849    -0.939512883892     1.071119025018
    C            1.479555247367    -0.293510107498    -0.360845890771
    C            1.970646304340    -0.209585276630     1.069536541586
    H            1.602911490967     0.648261304359    -0.872324510330
    H            2.010951192391    -1.058766570178    -0.906000944176
    H            3.027709740080     0.030429396507     1.077722439337
    H            1.446593113736     0.564133138500     1.615619083515
    H            1.831076529917    -1.155010646588     1.579390113474

  Mulliken Charges: (a.u.)
   Center  Symbol    Alpha    Beta     Spin     Total
       1     O     4.19639  4.19639  0.00000 -0.39278
       2     C     2.80080  2.80080  0.00000  0.39839
       3     C     3.13774  3.13774  0.00000 -0.27547
       4     O     4.16038  4.16038  0.00000 -0.32076
       5     H     0.44448  0.44448  0.00000  0.11104
       6     H     0.43832  0.43832  0.00000  0.12336
       7     H     0.44806  0.44806  0.00000  0.10387
       8     C     2.98617  2.98617  0.00000  0.02766
       9     C     3.15000  3.15000  0.00000 -0.30000
      10     H     0.44636  0.44636  0.00000  0.10729
      11     H     0.44479  0.44479  0.00000  0.11042
      12     H     0.45010  0.45010  0.00000  0.09980
      13     H     0.44499  0.44499  0.00000  0.11003
      14     H     0.45143  0.45143  0.00000  0.09713

   Total alpha = 24.00000, Total beta = 24.00000, Total charge = -0.00000
