  ==> Input File <==

--------------------------------------------------------------------------
set {
	reference rhf
	basis cc-pvtz
}

set_num_threads( 4 )
memory 2 gb

molecule MOL {
0 1

H	 -2.816458	 -0.841657	 -0.064679
N	 -1.878861	 -0.711874	 0.250184
C	 -1.341419	 0.551458	 -0.220231
H	 -1.333674	 -1.468530	 -0.105118
C	 -2.360648	 1.278561	 -1.067073
H	 -1.027030	 1.215089	 0.584317
H	 -0.471007	 0.350958	 -0.835237
O	 -3.450326	 1.620860	 -0.265111
H	 -1.914100	 2.175478	 -1.494049
H	 -2.682519	 0.636156	 -1.883555
C	 -4.493672	 2.237680	 -0.943478
H	 -5.272246	 2.457080	 -0.227187
H	 -4.172173	 3.168613	 -1.405751
H	 -4.901469	 1.592189	 -1.717820

	symmetry c1
}
set optking {
	frozen_dihedral = ("
		6 3 2 4
	")
}

ee = optimize('scf')
oeprop('DIPOLE', 'QUADRUPOLE', 'MULLIKEN_CHARGES')
f=open( 'psi4out.xyz', 'w' )
f.write( "14  " )
f.write( str(ee) + "\n" )
f.write( MOL.save_string_xyz() )
f.close()
--------------------------------------------------------------------------

    Molecular point group: c1
  Charge       = 0
  Multiplicity = 1
  Basis Set: CC-PVTZ
  Basis Set:
  @DF-RHF Final Energy:  -248.21875529060449
    Total Energy =                       -248.2187552906045198
    Molecular point group: c1
  Basis Set: CC-PVTZ
  Basis Set:
  Basis Set: CC-PVTZ
  Basis Set:
  @DF-RHF Final Energy:  -248.22040946110627
    Total Energy =                       -248.2204094611064988
  Basis Set: CC-PVTZ
  Basis Set:
  Basis Set: CC-PVTZ
  Basis Set:
  @DF-RHF Final Energy:  -248.22074932837964
    Total Energy =                       -248.2207493283797248
  Basis Set: CC-PVTZ
  Basis Set:
  Basis Set: CC-PVTZ
  Basis Set:
  @DF-RHF Final Energy:  -248.22078979660449
    Total Energy =                       -248.2207897966042651
  Basis Set: CC-PVTZ
  Basis Set:
  Basis Set: CC-PVTZ
  Basis Set:
  @DF-RHF Final Energy:  -248.22079743592556
    Total Energy =                       -248.2207974359255331
  Basis Set: CC-PVTZ
  Basis Set:
  Charge       = 0
  Multiplicity = 1
  Basis Set: CC-PVTZ
  Basis Set:

    Orbital Energies (a.u.)
    -----------------------

    Doubly Occupied:

       1A    -20.553160     2A    -15.518763     3A    -11.268565
       4A    -11.265939     5A    -11.240281     6A     -1.387751
       7A     -1.171437     8A     -1.001546     9A     -0.910152
      10A     -0.821570    11A     -0.687335    12A     -0.675863
      13A     -0.652258    14A     -0.619912    15A     -0.590569
      16A     -0.567039    17A     -0.519396    18A     -0.499546
      19A     -0.481237    20A     -0.422514    21A     -0.372815

  @DF-RHF Final Energy:  -248.22079809396959

   => Energetics <=

    Nuclear Repulsion Energy =            194.4698360886232820
    One-Electron Energy =                -722.9259795523337289
    Two-Electron Energy =                 280.2353453697408554
    DFT Exchange-Correlation Energy =       0.0000000000000000
    Empirical Dispersion Energy =           0.0000000000000000
    PCM Polarization Energy =               0.0000000000000000
    EFP Energy =                            0.0000000000000000
    Total Energy =                       -248.2207980939695631
    Molecular point group: c1
  Basis Set: CC-PVTZ
  Basis Set:

  -Total Gradient:
     Atom            X                  Y                   Z
    ------   -----------------  -----------------  -----------------
       1       -0.000007010758    -0.000005415194    -0.000004805125
       2       -0.002216496415    -0.000632524677    -0.003404293931
       3       -0.002978002573     0.001668159069     0.001063869580
       4        0.002298854860     0.000238091264     0.002633039648
       5       -0.000060002392     0.000046817031     0.000047393026
       6        0.002863257467    -0.001265369019    -0.000296956567
       7        0.000014166281     0.000012518309    -0.000017388777
       8        0.000017765852    -0.000026444129     0.000011754772
       9        0.000037609825    -0.000000442723    -0.000024474778
      10        0.000019634699    -0.000020524676     0.000003272242
      11       -0.000001062261    -0.000009653579    -0.000017317595
      12        0.000009976135    -0.000007546210     0.000002458411
      13        0.000006284388    -0.000001435012     0.000003732723
      14       -0.000004975108     0.000003769550    -0.000000283629

  **** Optimization is complete! (in 6 steps) ****
    Final optimized geometry and variables:
    Molecular point group: c1

    Geometry (in Angstrom), charge = 0, multiplicity = 1:

    H           -0.094164534397    -1.793983387819     0.652157054864
    N            0.888819217189    -1.687078220813     0.755963212355
    C            1.386321560248    -0.436446609821     0.210678334754
    H            1.368534617420    -2.484561528769     0.408982317812
    C            0.364650362441     0.321346804935    -0.609852492614
    H            1.749247841191     0.198999087969     1.012252129048
    H            2.240490101445    -0.626068880722    -0.432591663847
    O           -0.758254627673     0.578918143094     0.173575271230
    H            0.800334201261     1.254355166312    -0.965218880655
    H            0.080689991027    -0.266428166928    -1.483237766678
    C           -1.775303015083     1.260348382041    -0.482623234275
    H           -2.586493662379     1.399103653431     0.217092302201
    H           -1.441277403414     2.235837574606    -0.829129417088
    H           -2.143169339191     0.699472562097    -1.339278771112

  Mulliken Charges: (a.u.)
   Center  Symbol    Alpha    Beta     Spin     Total
       1     H     0.41995  0.41995  0.00000  0.16010
       2     N     3.70150  3.70150  0.00000 -0.40299
       3     C     3.01206  3.01206  0.00000 -0.02412
       4     H     0.42657  0.42657  0.00000  0.14686
       5     C     2.97669  2.97669  0.00000  0.04661
       6     H     0.46254  0.46254  0.00000  0.07492
       7     H     0.46354  0.46354  0.00000  0.07292
       8     O     4.17495  4.17495  0.00000 -0.34991
       9     H     0.46825  0.46825  0.00000  0.06349
      10     H     0.47417  0.47417  0.00000  0.05165
      11     C     3.03176  3.03176  0.00000 -0.06352
      12     H     0.44596  0.44596  0.00000  0.10807
      13     H     0.47038  0.47038  0.00000  0.05924
      14     H     0.47166  0.47166  0.00000  0.05667

   Total alpha = 21.00000, Total beta = 21.00000, Total charge = -0.00000
