                              Psi4 1.0.54 Driver

  ==> Input File <==

--------------------------------------------------------------------------
set {
	reference rhf
	basis cc-pvtz
}

set_num_threads( 4 )
memory 2 gb

molecule MOL {
0 1

O	 2.868453	 1.353349	 -0.000734
C	 2.841259	 0.166180	 -0.000295
C	 1.542794	 -0.614730	 -0.000853
C	 4.113372	 -0.651103	 0.000743
C	 0.288398	 0.247429	 0.000314
H	 1.557171	 -1.273139	 -0.866508
H	 1.557484	 -1.274998	 0.863344
C	 -0.993089	 -0.581367	 -0.000217
H	 0.305153	 0.900562	 -0.864701
H	 0.305567	 0.898805	 0.866656
C	 -2.258482	 0.271340	 0.000669
H	 -1.002280	 -1.233920	 -0.870484
H	 -1.002061	 -1.235367	 0.868958
C	 -2.049072	 1.669410	 -0.574034
H	 -2.633764	 0.354605	 1.017696
H	 -3.033651	 -0.237111	 -0.567414
C	 -3.317906	 2.515478	 -0.569709
H	 -1.275225	 2.178825	 -0.006058
H	 -1.675166	 1.587159	 -1.591062
H	 -3.698001	 2.645450	 0.438099
H	 -3.134996	 3.500566	 -0.983431
H	 -4.100795	 2.049556	 -1.158816
H	 4.145311	 -1.294584	 -0.871587
H	 4.970080	 0.004978	 -0.000091
H	 4.145223	 -1.291980	 0.874988

	symmetry c1
}
set optking {
	frozen_dihedral = ("
		15 11 8 12
	")
}

ee,wfn = optimize('scf', return_wfn=True)
oeprop( wfn, 'DIPOLE', 'QUADRUPOLE', 'MULLIKEN_CHARGES')
f=open( 'psi4out.xyz', 'w' )
f.write( "25  " )
f.write( str(ee) + "\n" )
f.write( MOL.save_string_xyz() )
f.close()
--------------------------------------------------------------------------

    Molecular point group: c1
  Charge       = 0
  Multiplicity = 1
  Basis Set: CC-PVTZ
  Basis Set:
  @DF-RHF Final Energy:  -387.26455545302565
    Total Energy =                       -387.2645554530259915
    Molecular point group: c1
  Basis Set: CC-PVTZ
  Basis Set:
  Basis Set: CC-PVTZ
  Basis Set:
  @DF-RHF Final Energy:  -387.26339381091429
    Total Energy =                       -387.2633938109142946
  Basis Set: CC-PVTZ
  Basis Set:
  Basis Set: CC-PVTZ
  Basis Set:
  @DF-RHF Final Energy:  -387.26782711808204
    Total Energy =                       -387.2678271180823231
  Basis Set: CC-PVTZ
  Basis Set:
  Basis Set: CC-PVTZ
  Basis Set:
  @DF-RHF Final Energy:  -387.26807483141994
    Total Energy =                       -387.2680748314194261
  Basis Set: CC-PVTZ
  Basis Set:
  @DF-RHF Final Energy:  -387.26727939466491
    Total Energy =                       -387.2672793946644560
  Basis Set: CC-PVTZ
  Basis Set:
  @DF-RHF Final Energy:  -387.26808183348186
    Total Energy =                       -387.2680818334815740
  Basis Set: CC-PVTZ
  Basis Set:
  Basis Set: CC-PVTZ
  Basis Set:
  @DF-RHF Final Energy:  -387.26811126808457
    Total Energy =                       -387.2681112680838851
  Basis Set: CC-PVTZ
  Basis Set:
  Basis Set: CC-PVTZ
  Basis Set:
  @DF-RHF Final Energy:  -387.26811095372420
    Total Energy =                       -387.2681109537236352
  Basis Set: CC-PVTZ
  Basis Set:
  Charge       = 0
  Multiplicity = 1
  Basis Set: CC-PVTZ
  Basis Set:

    Orbital Energies (a.u.)
    -----------------------

    Doubly Occupied:

       1A    -20.538924     2A    -11.320542     3A    -11.230069
       4A    -11.226594     5A    -11.215537     6A    -11.214603
       7A    -11.212073     8A    -11.211079     9A    -11.204877
      10A     -1.398941    11A     -1.093574    12A     -1.055370
      13A     -1.013959    14A     -0.969185    15A     -0.890052
      16A     -0.835185    17A     -0.770211    18A     -0.732116
      19A     -0.658858    20A     -0.653164    21A     -0.632907
      22A     -0.625629    23A     -0.597126    24A     -0.581591
      25A     -0.571709    26A     -0.561040    27A     -0.551938
      28A     -0.515939    29A     -0.505402    30A     -0.499220
      31A     -0.492004    32A     -0.483008    33A     -0.460401
      34A     -0.450255    35A     -0.447849    36A     -0.401929

  @DF-RHF Final Energy:  -387.26811263000843

   => Energetics <=

    Nuclear Repulsion Energy =            446.3868519291953589
    One-Electron Energy =               -1409.6642132326919636
    Two-Electron Energy =                 576.0092486734877184
    DFT Exchange-Correlation Energy =       0.0000000000000000
    Empirical Dispersion Energy =           0.0000000000000000
    PCM Polarization Energy =               0.0000000000000000
    EFP Energy =                            0.0000000000000000
    Total Energy =                       -387.2681126300088863
    Molecular point group: c1
  Basis Set: CC-PVTZ
  Basis Set:

  -Total Gradient:
     Atom            X                  Y                   Z
    ------   -----------------  -----------------  -----------------
       1        0.000023348337     0.000010082504     0.000000245561
       2       -0.000018604048    -0.000029644984    -0.000006098870
       3        0.000002003999     0.000008006779     0.000004224141
       4        0.000007188960     0.000011047383     0.000010055205
       5       -0.000001733698    -0.000002778394    -0.000002767977
       6       -0.000002798358    -0.000001931389     0.000000892887
       7       -0.000003468850    -0.000002156084    -0.000001481836
       8        0.002475616627     0.004265226231    -0.004337730906
       9        0.000001143465    -0.000003317456     0.000003039955
      10        0.000001828245    -0.000001732847    -0.000001932212
      11        0.003522466971     0.005291062335     0.001683001540
      12       -0.002646334434    -0.004428333884     0.003377331384
      13       -0.000000005371    -0.000000096598    -0.000000704323
      14       -0.000004534223     0.000000651877     0.000002164702
      15       -0.003352881355    -0.005127631806    -0.000722563253
      16       -0.000000944035     0.000001396474     0.000000492471
      17        0.000001681507    -0.000000322787    -0.000001707071
      18       -0.000002543300    -0.000000549354    -0.000001122033
      19        0.000000198915     0.000001234896     0.000000054081
      20        0.000000024723    -0.000000067733    -0.000000130074
      21       -0.000000772726    -0.000000178894     0.000000391274
      22        0.000000432250     0.000000353328     0.000000425479
      23       -0.000003395769     0.000004918530    -0.000000449975
      24        0.000004119114     0.000002839401    -0.000001020444
      25       -0.000002036946     0.000001922471    -0.000004609704

  **** Optimization is complete! (in 9 steps) ****
    Final optimized geometry and variables:
    Molecular point group: c1

    Geometry (in Angstrom), charge = 0, multiplicity = 1:

    O            2.665723440731     0.777977659209     0.167349619264
    C            2.576070492031    -0.405997059471     0.149363878968
    C            1.238652748572    -1.117546542912     0.116353633642
    C            3.803363923082    -1.289201563377     0.158788184748
    C            0.031917536024    -0.189521409823     0.110156081681
    H            1.232563143148    -1.762524873908    -0.759513426635
    H            1.204667386255    -1.790716153612     0.969883502896
    C           -1.282079178214    -0.964569594427     0.072117316703
    H            0.108649252814     0.477927629416    -0.737953720925
    H            0.066352010036     0.440179240589     0.992076205017
    C           -2.575775883022    -0.130319393359     0.151891646365
    H           -1.320904559727    -1.608547727734    -0.802584661619
    H           -1.291338011408    -1.658243518859     0.909799958438
    C           -2.543332857635     1.256599618333    -0.483843455308
    H           -2.900086511955    -0.064214212493     1.186769462032
    H           -3.362083801565    -0.702877324938    -0.334056187117
    C           -3.899686890115     1.952231436269    -0.427467542548
    H           -1.805187336909     1.878387849902     0.010109526509
    H           -2.227582368261     1.172712540245    -1.520281652769
    H           -4.232973410360     2.075685584280     0.597735670174
    H           -3.854565870068     2.935883977487    -0.880491420164
    H           -4.657040122353     1.379948704462    -0.952933108611
    H            3.815700611653    -1.921594792726    -0.722086761650
    H            4.693393612755    -0.679412418163     0.180846609828
    H            3.786926757583    -1.942536778655     1.024181479698

  Mulliken Charges: (a.u.)
   Center  Symbol    Alpha    Beta     Spin     Total
       1     O     4.17088  4.17088  0.00000 -0.34175
       2     C     2.86110  2.86110  0.00000  0.27781
       3     C     3.11606  3.11606  0.00000 -0.23213
       4     C     3.15161  3.15161  0.00000 -0.30322
       5     C     3.08580  3.08580  0.00000 -0.17161
       6     H     0.44539  0.44539  0.00000  0.10921
       7     H     0.44455  0.44455  0.00000  0.11090
       8     C     3.09945  3.09945  0.00000 -0.19889
       9     H     0.44181  0.44181  0.00000  0.11637
      10     H     0.44496  0.44496  0.00000  0.11008
      11     C     3.09119  3.09119  0.00000 -0.18238
      12     H     0.45282  0.45282  0.00000  0.09437
      13     H     0.45324  0.45324  0.00000  0.09352
      14     C     3.09002  3.09002  0.00000 -0.18004
      15     H     0.45223  0.45223  0.00000  0.09554
      16     H     0.45297  0.45297  0.00000  0.09405
      17     C     3.15124  3.15124  0.00000 -0.30247
      18     H     0.44727  0.44727  0.00000  0.10546
      19     H     0.45307  0.45307  0.00000  0.09386
      20     H     0.45528  0.45528  0.00000  0.08944
      21     H     0.44763  0.44763  0.00000  0.10475
      22     H     0.45530  0.45530  0.00000  0.08940
      23     H     0.45049  0.45049  0.00000  0.09902
      24     H     0.43537  0.43537  0.00000  0.12926
      25     H     0.45028  0.45028  0.00000  0.09944

   Total alpha = 36.00000, Total beta = 36.00000, Total charge = -0.00000

*** Psi4 exiting successfully. Buy a developer a beer!
