  ==> Input File <==

--------------------------------------------------------------------------
set {
	reference rhf
	basis cc-pvtz
}

set_num_threads( 4 )
memory 2 gb

molecule MOL {
0 1

H	 -3.062982	 0.149778	 -0.339742
O	 -2.346257	 -0.289210	 0.080372
C	 -1.183935	 0.486039	 -0.009831
C	 0.062853	 -0.375310	 0.027457
H	 -1.178881	 1.094526	 -0.908634
H	 -1.184406	 1.155156	 0.838676
O	 1.172093	 0.457955	 -0.054438
H	 0.052476	 -1.081302	 -0.804627
H	 0.076323	 -0.955658	 0.947560
C	 2.395478	 -0.199028	 -0.000366
H	 2.505946	 -0.901710	 -0.823354
H	 3.174616	 0.545641	 -0.071768
H	 2.513730	 -0.742241	 0.934223

	symmetry c1
}
set optking {
	frozen_dihedral = ("
		1 2 3 5
	")
}

ee = optimize('scf')
oeprop('DIPOLE', 'QUADRUPOLE', 'MULLIKEN_CHARGES')
f=open( 'psi4out.xyz', 'w' )
f.write( "13  " )
f.write( str(ee) + "\n" )
f.write( MOL.save_string_xyz() )
f.close()
--------------------------------------------------------------------------

    Molecular point group: c1
  Charge       = 0
  Multiplicity = 1
  Basis Set: CC-PVTZ
  Basis Set:
  @DF-RHF Final Energy:  -268.06097968091433
    Total Energy =                       -268.0609796809142722
    Molecular point group: c1
  Basis Set: CC-PVTZ
  Basis Set:
  Basis Set: CC-PVTZ
  Basis Set:
  @DF-RHF Final Energy:  -268.06190732465905
    Total Energy =                       -268.0619073246591597
  Basis Set: CC-PVTZ
  Basis Set:
  Basis Set: CC-PVTZ
  Basis Set:
  @DF-RHF Final Energy:  -268.06216070450955
    Total Energy =                       -268.0621607045097221
  Basis Set: CC-PVTZ
  Basis Set:
  Basis Set: CC-PVTZ
  Basis Set:
  @DF-RHF Final Energy:  -268.06216919203746
    Total Energy =                       -268.0621691920373451
  Basis Set: CC-PVTZ
  Basis Set:
  Charge       = 0
  Multiplicity = 1
  Basis Set: CC-PVTZ
  Basis Set:

    Orbital Energies (a.u.)
    -----------------------

    Doubly Occupied:

       1A    -20.552605     2A    -20.551543     3A    -11.267560
       4A    -11.265091     5A    -11.264863     6A     -1.388739
       7A     -1.367850     8A     -1.019582     9A     -0.911958
      10A     -0.832638    11A     -0.713929    12A     -0.683802
      13A     -0.644082    14A     -0.640449    15A     -0.615214
      16A     -0.554454    17A     -0.541747    18A     -0.496404
      19A     -0.473980    20A     -0.443034    21A     -0.421131

  @DF-RHF Final Energy:  -268.06217004800419

   => Energetics <=

    Nuclear Repulsion Energy =            190.6319548709138871
    One-Electron Energy =                -744.0869377684804249
    Two-Electron Energy =                 285.3928128495625174
    DFT Exchange-Correlation Energy =       0.0000000000000000
    Empirical Dispersion Energy =           0.0000000000000000
    PCM Polarization Energy =               0.0000000000000000
    EFP Energy =                            0.0000000000000000
    Total Energy =                       -268.0621700480040204
    Molecular point group: c1
  Basis Set: CC-PVTZ
  Basis Set:

  -Total Gradient:
     Atom            X                  Y                   Z
    ------   -----------------  -----------------  -----------------
       1        0.000295919091    -0.000579470516    -0.001009577182
       2       -0.000497566905     0.000970367715     0.001364231319
       3        0.000719939980    -0.001182579016    -0.000811710483
       4       -0.000025415014    -0.000015923799     0.000022472560
       5       -0.000507906872     0.000759843418     0.000480962491
       6        0.000000430467    -0.000009856076    -0.000006901847
       7        0.000043474947     0.000016942527    -0.000018882821
       8       -0.000005109104     0.000006661074    -0.000013991352
       9       -0.000021660414     0.000023382965    -0.000010134506
      10       -0.000002299871     0.000013907120     0.000008149917
      11       -0.000004662325     0.000001671263     0.000000978062
      12        0.000008677699    -0.000002346703    -0.000003855427
      13       -0.000003821686    -0.000002599971    -0.000001740730

  **** Optimization is complete! (in 5 steps) ****
    Final optimized geometry and variables:
    Molecular point group: c1

    Geometry (in Angstrom), charge = 0, multiplicity = 1:

    H           -3.037858776134     0.051148650906    -0.347969841706
    O           -2.302214057319    -0.329161934051     0.092544054322
    C           -1.178549777019     0.501800614712    -0.023766858689
    C            0.054410199296    -0.372171483527     0.006843376387
    H           -1.198619471918     1.071065720495    -0.947114533360
    H           -1.136856355241     1.209560102907     0.797895225288
    O            1.173027800966     0.452930043927    -0.045394763227
    H            0.037656263257    -1.058997014253    -0.836776683356
    H            0.052010283745    -0.967687166839     0.917440392920
    C            2.387359777432    -0.221173047478    -0.010508198046
    H            2.490525010386    -0.898699479817    -0.855110408871
    H            3.176540388098     0.515055227433    -0.056442577370
    H            2.496661468690    -0.795738032534     0.906409279796

  Mulliken Charges: (a.u.)
   Center  Symbol    Alpha    Beta     Spin     Total
       1     H     0.39086  0.39086  0.00000  0.21828
       2     O     4.20264  4.20264  0.00000 -0.40529
       3     C     2.96621  2.96621  0.00000  0.06757
       4     C     2.96214  2.96214  0.00000  0.07573
       5     H     0.47084  0.47084  0.00000  0.05833
       6     H     0.46888  0.46888  0.00000  0.06225
       7     O     4.17641  4.17641  0.00000 -0.35282
       8     H     0.47252  0.47252  0.00000  0.05496
       9     H     0.47035  0.47035  0.00000  0.05930
      10     C     3.03097  3.03097  0.00000 -0.06193
      11     H     0.47086  0.47086  0.00000  0.05827
      12     H     0.44703  0.44703  0.00000  0.10594
      13     H     0.47029  0.47029  0.00000  0.05941

   Total alpha = 21.00000, Total beta = 21.00000, Total charge =  0.00000
