  ==> Input File <==

--------------------------------------------------------------------------
set {
	reference rhf
	basis 6-31G*
}

set_num_threads( 1 )
memory 2 gb

molecule MOL {
0 1

H	 -2.121454	 0.569162	 0.801659
N	 -1.852125	 0.165761	 -0.074816
C	 -0.563778	 -0.502042	 0.037919
H	 -1.801618	 0.917261	 -0.736218
C	 0.575259	 0.508231	 -0.048326
H	 -0.482092	 -1.204004	 -0.786564
H	 -0.460411	 -1.085169	 0.956626
C	 1.954651	 -0.143624	 0.035137
H	 0.475158	 1.060484	 -0.977307
H	 0.469181	 1.234488	 0.755973
H	 2.103292	 -0.853109	 -0.774172
H	 2.742821	 0.599562	 -0.030094
H	 2.083613	 -0.679371	 0.971560

	symmetry c1
}
set optking {
	frozen_dihedral = ("
		6 3 5 9
	")
}

ee = energy('scf')
oeprop('DIPOLE', 'QUADRUPOLE', 'MULLIKEN_CHARGES')
f=open( 'psi4out.xyz', 'w' )
f.write( "13  " )
f.write( str(ee) + "\n" )
f.write( MOL.save_string_xyz() )
f.close()
--------------------------------------------------------------------------

    Molecular point group: c1

    Geometry (in Angstrom), charge = 0, multiplicity = 1:

       Center              X                  Y                   Z               Mass
    ------------   -----------------  -----------------  -----------------  -----------------
           H         -2.133137277576     0.548245275299     0.811274327308     1.007825032070
           N         -1.863808277576     0.144844275299    -0.065200672692    14.003074004780
           C         -0.575461277576    -0.522958724701     0.047534327308    12.000000000000
           H         -1.813301277576     0.896344275299    -0.726602672692     1.007825032070
           C          0.563575722424     0.487314275299    -0.038710672692    12.000000000000
           H         -0.493775277576    -1.224920724701    -0.776948672692     1.007825032070
           H         -0.472094277576    -1.106085724701     0.966241327308     1.007825032070
           C          1.942967722424    -0.164540724701     0.044752327308    12.000000000000
           H          0.463474722424     1.039567275299    -0.967691672692     1.007825032070
           H          0.457497722424     1.213571275299     0.765588327308     1.007825032070
           H          2.091608722424    -0.874025724701    -0.764556672692     1.007825032070
           H          2.731137722424     0.578645275299    -0.020478672692     1.007825032070
           H          2.071929722424    -0.700287724701     0.981175327308     1.007825032070

  Charge       = 0
  Multiplicity = 1
  Basis Set: 6-31G*
  Basis Set:

    Orbital Energies (a.u.)
    -----------------------

    Doubly Occupied:

       1A    -15.531080     2A    -11.240931     3A    -11.215638
       4A    -11.211607     5A     -1.178699     6A     -1.036506
       7A     -0.899304     8A     -0.808318     9A     -0.676287
      10A     -0.608536    11A     -0.604862    12A     -0.563521
      13A     -0.531620    14A     -0.509219    15A     -0.488492
      16A     -0.472448    17A     -0.373959

  @DF-RHF Final Energy:  -173.27914883140235

   => Energetics <=

    Nuclear Repulsion Energy =            132.2243337862288115
    One-Electron Energy =                -495.1049024566819980
    Two-Electron Energy =                 189.6014198390510614
    DFT Exchange-Correlation Energy =       0.0000000000000000
    Empirical Dispersion Energy =           0.0000000000000000
    PCM Polarization Energy =               0.0000000000000000
    EFP Energy =                            0.0000000000000000
    Total Energy =                       -173.2791488314020967

  Mulliken Charges: (a.u.)
   Center  Symbol    Alpha    Beta     Spin     Total
       1     H     0.33451  0.33451  0.00000  0.33099
       2     N     3.91986  3.91986  0.00000 -0.83973
       3     C     3.05927  3.05927  0.00000 -0.11854
       4     H     0.33354  0.33354  0.00000  0.33292
       5     C     3.15913  3.15913  0.00000 -0.31827
       6     H     0.41859  0.41859  0.00000  0.16282
       7     H     0.42008  0.42008  0.00000  0.15984
       8     C     3.24409  3.24409  0.00000 -0.48818
       9     H     0.42539  0.42539  0.00000  0.14922
      10     H     0.42566  0.42566  0.00000  0.14869
      11     H     0.42027  0.42027  0.00000  0.15946
      12     H     0.41831  0.41831  0.00000  0.16338
      13     H     0.42130  0.42130  0.00000  0.15740

   Total alpha = 17.00000, Total beta = 17.00000, Total charge =  0.00000
