  ==> Input File <==

--------------------------------------------------------------------------
set {
	reference rhf
	basis 6-31G*
}

set_num_threads( 1 )
memory 2 gb

molecule MOL {
0 1

H	 2.551573	 -0.334518	 -0.594006
C	 1.951159	 -0.223429	 0.317018
C	 0.692068	 0.589600	 0.160137
O	 2.308637	 -0.726789	 1.332384
C	 -0.558097	 -0.297372	 0.091132
H	 0.791645	 1.202255	 -0.728243
H	 0.616171	 1.253469	 1.020572
C	 -1.850991	 0.512573	 -0.019058
H	 -0.476753	 -0.965681	 -0.762987
H	 -0.604799	 -0.930658	 0.975228
C	 -3.096943	 -0.368295	 -0.099594
H	 -1.800724	 1.150330	 -0.898172
H	 -1.931651	 1.177355	 0.838044
H	 -3.060452	 -1.020287	 -0.967456
H	 -3.996858	 0.233488	 -0.175704
H	 -3.191959	 -0.995686	 0.782074

	symmetry c1
}
set optking {
	frozen_dihedral = ("
		9 5 8 12,
		6 3 5 9
	")
}

ee = energy('scf')
oeprop('DIPOLE', 'QUADRUPOLE', 'MULLIKEN_CHARGES')
f=open( 'psi4out.xyz', 'w' )
f.write( "16  " )
f.write( str(ee) + "\n" )
f.write( MOL.save_string_xyz() )
f.close()
--------------------------------------------------------------------------

    Molecular point group: c1

    Geometry (in Angstrom), charge = 0, multiplicity = 1:

       Center              X                  Y                   Z               Mass
    ------------   -----------------  -----------------  -----------------  -----------------
           H          2.651695854194    -0.238182385895    -0.898309234185     1.007825032070
           C          2.051281854194    -0.127093385895     0.012714765815    12.000000000000
           C          0.792190854194     0.685935614105    -0.144166234185    12.000000000000
           O          2.408759854194    -0.630453385895     1.028080765815    15.994914619560
           C         -0.457974145806    -0.201036385895    -0.213171234185    12.000000000000
           H          0.891767854194     1.298590614105    -1.032546234185     1.007825032070
           H          0.716293854194     1.349804614105     0.716268765815     1.007825032070
           C         -1.750868145806     0.608908614105    -0.323361234185    12.000000000000
           H         -0.376630145806    -0.869345385895    -1.067290234185     1.007825032070
           H         -0.504676145806    -0.834322385895     0.670924765815     1.007825032070
           C         -2.996820145806    -0.271959385895    -0.403897234185    12.000000000000
           H         -1.700601145806     1.246665614105    -1.202475234185     1.007825032070
           H         -1.831528145806     1.273690614105     0.533740765815     1.007825032070
           H         -2.960329145806    -0.923951385895    -1.271759234185     1.007825032070
           H         -3.896735145806     0.329823614105    -0.480007234185     1.007825032070
           H         -3.091836145806    -0.899350385895     0.477770765815     1.007825032070

  Charge       = 0
  Multiplicity = 1
  Basis Set: 6-31G*
  Basis Set:

    Orbital Energies (a.u.)
    -----------------------

    Doubly Occupied:

       1A    -20.562681     2A    -11.326677     3A    -11.235044
       4A    -11.233929     5A    -11.226923     6A    -11.216487
       7A     -1.402687     8A     -1.093498     9A     -1.017243
      10A     -0.907390    11A     -0.813093    12A     -0.784400
      13A     -0.681934    14A     -0.645174    15A     -0.628774
      16A     -0.602206    17A     -0.577496    18A     -0.551193
      19A     -0.526109    20A     -0.509658    21A     -0.485050
      22A     -0.479942    23A     -0.474541    24A     -0.407979

  @DF-RHF Final Energy:  -270.01834233793500

   => Energetics <=

    Nuclear Repulsion Energy =            230.2837914834938431
    One-Electron Energy =                -821.8241539909016637
    Two-Electron Energy =                 321.5220201694728530
    DFT Exchange-Correlation Energy =       0.0000000000000000
    Empirical Dispersion Energy =           0.0000000000000000
    PCM Polarization Energy =               0.0000000000000000
    EFP Energy =                            0.0000000000000000
    Total Energy =                       -270.0183423379349961

  Mulliken Charges: (a.u.)
   Center  Symbol    Alpha    Beta     Spin     Total
       1     H     0.43015  0.43015  0.00000  0.13971
       2     C     2.83982  2.83982  0.00000  0.32036
       3     C     3.20111  3.20111  0.00000 -0.40222
       4     O     4.23639  4.23639  0.00000 -0.47277
       5     C     3.16004  3.16004  0.00000 -0.32008
       6     H     0.41553  0.41553  0.00000  0.16894
       7     H     0.40121  0.40121  0.00000  0.19759
       8     C     3.15226  3.15226  0.00000 -0.30453
       9     H     0.41906  0.41906  0.00000  0.16187
      10     H     0.40670  0.40670  0.00000  0.18660
      11     C     3.24059  3.24059  0.00000 -0.48118
      12     H     0.42169  0.42169  0.00000  0.15662
      13     H     0.41922  0.41922  0.00000  0.16157
      14     H     0.42050  0.42050  0.00000  0.15899
      15     H     0.41695  0.41695  0.00000  0.16610
      16     H     0.41879  0.41879  0.00000  0.16243

   Total alpha = 24.00000, Total beta = 24.00000, Total charge = -0.00000
