  ==> Input File <==

--------------------------------------------------------------------------
set {
	reference rhf
	basis cc-pvtz
}

set_num_threads( 4 )
memory 2 gb

molecule MOL {
0 1

H	 2.646708	 0.758099	 0.000000
O	 2.258158	 -0.097743	 0.000000
C	 0.911162	 -0.015915	 0.000000
C	 0.246402	 -0.396394	 -1.154180
C	 0.196374	 0.427440	 1.096784
H	 0.817139	 -0.737722	 -1.995164
C	 -1.129278	 -0.329618	 -1.200238
H	 0.712134	 0.722749	 1.992571
C	 -1.184560	 0.489269	 1.036284
H	 -1.639109	 -0.625763	 -2.097328
C	 -1.856556	 0.112943	 -0.107713
H	 -1.731971	 0.834775	 1.892610
H	 -2.926880	 0.162155	 -0.151066

	symmetry c1
}
set optking {
	frozen_dihedral = ("
		4 3 2 1
	")
}

ee = optimize('scf')
oeprop('DIPOLE', 'QUADRUPOLE', 'MULLIKEN_CHARGES')
f=open( 'psi4out.xyz', 'w' )
f.write( "13  " )
f.write( str(ee) + "\n" )
f.write( MOL.save_string_xyz() )
f.close()
--------------------------------------------------------------------------

    Molecular point group: c1
  Charge       = 0
  Multiplicity = 1
  Basis Set: CC-PVTZ
  Basis Set:
  @DF-RHF Final Energy:  -305.66612701028265
    Total Energy =                       -305.6661270102824233
    Molecular point group: c1
  Basis Set: CC-PVTZ
  Basis Set:
  Basis Set: CC-PVTZ
  Basis Set:
  @DF-RHF Final Energy:  -305.66661139264750
    Total Energy =                       -305.6666113926477237
  Basis Set: CC-PVTZ
  Basis Set:
  Basis Set: CC-PVTZ
  Basis Set:
  @DF-RHF Final Energy:  -305.66665907228088
    Total Energy =                       -305.6666590722808223
  Basis Set: CC-PVTZ
  Basis Set:
  Basis Set: CC-PVTZ
  Basis Set:
  @DF-RHF Final Energy:  -305.66666416036901
    Total Energy =                       -305.6666641603694643
  Basis Set: CC-PVTZ
  Basis Set:
  Charge       = 0
  Multiplicity = 1
  Basis Set: CC-PVTZ
  Basis Set:

    Orbital Energies (a.u.)
    -----------------------

    Doubly Occupied:

       1A    -20.572256     2A    -11.289641     3A    -11.233806
       4A    -11.233132     5A    -11.226164     6A    -11.225235
       7A    -11.224387     8A     -1.399406     9A     -1.153307
      10A     -1.022431    11A     -1.008359    12A     -0.840897
      13A     -0.828312    14A     -0.738509    15A     -0.684719
      16A     -0.651796    17A     -0.631284    18A     -0.597240
      19A     -0.592060    20A     -0.528885    21A     -0.517649
      22A     -0.498148    23A     -0.473138    24A     -0.342024
      25A     -0.328039

  @DF-RHF Final Energy:  -305.66666512396438

   => Energetics <=

    Nuclear Repulsion Energy =            273.3567898974153536
    One-Electron Energy =                -956.3652595200401265
    Two-Electron Energy =                 377.3418044986605082
    DFT Exchange-Correlation Energy =       0.0000000000000000
    Empirical Dispersion Energy =           0.0000000000000000
    PCM Polarization Energy =               0.0000000000000000
    EFP Energy =                            0.0000000000000000
    Total Energy =                       -305.6666651239642079
    Molecular point group: c1
  Basis Set: CC-PVTZ
  Basis Set:

  -Total Gradient:
     Atom            X                  Y                   Z
    ------   -----------------  -----------------  -----------------
       1        0.000050675370    -0.000005932371    -0.001471030404
       2        0.000145203343     0.000497152710     0.001608873750
       3       -0.000340293805    -0.001444813474     0.000407124053
       4        0.000052386088     0.000968358789    -0.000473794014
       5        0.000170446248    -0.000009658943    -0.000050405916
       6       -0.000012943613    -0.000000800732     0.000021202763
       7        0.000084206274     0.000011604375    -0.000052769394
       8        0.000016981453    -0.000009282517     0.000007049647
       9       -0.000141998670    -0.000007877925    -0.000094742727
      10       -0.000029433033     0.000000526986     0.000012567474
      11        0.000000960031     0.000020306151     0.000127385514
      12        0.000011681737    -0.000009688140    -0.000011093610
      13       -0.000007871420    -0.000009894906    -0.000030367133

  **** Optimization is complete! (in 5 steps) ****
    Final optimized geometry and variables:
    Molecular point group: c1

    Geometry (in Angstrom), charge = 0, multiplicity = 1:

    H            2.655976872736     0.723623031446     0.072261144246
    O            2.267065695317    -0.133106830719     0.073591197268
    C            0.904554487771    -0.041026580890     0.032310044855
    C            0.239550598983    -0.424240633177    -1.115874041332
    C            0.195509987352     0.399253311105     1.133722250127
    H            0.808025700691    -0.768195300413    -1.957636951211
    C           -1.140665238727    -0.368360472820    -1.158335726421
    H            0.725187270660     0.679353267133     2.024176647905
    C           -1.184159554625     0.460496294689     1.080235259130
    H           -1.655428761226    -0.670114300921    -2.050581377850
    C           -1.857889734252     0.076699018985    -0.063805280857
    H           -1.732302796320     0.802954078737     1.937181883315
    H           -2.929137916759     0.120609928214    -0.100925351715

  Mulliken Charges: (a.u.)
   Center  Symbol    Alpha    Beta     Spin     Total
       1     H     0.38716  0.38716  0.00000  0.22567
       2     O     4.19138  4.19138  0.00000 -0.38276
       3     C     2.87088  2.87088  0.00000  0.25824
       4     C     3.10781  3.10781  0.00000 -0.21563
       5     C     3.11596  3.11596  0.00000 -0.23192
       6     H     0.41631  0.41631  0.00000  0.16737
       7     C     3.06760  3.06760  0.00000 -0.13519
       8     H     0.41943  0.41943  0.00000  0.16115
       9     C     3.06920  3.06920  0.00000 -0.13840
      10     H     0.42165  0.42165  0.00000  0.15670
      11     C     3.08771  3.08771  0.00000 -0.17542
      12     H     0.42179  0.42179  0.00000  0.15642
      13     H     0.42312  0.42312  0.00000  0.15377

   Total alpha = 25.00000, Total beta = 25.00000, Total charge = -0.00000
