  ==> Input File <==

--------------------------------------------------------------------------
set {
	reference rhf
	basis 6-31G*
}

set_num_threads( 1 )
memory 2 gb

molecule MOL {
0 1

H	 2.591676	 2.013956	 0.335017
O	 3.341076	 1.666752	 -0.126416
C	 3.569581	 0.339145	 0.272707
C	 2.539767	 -0.640285	 -0.279495
H	 4.553106	 0.084646	 -0.100901
H	 3.608576	 0.269204	 1.359154
C	 1.115811	 -0.397273	 0.226630
H	 2.556196	 -0.582511	 -1.364741
H	 2.852081	 -1.648031	 -0.010655
C	 1.083779	 0.251055	 1.613520
H	 0.580947	 -1.342498	 0.255541
H	 0.584962	 0.242123	 -0.478857
C	 -0.317652	 0.594558	 2.131533
H	 1.580354	 -0.404443	 2.326670
H	 1.672711	 1.165306	 1.581840
C	 -1.212855	 -0.614072	 2.418419
H	 -0.211329	 1.172318	 3.047342
H	 -0.814157	 1.249827	 1.417430
C	 -2.559964	 -0.225926	 3.031671
H	 -0.694021	 -1.292845	 3.093837
H	 -1.391866	 -1.172926	 1.503029
C	 -3.458055	 -1.430042	 3.313095
H	 -2.390115	 0.321125	 3.956536
H	 -3.075591	 0.459945	 2.362647
H	 -2.983561	 -2.119711	 4.005508
H	 -4.403717	 -1.122642	 3.748827
H	 -3.677196	 -1.977947	 2.400877

	symmetry c1
}
set optking {
	frozen_dihedral = ("
		14 10 7 4,
		14 10 13 16,
		8 4 3 2,
		10 13 16 20,
		20 16 19 22,
		4 3 2 1
	")
}

ee = energy('scf')
oeprop('DIPOLE', 'QUADRUPOLE', 'MULLIKEN_CHARGES')
f=open( 'psi4out.xyz', 'w' )
f.write( "27  " )
f.write( str(ee) + "\n" )
f.write( MOL.save_string_xyz() )
f.close()
--------------------------------------------------------------------------

    Molecular point group: c1

    Geometry (in Angstrom), charge = 0, multiplicity = 1:

       Center              X                  Y                   Z               Mass
    ------------   -----------------  -----------------  -----------------  -----------------
           H          2.103635118965     2.041129845343    -1.051107786757     1.007825032070
           O          2.853035118965     1.693925845343    -1.512540786757    15.994914619560
           C          3.081540118965     0.366318845343    -1.113417786757    12.000000000000
           C          2.051726118965    -0.613111154657    -1.665619786757    12.000000000000
           H          4.065065118965     0.111819845343    -1.487025786757     1.007825032070
           H          3.120535118965     0.296377845343    -0.026970786757     1.007825032070
           C          0.627770118965    -0.370099154657    -1.159494786757    12.000000000000
           H          2.068155118965    -0.555337154657    -2.750865786757     1.007825032070
           H          2.364040118965    -1.620857154657    -1.396779786757     1.007825032070
           C          0.595738118965     0.278228845343     0.227395213243    12.000000000000
           H          0.092906118965    -1.315324154657    -1.130583786757     1.007825032070
           H          0.096921118965     0.269296845343    -1.864981786757     1.007825032070
           C         -0.805692881035     0.621731845343     0.745408213243    12.000000000000
           H          1.092313118965    -0.377269154657     0.940545213243     1.007825032070
           H          1.184670118965     1.192479845343     0.195715213243     1.007825032070
           C         -1.700895881035    -0.586898154657     1.032294213243    12.000000000000
           H         -0.699369881035     1.199491845343     1.661217213243     1.007825032070
           H         -1.302197881035     1.277000845343     0.031305213243     1.007825032070
           C         -3.048004881035    -0.198752154657     1.645546213243    12.000000000000
           H         -1.182061881035    -1.265671154657     1.707712213243     1.007825032070
           H         -1.879906881035    -1.145752154657     0.116904213243     1.007825032070
           C         -3.946095881035    -1.402868154657     1.926970213243    12.000000000000
           H         -2.878155881035     0.348298845343     2.570411213243     1.007825032070
           H         -3.563631881035     0.487118845343     0.976522213243     1.007825032070
           H         -3.471601881035    -2.092537154657     2.619383213243     1.007825032070
           H         -4.891757881035    -1.095468154657     2.362702213243     1.007825032070
           H         -4.165236881035    -1.950773154657     1.014752213243     1.007825032070

  Charge       = 0
  Multiplicity = 1
  Basis Set: 6-31G*
  Basis Set:

    Orbital Energies (a.u.)
    -----------------------

    Doubly Occupied:

       1A    -20.550209     2A    -11.264305     3A    -11.224362
       4A    -11.219683     5A    -11.219048     6A    -11.217924
       7A    -11.216857     8A    -11.214189     9A    -11.210773
      10A     -1.358452    11A     -1.099468    12A     -1.063696
      13A     -1.011869    14A     -0.947180    15A     -0.894769
      16A     -0.830881    17A     -0.799915    18A     -0.774765
      19A     -0.692242    20A     -0.655444    21A     -0.645423
      22A     -0.613459    23A     -0.599584    24A     -0.585030
      25A     -0.573170    26A     -0.563258    27A     -0.544782
      28A     -0.528093    29A     -0.520184    30A     -0.498032
      31A     -0.482410    32A     -0.476295    33A     -0.465922
      34A     -0.458573    35A     -0.455958    36A     -0.443210
      37A     -0.421257

  @DF-RHF Final Energy:  -388.27099135596171

   => Energetics <=

    Nuclear Repulsion Energy =            469.2568983176451525
    One-Electron Energy =               -1456.3744016065199958
    Two-Electron Energy =                 598.8465119329157460
    DFT Exchange-Correlation Energy =       0.0000000000000000
    Empirical Dispersion Energy =           0.0000000000000000
    PCM Polarization Energy =               0.0000000000000000
    EFP Energy =                            0.0000000000000000
    Total Energy =                       -388.2709913559590404

  Mulliken Charges: (a.u.)
   Center  Symbol    Alpha    Beta     Spin     Total
       1     H     0.27370  0.27370  0.00000  0.45261
       2     O     4.37630  4.37630  0.00000 -0.75260
       3     C     3.00559  3.00559  0.00000 -0.01119
       4     C     3.16203  3.16203  0.00000 -0.32406
       5     H     0.41328  0.41328  0.00000  0.17344
       6     H     0.42658  0.42658  0.00000  0.14684
       7     C     3.16261  3.16261  0.00000 -0.32521
       8     H     0.41268  0.41268  0.00000  0.17465
       9     H     0.42345  0.42345  0.00000  0.15310
      10     C     3.16032  3.16032  0.00000 -0.32065
      11     H     0.41493  0.41493  0.00000  0.17014
      12     H     0.41889  0.41889  0.00000  0.16222
      13     C     3.15085  3.15085  0.00000 -0.30169
      14     H     0.41918  0.41918  0.00000  0.16165
      15     H     0.43792  0.43792  0.00000  0.12416
      16     C     3.15348  3.15348  0.00000 -0.30697
      17     H     0.42105  0.42105  0.00000  0.15790
      18     H     0.42326  0.42326  0.00000  0.15348
      19     C     3.15148  3.15148  0.00000 -0.30295
      20     H     0.42419  0.42419  0.00000  0.15162
      21     H     0.42130  0.42130  0.00000  0.15741
      22     C     3.23937  3.23937  0.00000 -0.47874
      23     H     0.42283  0.42283  0.00000  0.15434
      24     H     0.42258  0.42258  0.00000  0.15484
      25     H     0.42169  0.42169  0.00000  0.15661
      26     H     0.41882  0.41882  0.00000  0.16236
      27     H     0.42165  0.42165  0.00000  0.15669

   Total alpha = 37.00000, Total beta = 37.00000, Total charge =  0.00000
