  ==> Input File <==

--------------------------------------------------------------------------
set {
	reference rhf
	basis cc-pvtz
}

set_num_threads( 4 )
memory 2 gb

molecule MOL {
0 1

H	 0.935579	 1.508002	 -0.422717
O	 0.057669	 1.301365	 -0.158528
C	 0.004145	 -0.005141	 0.363049
C	 1.199168	 -0.827145	 -0.096690
C	 -1.316386	 -0.602081	 -0.083515
H	 0.012026	 0.043363	 1.450619
H	 1.216685	 -0.896776	 -1.178167
H	 2.129940	 -0.372354	 0.228035
H	 1.160783	 -1.829622	 0.314294
H	 -1.357882	 -0.655920	 -1.165207
H	 -2.140147	 0.011735	 0.257253
H	 -1.440790	 -1.601175	 0.317669

	symmetry c1
}
set optking {
	frozen_dihedral = ("
		1 2 3 4
	")
}

ee = optimize('scf')
oeprop('DIPOLE', 'QUADRUPOLE', 'MULLIKEN_CHARGES')
f=open( 'psi4out.xyz', 'w' )
f.write( "12  " )
f.write( str(ee) + "\n" )
f.write( MOL.save_string_xyz() )
f.close()
--------------------------------------------------------------------------

    Molecular point group: c1
  Charge       = 0
  Multiplicity = 1
  Basis Set: CC-PVTZ
  Basis Set:
  @DF-RHF Final Energy:  -193.19441441112389
    Total Energy =                       -193.1944144111238302
    Molecular point group: c1
  Basis Set: CC-PVTZ
  Basis Set:
  Basis Set: CC-PVTZ
  Basis Set:
  @DF-RHF Final Energy:  -193.19453518302981
    Total Energy =                       -193.1945351830300410
  Basis Set: CC-PVTZ
  Basis Set:
  Basis Set: CC-PVTZ
  Basis Set:
  @DF-RHF Final Energy:  -193.19459376819347
    Total Energy =                       -193.1945937681934424
  Basis Set: CC-PVTZ
  Basis Set:
  Charge       = 0
  Multiplicity = 1
  Basis Set: CC-PVTZ
  Basis Set:

    Orbital Energies (a.u.)
    -----------------------

    Doubly Occupied:

       1A    -20.542684     2A    -11.273972     3A    -11.216964
       4A    -11.204992     5A     -1.363377     6A     -1.044138
       7A     -0.943858     8A     -0.809761     9A     -0.683584
      10A     -0.643470    11A     -0.608625    12A     -0.549143
      13A     -0.541657    14A     -0.523849    15A     -0.515065
      16A     -0.470034    17A     -0.430896

  @DF-RHF Final Energy:  -193.19459411242062

   => Energetics <=

    Nuclear Repulsion Energy =            135.7230676096906734
    One-Electron Energy =                -531.1031830765012955
    Two-Electron Energy =                 202.1855213543898628
    DFT Exchange-Correlation Energy =       0.0000000000000000
    Empirical Dispersion Energy =           0.0000000000000000
    PCM Polarization Energy =               0.0000000000000000
    EFP Energy =                            0.0000000000000000
    Total Energy =                       -193.1945941124207309
    Molecular point group: c1
  Basis Set: CC-PVTZ
  Basis Set:

  -Total Gradient:
     Atom            X                  Y                   Z
    ------   -----------------  -----------------  -----------------
       1       -0.000315314857    -0.000593369695    -0.001637926550
       2        0.000639258283     0.000871196678     0.002359876010
       3       -0.000879736174    -0.000570727738    -0.001631142993
       4        0.000572182017     0.000323040936     0.000919001370
       5       -0.000029963397    -0.000020144393    -0.000002804670
       6        0.000018745092    -0.000029532726    -0.000011765377
       7       -0.000019770443     0.000006859493     0.000015741578
       8        0.000021815090     0.000000901586    -0.000009511742
       9       -0.000007216162     0.000009195091     0.000001141765
      10        0.000002213799     0.000003006281     0.000000974833
      11       -0.000002641886    -0.000003226589    -0.000003784433
      12        0.000000428638     0.000002801077     0.000000200209

  **** Optimization is complete! (in 4 steps) ****
    Final optimized geometry and variables:
    Molecular point group: c1

    Geometry (in Angstrom), charge = 0, multiplicity = 1:

    H            0.936577979244     1.533636464561    -0.388014411339
    O            0.059816423364     1.313538137470    -0.135367374636
    C            0.001672475027    -0.004520796368     0.361161787656
    C            1.198167329851    -0.823677252101    -0.095979130133
    C           -1.321469557101    -0.605647783984    -0.074714214960
    H            0.017993321069     0.041914077883     1.447887088220
    H            1.223472906664    -0.895462627302    -1.178426364946
    H            2.126434799948    -0.371713424783     0.239975219519
    H            1.155227066878    -1.827043627214     0.310132467749
    H           -1.360909722271    -0.694808356658    -1.154365872315
    H           -2.140029337111     0.027969523932     0.242097366156
    H           -1.459872438350    -1.588738797357     0.361217860868

  Mulliken Charges: (a.u.)
   Center  Symbol    Alpha    Beta     Spin     Total
       1     H     0.39236  0.39236  0.00000  0.21527
       2     O     4.20911  4.20911  0.00000 -0.41822
       3     C     2.91905  2.91905  0.00000  0.16191
       4     C     3.15607  3.15607  0.00000 -0.31213
       5     C     3.13830  3.13830  0.00000 -0.27659
       6     H     0.46541  0.46541  0.00000  0.06919
       7     H     0.45125  0.45125  0.00000  0.09750
       8     H     0.45384  0.45384  0.00000  0.09231
       9     H     0.45213  0.45213  0.00000  0.09573
      10     H     0.45655  0.45655  0.00000  0.08690
      11     H     0.44617  0.44617  0.00000  0.10765
      12     H     0.45976  0.45976  0.00000  0.08048

   Total alpha = 17.00000, Total beta = 17.00000, Total charge = -0.00000
