  ==> Input File <==

--------------------------------------------------------------------------
set {
	reference rhf
	basis 6-31G*
}

set_num_threads( 4 )
memory 2 gb

molecule MOL {
0 1

O	 2.875748	 1.109241	 0.479205
C	 2.701189	 0.057885	 -0.047330
C	 1.740465	 -0.210407	 -1.180388
O	 3.347903	 -1.046386	 0.304773
C	 0.980258	 1.035402	 -1.630008
H	 2.316087	 -0.649486	 -1.988510
H	 1.056620	 -0.986906	 -0.847067
C	 -0.074040	 0.759703	 -2.707478
H	 1.687557	 1.777135	 -1.988729
H	 0.497083	 1.476541	 -0.764930
C	 0.486979	 0.306167	 -4.058282
H	 -0.647997	 1.671085	 -2.858076
H	 -0.780319	 0.015804	 -2.341701
C	 -0.594261	 0.150615	 -5.129600
H	 1.228509	 1.027637	 -4.398037
H	 1.010396	 -0.640818	 -3.947707
C	 -0.045843	 -0.307289	 -6.482261
H	 -1.114484	 1.098575	 -5.255987
H	 -1.341764	 -0.562688	 -4.785887
C	 -1.131465	 -0.456481	 -7.547563
H	 0.701994	 0.403858	 -6.826720
H	 0.470753	 -1.256846	 -6.358773
H	 -0.711903	 -0.782045	 -8.494443
H	 -1.644029	 0.485796	 -7.719570
H	 -1.877315	 -1.187259	 -7.247652
C	 4.728119	 -1.109107	 -0.004993
H	 4.882018	 -1.033965	 -1.071845
H	 5.068212	 -2.067527	 0.355250
H	 5.265056	 -0.311663	 0.488280

	symmetry c1
}
set optking {
	frozen_dihedral = ("
		1 2 4 26
	")
}

ee = optimize('scf')
oeprop('DIPOLE', 'QUADRUPOLE', 'MULLIKEN_CHARGES')
f=open( 'psi4out.xyz', 'w' )
f.write( "29  " )
f.write( str(ee) + "\n" )
f.write( MOL.save_string_xyz() )
f.close()
--------------------------------------------------------------------------

    Molecular point group: c1
  Charge       = 0
  Multiplicity = 1
  Basis Set: 6-31G*
  Basis Set:
  @DF-RHF Final Energy:  -501.02627427662878
    Total Energy =                       -501.0262742766292376
    Molecular point group: c1
  Basis Set: 6-31G*
  Basis Set:
  Basis Set: 6-31G*
  Basis Set:
  @DF-RHF Final Energy:  -501.02393801738253
    Total Energy =                       -501.0239380173829886
  Basis Set: 6-31G*
  Basis Set:
  Basis Set: 6-31G*
  Basis Set:
  @DF-RHF Final Energy:  -501.02723766997974
    Total Energy =                       -501.0272376699789447
  Basis Set: 6-31G*
  Basis Set:
  Basis Set: 6-31G*
  Basis Set:
  @DF-RHF Final Energy:  -501.02739503342525
    Total Energy =                       -501.0273950334251367
  Basis Set: 6-31G*
  Basis Set:
  Basis Set: 6-31G*
  Basis Set:
  @DF-RHF Final Energy:  -501.02740067715831
    Total Energy =                       -501.0274006771583117
  Basis Set: 6-31G*
  Basis Set:
  Charge       = 0
  Multiplicity = 1
  Basis Set: 6-31G*
  Basis Set:

    Orbital Energies (a.u.)
    -----------------------

    Doubly Occupied:

       1A    -20.586723     2A    -20.555460     3A    -11.374445
       4A    -11.288760     5A    -11.237395     6A    -11.220931
       7A    -11.219266     8A    -11.217939     9A    -11.217409
      10A    -11.215987    11A    -11.210283    12A     -1.459527
      13A     -1.365759    14A     -1.099494    15A     -1.067307
      16A     -1.016851    17A     -0.975388    18A     -0.934657
      19A     -0.865533    20A     -0.801638    21A     -0.792351
      22A     -0.761916    23A     -0.699536    24A     -0.678131
      25A     -0.670219    26A     -0.652909    27A     -0.626731
      28A     -0.616572    29A     -0.597086    30A     -0.587180
      31A     -0.569511    32A     -0.547407    33A     -0.542036
      34A     -0.530803    35A     -0.517329    36A     -0.502486
      37A     -0.500372    38A     -0.479762    39A     -0.472894
      40A     -0.463898    41A     -0.463534    42A     -0.450903
      43A     -0.442259    44A     -0.432872

  @DF-RHF Final Energy:  -501.02740041139521

   => Energetics <=

    Nuclear Repulsion Energy =            611.2149470356652046
    One-Electron Energy =               -1893.4257911826900909
    Two-Electron Energy =                 781.1834437356296803
    DFT Exchange-Correlation Energy =       0.0000000000000000
    Empirical Dispersion Energy =           0.0000000000000000
    PCM Polarization Energy =               0.0000000000000000
    EFP Energy =                            0.0000000000000000
    Total Energy =                       -501.0274004113953197
    Molecular point group: c1
  Basis Set: 6-31G*
  Basis Set:

  -Total Gradient:
     Atom            X                  Y                   Z
    ------   -----------------  -----------------  -----------------
       1       -0.005413759885    -0.001441490704     0.004330354869
       2        0.007565455427     0.000929960470    -0.008684951617
       3        0.000080865388    -0.000015295450    -0.000003430928
       4       -0.001312799182     0.002854280392     0.009347516513
       5       -0.000028452373    -0.000011950707     0.000038384932
       6       -0.000016336844    -0.000020154150    -0.000022772816
       7       -0.000004328031     0.000006146582     0.000007678403
       8       -0.000017609290     0.000051195328    -0.000011766903
       9       -0.000018676360     0.000015922747     0.000009801405
      10        0.000007331203    -0.000027212786     0.000001273959
      11        0.000021528544    -0.000002008393     0.000014873357
      12        0.000007517480     0.000006475394    -0.000025683391
      13       -0.000024085395     0.000024462381    -0.000000060937
      14       -0.000003225873    -0.000021629561     0.000004503927
      15       -0.000017259189    -0.000002256728    -0.000003708149
      16        0.000043501202    -0.000014304698     0.000024756577
      17        0.000000661515    -0.000001064136     0.000000362484
      18        0.000005248719    -0.000000646852     0.000003026380
      19       -0.000006431309    -0.000001691191    -0.000002219545
      20       -0.000000265048    -0.000001284527     0.000000244725
      21        0.000000367945     0.000000537552     0.000000751462
      22       -0.000000500775     0.000001736011    -0.000000827196
      23       -0.000000109831    -0.000000574833     0.000000030497
      24        0.000000540427     0.000000240252    -0.000000436298
      25       -0.000000830571     0.000000186339     0.000000182706
      26       -0.000877131150    -0.002307534676    -0.005057497741
      27       -0.000008541222    -0.000000620623     0.000017347108
      28        0.000016142653    -0.000001312326     0.000010391059
      29        0.000001181819    -0.000020111104     0.000001875150

  **** Optimization is complete! (in 6 steps) ****
    Final optimized geometry and variables:
    Molecular point group: c1

    Geometry (in Angstrom), charge = 0, multiplicity = 1:

    O            1.492879747630     1.089244126260     2.979694463234
    C            1.335574705035     0.048883862779     2.439202830529
    C            0.367735544495    -0.211883154683     1.312481933355
    O            1.959872375041    -1.076724733343     2.848919696889
    C           -0.420898999553     1.022962831817     0.883715145816
    H            0.941320712904    -0.634300552363     0.491924900610
    H           -0.294476338268    -1.008010401566     1.644113721348
    C           -1.481261240384     0.740257488159    -0.185971193032
    H            0.267927425006     1.783027578703     0.526770480877
    H           -0.903113209367     1.443790294087     1.759446662845
    C           -0.926438649858     0.305037623443    -1.545340851749
    H           -2.069793499508     1.644197031549    -0.324278248152
    H           -2.172972464783    -0.016574916267     0.180821490196
    C           -2.015756491333     0.137576460846    -2.606648005818
    H           -0.200890222856     1.041270100610    -1.888108837727
    H           -0.385955894569    -0.633734959064    -1.446238251537
    C           -1.473576304514    -0.302613029618    -3.967672327851
    H           -2.553158731948     1.077304948329    -2.721689296254
    H           -2.747425295889    -0.590382532010    -2.259771782126
    C           -2.567484907823    -0.464179698544    -5.022637304464
    H           -0.741729037804     0.423437384724    -4.315445462923
    H           -0.939499581032    -1.243900840497    -3.855403110121
    H           -2.152251065502    -0.777043135737    -5.975674556080
    H           -3.097723243489     0.470181489313    -5.183732441998
    H           -3.297611001573    -1.209292472655    -4.719419947572
    C            3.354559379065    -1.144519720704     2.632114215156
    H            3.574776441093    -1.162788677048     1.569860554822
    H            3.691726414951    -2.065712955701     3.081222948322
    H            3.857112794869    -0.306177057377     3.095642856777

  Mulliken Charges: (a.u.)
   Center  Symbol    Alpha    Beta     Spin     Total
       1     O     4.25910  4.25910  0.00000 -0.51820
       2     C     2.60985  2.60985  0.00000  0.78031
       3     C     3.21270  3.21270  0.00000 -0.42541
       4     O     4.31628  4.31628  0.00000 -0.63256
       5     C     3.15464  3.15464  0.00000 -0.30929
       6     H     0.40515  0.40515  0.00000  0.18970
       7     H     0.39836  0.39836  0.00000  0.20327
       8     C     3.15646  3.15646  0.00000 -0.31293
       9     H     0.41400  0.41400  0.00000  0.17200
      10     H     0.40762  0.40762  0.00000  0.18476
      11     C     3.15502  3.15502  0.00000 -0.31005
      12     H     0.41787  0.41787  0.00000  0.16425
      13     H     0.42319  0.42319  0.00000  0.15363
      14     C     3.15031  3.15031  0.00000 -0.30062
      15     H     0.42299  0.42299  0.00000  0.15402
      16     H     0.42432  0.42432  0.00000  0.15137
      17     C     3.15147  3.15147  0.00000 -0.30294
      18     H     0.42302  0.42302  0.00000  0.15395
      19     H     0.42363  0.42363  0.00000  0.15274
      20     C     3.23938  3.23938  0.00000 -0.47877
      21     H     0.42293  0.42293  0.00000  0.15414
      22     H     0.42371  0.42371  0.00000  0.15258
      23     H     0.41916  0.41916  0.00000  0.16168
      24     H     0.42136  0.42136  0.00000  0.15729
      25     H     0.42163  0.42163  0.00000  0.15674
      26     C     3.09394  3.09394  0.00000 -0.18789
      27     H     0.42184  0.42184  0.00000  0.15632
      28     H     0.40426  0.40426  0.00000  0.19148
      29     H     0.40580  0.40580  0.00000  0.18841

   Total alpha = 44.00000, Total beta = 44.00000, Total charge = -0.00000
