                              Psi4 1.0.54 Driver

  ==> Input File <==

--------------------------------------------------------------------------
set {
	reference rhf
	basis cc-pvtz
}

set_num_threads( 4 )
memory 2 gb

molecule MOL {
0 1

O	 2.868453	 1.353349	 -0.000734
C	 2.841259	 0.166180	 -0.000295
C	 1.542794	 -0.614730	 -0.000853
C	 4.113372	 -0.651103	 0.000743
C	 0.288398	 0.247429	 0.000314
H	 1.557171	 -1.273139	 -0.866508
H	 1.557484	 -1.274998	 0.863344
C	 -0.277663	 0.457642	 1.401919
H	 -0.460180	 -0.213270	 -0.634117
H	 0.515240	 1.205655	 -0.452984
C	 -1.536092	 1.320463	 1.417002
H	 -0.500537	 -0.507594	 1.851275
H	 0.479165	 0.918163	 2.033104
C	 -2.108570	 1.535035	 2.815202
H	 -2.293291	 0.860817	 0.786536
H	 -1.314118	 2.285820	 0.968738
C	 -3.365922	 2.398057	 2.822128
H	 -2.331855	 0.570654	 3.263591
H	 -1.352797	 1.995618	 3.445749
H	 -4.153407	 1.946818	 2.227743
H	 -3.746282	 2.530572	 3.828501
H	 -3.167062	 3.382376	 2.411501
H	 4.145311	 -1.294584	 -0.871587
H	 4.970080	 0.004978	 -0.000091
H	 4.145223	 -1.291980	 0.874988

	symmetry c1
}
set optking {
	frozen_dihedral = ("
		9 5 3 6
	")
}

ee,wfn = optimize('scf', return_wfn=True)
oeprop( wfn, 'DIPOLE', 'QUADRUPOLE', 'MULLIKEN_CHARGES')
f=open( 'psi4out.xyz', 'w' )
f.write( "25  " )
f.write( str(ee) + "\n" )
f.write( MOL.save_string_xyz() )
f.close()
--------------------------------------------------------------------------

    Molecular point group: c1
  Charge       = 0
  Multiplicity = 1
  Basis Set: CC-PVTZ
  Basis Set:
  @DF-RHF Final Energy:  -387.27185740989916
    Total Energy =                       -387.2718574098988711
    Molecular point group: c1
  Basis Set: CC-PVTZ
  Basis Set:
  Basis Set: CC-PVTZ
  Basis Set:
  @DF-RHF Final Energy:  -387.27211646097879
    Total Energy =                       -387.2721164609796460
  Basis Set: CC-PVTZ
  Basis Set:
  Basis Set: CC-PVTZ
  Basis Set:
  @DF-RHF Final Energy:  -387.27214834537398
    Total Energy =                       -387.2721483453742621
  Basis Set: CC-PVTZ
  Basis Set:
  Basis Set: CC-PVTZ
  Basis Set:
  @DF-RHF Final Energy:  -387.27188029599409
    Total Energy =                       -387.2718802959941513
  Basis Set: CC-PVTZ
  Basis Set:
  @DF-RHF Final Energy:  -387.27217464011443
    Total Energy =                       -387.2721746401148266
  @DF-RHF Final Energy:  -387.27217684494440
    Total Energy =                       -387.2721768449445108
  @DF-RHF Final Energy:  -387.27217961134016
    Total Energy =                       -387.2721796113394248
  @DF-RHF Final Energy:  -387.27218262394899
    Total Energy =                       -387.2721826239491065
  Basis Set: CC-PVTZ
  Basis Set:
  @DF-RHF Final Energy:  -387.27218408722234
    Total Energy =                       -387.2721840872222856
  Basis Set: CC-PVTZ
  Basis Set:
  Basis Set: CC-PVTZ
  Basis Set:
  @DF-RHF Final Energy:  -387.27218683433830
    Total Energy =                       -387.2721868343387541
  Basis Set: CC-PVTZ
  Basis Set:
  Basis Set: CC-PVTZ
  Basis Set:
  @DF-RHF Final Energy:  -387.27219057335031
    Total Energy =                       -387.2721905733499170
  Basis Set: CC-PVTZ
  Basis Set:
  Charge       = 0
  Multiplicity = 1
  Basis Set: CC-PVTZ
  Basis Set:

    Orbital Energies (a.u.)
    -----------------------

    Doubly Occupied:

       1A    -20.539789     2A    -11.321851     3A    -11.230305
       4A    -11.227345     5A    -11.214297     6A    -11.210481
       7A    -11.210365     8A    -11.208182     9A    -11.203995
      10A     -1.400066    11A     -1.092121    12A     -1.055773
      13A     -1.014957    14A     -0.968211    15A     -0.890083
      16A     -0.815357    17A     -0.788517    18A     -0.730705
      19A     -0.670082    20A     -0.639527    21A     -0.634974
      22A     -0.623147    23A     -0.592600    24A     -0.584796
      25A     -0.575146    26A     -0.557941    27A     -0.533188
      28A     -0.526405    29A     -0.516393    30A     -0.500262
      31A     -0.482247    32A     -0.473217    33A     -0.461047
      34A     -0.459192    35A     -0.442897    36A     -0.404040

  @DF-RHF Final Energy:  -387.27219141177005

   => Energetics <=

    Nuclear Repulsion Energy =            445.6123897564485219
    One-Electron Energy =               -1408.1701612853571532
    Two-Electron Energy =                 575.2855801171388066
    DFT Exchange-Correlation Energy =       0.0000000000000000
    Empirical Dispersion Energy =           0.0000000000000000
    PCM Polarization Energy =               0.0000000000000000
    EFP Energy =                            0.0000000000000000
    Total Energy =                       -387.2721914117698816
    Molecular point group: c1
  Basis Set: CC-PVTZ
  Basis Set:

  -Total Gradient:
     Atom            X                  Y                   Z
    ------   -----------------  -----------------  -----------------
       1       -0.000080243725    -0.000006283311     0.000008837793
       2        0.000067347185     0.000006627903    -0.000004292943
       3        0.002145467268     0.003243516037    -0.002820941337
       4        0.000070768382     0.000081601904     0.000011384378
       5       -0.001819027306    -0.002746792699     0.003553776440
       6       -0.001477379828    -0.002257986642     0.001770817879
       7        0.000033366283     0.000051635225     0.000037073561
       8        0.000013510174     0.000077366266     0.000044182356
       9        0.001054058626     0.001724503770    -0.002606772078
      10        0.000007322198    -0.000018483819     0.000040408851
      11        0.000002600083    -0.000012450983    -0.000001268867
      12        0.000002488908    -0.000005440945    -0.000013812365
      13       -0.000000275779     0.000010557560     0.000021241966
      14        0.000000127906    -0.000012049454     0.000000886579
      15       -0.000005856427    -0.000003839363    -0.000006143780
      16       -0.000000445586     0.000002336246    -0.000002528774
      17        0.000011377355     0.000006425959    -0.000004398455
      18       -0.000002104843    -0.000004135019     0.000000364826
      19       -0.000001952847    -0.000002182248     0.000002716999
      20        0.000001993846    -0.000003067996     0.000002049027
      21        0.000002293712     0.000001489691     0.000003569904
      22       -0.000002935129     0.000005773013    -0.000004665613
      23       -0.000042189548    -0.000094091744    -0.000212393381
      24        0.000055830347     0.000123677908     0.000033904548
      25       -0.000036141253    -0.000168707260     0.000146002485

  **** Optimization is complete! (in 12 steps) ****
    Final optimized geometry and variables:
    Molecular point group: c1

    Geometry (in Angstrom), charge = 0, multiplicity = 1:

    O            2.388782773203     0.609202624348    -0.781207979857
    C            2.356083550515    -0.570974356886    -0.907900099097
    C            1.057330888952    -1.351906641588    -0.949350310341
    C            3.624424289638    -1.384268864126    -1.034719480159
    C           -0.215786201419    -0.503136640608    -0.945591596126
    H            1.085442077167    -2.022238730862    -1.802984270407
    H            1.073354212973    -2.016818444306    -0.087547591424
    C           -0.776664238750    -0.245700112520     0.449830921208
    H           -0.963856145410    -0.981355144492    -1.569582593681
    H            0.002860236332     0.446364704308    -1.418103247348
    C           -2.014802081759     0.644957156717     0.443338338125
    H           -1.019959508309    -1.195586328657     0.921357526630
    H           -0.005920187730     0.215254810154     1.060774498248
    C           -2.584900941231     0.900385394755     1.835641312782
    H           -2.782272802767     0.190720105874    -0.179679841668
    H           -1.767867109401     1.595633047101    -0.022215870196
    C           -3.819250508414     1.795905114597     1.822977792592
    H           -2.834318747900    -0.049192735069     2.301744693465
    H           -1.818433760557     1.353092558096     2.458505550160
    H           -4.617444103661     1.354186858328     1.235467859807
    H           -4.197984241983     1.957731782425     2.825737780648
    H           -3.593582272511     2.766582275976     1.394181575587
    H            3.678542423805    -1.818996423647    -2.027552194766
    H            4.483306933648    -0.751124963846    -0.872649942464
    H            3.628051600261    -2.202466880074    -0.323293472947

  Mulliken Charges: (a.u.)
   Center  Symbol    Alpha    Beta     Spin     Total
       1     O     4.17283  4.17283  0.00000 -0.34567
       2     C     2.85961  2.85961  0.00000  0.28079
       3     C     3.12449  3.12449  0.00000 -0.24897
       4     C     3.15030  3.15030  0.00000 -0.30060
       5     C     3.09619  3.09619  0.00000 -0.19239
       6     H     0.43462  0.43462  0.00000  0.13075
       7     H     0.44424  0.44424  0.00000  0.11151
       8     C     3.08626  3.08626  0.00000 -0.17252
       9     H     0.44646  0.44646  0.00000  0.10709
      10     H     0.44300  0.44300  0.00000  0.11399
      11     C     3.08906  3.08906  0.00000 -0.17812
      12     H     0.45797  0.45797  0.00000  0.08406
      13     H     0.44863  0.44863  0.00000  0.10275
      14     C     3.08381  3.08381  0.00000 -0.16762
      15     H     0.45669  0.45669  0.00000  0.08662
      16     H     0.45143  0.45143  0.00000  0.09713
      17     C     3.15054  3.15054  0.00000 -0.30108
      18     H     0.45612  0.45612  0.00000  0.08776
      19     H     0.45359  0.45359  0.00000  0.09282
      20     H     0.45590  0.45590  0.00000  0.08819
      21     H     0.44883  0.44883  0.00000  0.10235
      22     H     0.45441  0.45441  0.00000  0.09119
      23     H     0.44915  0.44915  0.00000  0.10169
      24     H     0.43547  0.43547  0.00000  0.12905
      25     H     0.45040  0.45040  0.00000  0.09920

   Total alpha = 36.00000, Total beta = 36.00000, Total charge =  0.00000

*** Psi4 exiting successfully. Buy a developer a beer!
