  ==> Input File <==

--------------------------------------------------------------------------
set {
	reference rhf
	basis 6-31G*
}

set_num_threads( 4 )
memory 2 gb

molecule MOL {
0 1

H	 5.268524	 0.192471	 1.070992
C	 4.673736	 -0.214914	 0.259335
C	 3.185378	 -0.203514	 0.605509
H	 4.871837	 0.380453	 -0.627026
H	 5.025590	 -1.224632	 0.065769
C	 2.317601	 -0.778379	 -0.516234
H	 2.874655	 0.814325	 0.817774
H	 3.023650	 -0.778480	 1.515976
C	 1.803258	 0.274757	 -1.497877
H	 2.880021	 -1.525964	 -1.064361
H	 1.460462	 -1.284856	 -0.078243
C	 2.873474	 0.858713	 -2.408303
H	 1.049847	 -0.166415	 -2.148653
H	 1.300302	 1.083357	 -0.972160
C	 2.553098	 2.159195	 -3.124416
O	 3.921872	 0.310868	 -2.573029
C	 1.368057	 2.054108	 -4.095908
H	 3.448541	 2.456542	 -3.656846
H	 2.340081	 2.921868	 -2.377665
C	 1.135263	 3.352435	 -4.870997
H	 1.551293	 1.243971	 -4.798559
H	 0.461961	 1.796709	 -3.553499
C	 -0.041600	 3.260416	 -5.841271
H	 2.037992	 3.609070	 -5.419887
H	 0.962597	 4.164488	 -4.168038
H	 0.117286	 2.477449	 -6.577100
H	 -0.966859	 3.038717	 -5.317003
H	 -0.180866	 4.194025	 -6.376863

	symmetry c1
}
set optking {
	frozen_dihedral = ("
		10 6 3 2
	")
}

ee = optimize('scf')
oeprop('DIPOLE', 'QUADRUPOLE', 'MULLIKEN_CHARGES')
f=open( 'psi4out.xyz', 'w' )
f.write( "28  " )
f.write( str(ee) + "\n" )
f.write( MOL.save_string_xyz() )
f.close()
--------------------------------------------------------------------------

    Molecular point group: c1
  Charge       = 0
  Multiplicity = 1
  Basis Set: 6-31G*
  Basis Set:
  @DF-RHF Final Energy:  -426.16059065626655
    Total Energy =                       -426.1605906562667769
    Molecular point group: c1
  Basis Set: 6-31G*
  Basis Set:
  Basis Set: 6-31G*
  Basis Set:
  @DF-RHF Final Energy:  -426.16307679427780
    Total Energy =                       -426.1630767942779130
  Basis Set: 6-31G*
  Basis Set:
  Basis Set: 6-31G*
  Basis Set:
  @DF-RHF Final Energy:  -426.16247174250168
    Total Energy =                       -426.1624717425015660
  Basis Set: 6-31G*
  Basis Set:
  Basis Set: 6-31G*
  Basis Set:
  @DF-RHF Final Energy:  -426.16323462719708
    Total Energy =                       -426.1632346271969709
  Basis Set: 6-31G*
  Basis Set:
  @DF-RHF Final Energy:  -426.16380600527430
    Total Energy =                       -426.1638060052742958
  @DF-RHF Final Energy:  -426.16388180089029
    Total Energy =                       -426.1638818008902945
  @DF-RHF Final Energy:  -426.16390650777043
    Total Energy =                       -426.1639065077702071
  @DF-RHF Final Energy:  -426.16392099460063
    Total Energy =                       -426.1639209946006304
  Basis Set: 6-31G*
  Basis Set:
  @DF-RHF Final Energy:  -426.16391232058606
    Total Energy =                       -426.1639123205850410
  Basis Set: 6-31G*
  Basis Set:
  Basis Set: 6-31G*
  Basis Set:
  @DF-RHF Final Energy:  -426.16392908149089
    Total Energy =                       -426.1639290814908918
  Basis Set: 6-31G*
  Basis Set:
  Basis Set: 6-31G*
  Basis Set:
  @DF-RHF Final Energy:  -426.16393162956399
    Total Energy =                       -426.1639316295638764
  Basis Set: 6-31G*
  Basis Set:
  Charge       = 0
  Multiplicity = 1
  Basis Set: 6-31G*
  Basis Set:

    Orbital Energies (a.u.)
    -----------------------

    Doubly Occupied:

       1A    -20.547884     2A    -11.322366     3A    -11.232669
       4A    -11.229889     5A    -11.229092     6A    -11.226265
       7A    -11.217841     8A    -11.216434     9A    -11.215383
      10A    -11.200201    11A     -1.393266    12A     -1.095226
      13A     -1.075185    14A     -1.021622    15A     -0.988862
      16A     -0.908235    17A     -0.876892    18A     -0.809160
      19A     -0.795455    20A     -0.723134    21A     -0.667449
      22A     -0.648866    23A     -0.635574    24A     -0.624532
      25A     -0.599533    26A     -0.588412    27A     -0.580420
      28A     -0.562957    29A     -0.549439    30A     -0.535238
      31A     -0.519044    32A     -0.506602    33A     -0.501961
      34A     -0.484873    35A     -0.478788    36A     -0.475572
      37A     -0.468852    38A     -0.463693    39A     -0.450177
      40A     -0.391994

  @DF-RHF Final Energy:  -426.16393200236644

   => Energetics <=

    Nuclear Repulsion Energy =            538.0749542464984643
    One-Electron Energy =               -1644.3596995291468374
    Two-Electron Energy =                 680.1208132802817090
    DFT Exchange-Correlation Energy =       0.0000000000000000
    Empirical Dispersion Energy =           0.0000000000000000
    PCM Polarization Energy =               0.0000000000000000
    EFP Energy =                            0.0000000000000000
    Total Energy =                       -426.1639320023666642
    Molecular point group: c1
  Basis Set: 6-31G*
  Basis Set:

  -Total Gradient:
     Atom            X                  Y                   Z
    ------   -----------------  -----------------  -----------------
       1        0.000002039174    -0.000003553337    -0.000000239340
       2        0.000169204949    -0.001389043746     0.000658207758
       3       -0.000050377637     0.002336967303    -0.001250900605
       4        0.000002586605     0.000003492245     0.000002124526
       5        0.000001808001     0.000001413641    -0.000001041128
       6       -0.000813163217    -0.002444403816     0.001889320739
       7       -0.000000052454    -0.000002465152    -0.000002328258
       8        0.000000184787     0.000003260420     0.000001903298
       9       -0.000019450706    -0.000015868957    -0.000024700463
      10        0.000702065722     0.001498933115    -0.001294621023
      11        0.000000097366     0.000005372998    -0.000003314347
      12        0.000011356564    -0.000006874039     0.000000372903
      13        0.000003084530     0.000014895439     0.000002113178
      14       -0.000006834871    -0.000001245715     0.000008736928
      15       -0.000053868925    -0.000020110530    -0.000001508475
      16        0.000003952824     0.000031820539     0.000011177821
      17        0.000030578104    -0.000003348663    -0.000020586235
      18       -0.000013358357    -0.000016386845     0.000000621131
      19        0.000019745092     0.000015501429     0.000029686822
      20        0.000017568791    -0.000003783955    -0.000013878805
      21       -0.000001994567    -0.000007232493    -0.000005974302
      22        0.000003345128     0.000003999637    -0.000007997211
      23       -0.000016682927     0.000002646205     0.000026928877
      24        0.000004196251    -0.000008224466    -0.000005236399
      25        0.000005255241     0.000002433461    -0.000005583093
      26        0.000009216844     0.000006465050     0.000002933592
      27       -0.000009770340    -0.000006883633    -0.000004547710
      28       -0.000000731973     0.000002223867     0.000008329817

  **** Optimization is complete! (in 12 steps) ****
    Final optimized geometry and variables:
    Molecular point group: c1

    Geometry (in Angstrom), charge = 0, multiplicity = 1:

    H            2.753874395230    -0.741202152024     3.761716399278
    C            2.279453701207    -1.160457815267     2.879062208062
    C            0.763860468271    -1.244011839003     3.075323449396
    H            2.551066849634    -0.547467563743     2.028803128840
    H            2.699313935716    -2.147744358826     2.713562996670
    C           -0.015098321374    -1.879488015991     1.906559217906
    H            0.364004376549    -0.254163018082     3.286915354368
    H            0.576313890275    -1.833119706369     3.969331353609
    C           -0.537848647372    -0.885558865071     0.862272826009
    H            0.604943952371    -2.609413905822     1.399054753539
    H           -0.874286406775    -2.409547863858     2.306037320373
    C            0.501647449990    -0.367158577468    -0.120829514976
    H           -1.297584517098    -1.373589243771     0.252644637181
    H           -1.038725524849    -0.049269379727     1.342657982888
    C            0.228264708582     0.966403632489    -0.792674107217
    O            1.479728369928    -0.999011474727    -0.386719930736
    C           -1.026516424301     0.957692325770    -1.678803116315
    H            1.102247731070     1.210970708812    -1.384263855066
    H            0.120622430736     1.727707248464    -0.022260829457
    C           -1.235149539472     2.288171405321    -2.404598553242
    H           -0.941362177123     0.157788311585    -2.411129091598
    H           -1.905910403479     0.737922023413    -1.078767469761
    C           -2.481126912955     2.291389280349    -3.289147196523
    H           -0.359696113578     2.506797846676    -3.011108529570
    H           -1.308714106248     3.089227331811    -1.672287247922
    H           -2.421225520857     1.521983681588    -4.053419316746
    H           -3.378451791023     2.108075077733    -2.704925034823
    H           -2.602486423156     3.246398599374    -3.790287914140

  Mulliken Charges: (a.u.)
   Center  Symbol    Alpha    Beta     Spin     Total
       1     H     0.42440  0.42440  0.00000  0.15120
       2     C     3.23775  3.23775  0.00000 -0.47549
       3     C     3.15723  3.15723  0.00000 -0.31445
       4     H     0.41250  0.41250  0.00000  0.17500
       5     H     0.41937  0.41937  0.00000  0.16126
       6     C     3.15547  3.15547  0.00000 -0.31094
       7     H     0.42606  0.42606  0.00000  0.14788
       8     H     0.42022  0.42022  0.00000  0.15955
       9     C     3.21001  3.21001  0.00000 -0.42003
      10     H     0.40263  0.40263  0.00000  0.19473
      11     H     0.41903  0.41903  0.00000  0.16194
      12     C     2.73103  2.73103  0.00000  0.53793
      13     H     0.40310  0.40310  0.00000  0.19380
      14     H     0.41390  0.41390  0.00000  0.17219
      15     C     3.20160  3.20160  0.00000 -0.40319
      16     O     4.26738  4.26738  0.00000 -0.53476
      17     C     3.16401  3.16401  0.00000 -0.32801
      18     H     0.39991  0.39991  0.00000  0.20018
      19     H     0.41319  0.41319  0.00000  0.17362
      20     C     3.15178  3.15178  0.00000 -0.30356
      21     H     0.41337  0.41337  0.00000  0.17325
      22     H     0.41831  0.41831  0.00000  0.16337
      23     C     3.24035  3.24035  0.00000 -0.48071
      24     H     0.41836  0.41836  0.00000  0.16329
      25     H     0.42145  0.42145  0.00000  0.15710
      26     H     0.41955  0.41955  0.00000  0.16090
      27     H     0.42117  0.42117  0.00000  0.15766
      28     H     0.41686  0.41686  0.00000  0.16627

   Total alpha = 40.00000, Total beta = 40.00000, Total charge =  0.00000
