  ==> Input File <==

--------------------------------------------------------------------------
set {
	reference rhf
	basis 6-31G*
}

set_num_threads( 4 )
memory 2 gb

molecule MOL {
0 1

H	 3.463771	 0.168298	 -0.756243
C	 2.752674	 -0.045734	 0.033351
C	 1.322923	 0.120767	 -0.479465
H	 2.934561	 -1.059086	 0.377456
H	 2.958358	 0.631174	 0.856809
C	 0.306652	 -0.176050	 0.621399
H	 1.144658	 -0.551717	 -1.312180
H	 1.166477	 1.131798	 -0.836680
N	 -1.068537	 -0.011044	 0.085269
H	 0.372515	 -1.192590	 0.973735
H	 0.391664	 0.520566	 1.441230
O	 -1.636971	 1.007764	 0.330803
O	 -1.522932	 -0.927151	 -0.529790

	symmetry c1
}
set optking {
	frozen_dihedral = ("
		12 9 6 3
	")
}

ee = optimize('scf')
oeprop('DIPOLE', 'QUADRUPOLE', 'MULLIKEN_CHARGES')
f=open( 'psi4out.xyz', 'w' )
f.write( "13  " )
f.write( str(ee) + "\n" )
f.write( MOL.save_string_xyz() )
f.close()
--------------------------------------------------------------------------

    Molecular point group: c1
  Charge       = 0
  Multiplicity = 1
  Basis Set: 6-31G*
  Basis Set:
  @DF-RHF Final Energy:  -321.73528833062926
    Total Energy =                       -321.7352883306291460
    Molecular point group: c1
  Basis Set: 6-31G*
  Basis Set:
  Basis Set: 6-31G*
  Basis Set:
  @DF-RHF Final Energy:  -321.73088173090753
    Total Energy =                       -321.7308817309074129
  Basis Set: 6-31G*
  Basis Set:
  Basis Set: 6-31G*
  Basis Set:
  @DF-RHF Final Energy:  -321.73547706389297
    Total Energy =                       -321.7354770638928585
  Basis Set: 6-31G*
  Basis Set:
  Basis Set: 6-31G*
  Basis Set:
  @DF-RHF Final Energy:  -321.73535202968833
    Total Energy =                       -321.7353520296884994
  Basis Set: 6-31G*
  Basis Set:
  Basis Set: 6-31G*
  Basis Set:
  @DF-RHF Final Energy:  -321.73557108209451
    Total Energy =                       -321.7355710820942249
  Basis Set: 6-31G*
  Basis Set:
  Basis Set: 6-31G*
  Basis Set:
  @DF-RHF Final Energy:  -321.73558320263044
    Total Energy =                       -321.7355832026305507
  Basis Set: 6-31G*
  Basis Set:
  Charge       = 0
  Multiplicity = 1
  Basis Set: 6-31G*
  Basis Set:

    Orbital Energies (a.u.)
    -----------------------

    Doubly Occupied:

       1A    -20.601612     2A    -20.599314     3A    -15.846862
       4A    -11.299224     5A    -11.257185     6A    -11.240109
       7A     -1.630441     8A     -1.415903     9A     -1.135486
      10A     -1.028547    11A     -0.884208    12A     -0.833171
      13A     -0.758296    14A     -0.734541    15A     -0.722906
      16A     -0.672321    17A     -0.604622    18A     -0.588862
      19A     -0.550944    20A     -0.521707    21A     -0.515036
      22A     -0.483520    23A     -0.473694    24A     -0.447718

  @DF-RHF Final Energy:  -321.73558397596929

   => Energetics <=

    Nuclear Repulsion Energy =            247.4103871083378294
    One-Electron Energy =                -928.5994895264669822
    Two-Electron Energy =                 359.4535184421598615
    DFT Exchange-Correlation Energy =       0.0000000000000000
    Empirical Dispersion Energy =           0.0000000000000000
    PCM Polarization Energy =               0.0000000000000000
    EFP Energy =                            0.0000000000000000
    Total Energy =                       -321.7355839759692344
    Molecular point group: c1
  Basis Set: 6-31G*
  Basis Set:

  -Total Gradient:
     Atom            X                  Y                   Z
    ------   -----------------  -----------------  -----------------
       1       -0.000000083690     0.000014493291     0.000004564000
       2        0.000002768672     0.000046739471     0.000006561950
       3        0.000022968233    -0.000021285614     0.000000510029
       4       -0.000011323755     0.000002518804    -0.000019996949
       5        0.000011256594    -0.000006866373     0.000019827143
       6        0.000027948048    -0.000032389251    -0.000046782274
       7       -0.000001513171    -0.000022916666     0.000009270352
       8        0.000003350398    -0.000017978352    -0.000005822062
       9        0.000042537236    -0.000011890280     0.000143573798
      10        0.000008639019    -0.000000092971     0.000010249614
      11        0.000017013660     0.000001099815    -0.000000148278
      12       -0.000056719329    -0.000007853957    -0.000073357854
      13       -0.000066841910     0.000056422085    -0.000048449467

  **** Optimization is complete! (in 7 steps) ****
    Final optimized geometry and variables:
    Molecular point group: c1

    Geometry (in Angstrom), charge = 0, multiplicity = 1:

    H            3.461385766582     0.168937865001    -0.768502775088
    C            2.753125030704    -0.040215857828     0.024932480167
    C            1.321404588252     0.108428569806    -0.487804700674
    H            2.942417297390    -1.048259318712     0.380714117417
    H            2.955694248744     0.647707668624     0.839882049627
    C            0.309092601869    -0.179270526619     0.619072580408
    H            1.143375210817    -0.573481998618    -1.310884711589
    H            1.160605213937     1.116018430817    -0.857065513926
    N           -1.068285489669    -0.008919829926     0.089919936510
    H            0.371702612202    -1.200889029209     0.961346847186
    H            0.401358617552     0.507604668795     1.444599577460
    O           -1.630540292298     1.013439237401     0.334845468247
    O           -1.506584372435    -0.898218083424    -0.574237143641

  Mulliken Charges: (a.u.)
   Center  Symbol    Alpha    Beta     Spin     Total
       1     H     0.40726  0.40726  0.00000  0.18547
       2     C     3.24812  3.24812  0.00000 -0.49624
       3     C     3.17310  3.17310  0.00000 -0.34619
       4     H     0.41462  0.41462  0.00000  0.17077
       5     H     0.41462  0.41462  0.00000  0.17076
       6     C     3.08277  3.08277  0.00000 -0.16553
       7     H     0.39671  0.39671  0.00000  0.20657
       8     H     0.40122  0.40122  0.00000  0.19757
       9     N     3.22395  3.22395  0.00000  0.55209
      10     H     0.38897  0.38897  0.00000  0.22205
      11     H     0.38776  0.38776  0.00000  0.22448
      12     O     4.22949  4.22949  0.00000 -0.45898
      13     O     4.23141  4.23141  0.00000 -0.46282

   Total alpha = 24.00000, Total beta = 24.00000, Total charge = -0.00000
