                              Psi4 1.0.54 Driver

  ==> Input File <==

--------------------------------------------------------------------------
set {
	reference rhf
	basis cc-pvtz
}

set_num_threads( 4 )
memory 2 gb

molecule MOL {
0 1

H	 0.171258	 -3.356656	 1.108350
O	 0.687878	 -2.612569	 0.837916
C	 -0.123567	 -1.568942	 0.690165
C	 0.626018	 -0.337582	 0.258241
O	 -1.287112	 -1.645426	 0.885501
C	 -0.267326	 0.883135	 0.076490
H	 1.401591	 -0.169513	 0.995871
H	 1.142046	 -0.587055	 -0.663665
C	 -1.726822	 0.642622	 0.463839
H	 -0.210803	 1.217591	 -0.953497
H	 0.129920	 1.693110	 0.675679
C	 -2.480891	 -0.340606	 -0.429852
H	 -2.243098	 1.597649	 0.438609
H	 -1.776542	 0.301208	 1.495542
C	 -3.955933	 -0.460128	 -0.060472
H	 -2.393755	 -0.020485	 -1.464726
H	 -2.024244	 -1.323637	 -0.374360
H	 -4.467673	 -1.160944	 -0.709827
H	 -4.458917	 0.497287	 -0.144505
H	 -4.076458	 -0.806900	 0.960497

	symmetry c1
}
set optking {
	frozen_dihedral = ("
		7 4 6 10
	")
}

ee,wfn = optimize('scf', return_wfn=True)
oeprop( wfn, 'DIPOLE', 'QUADRUPOLE', 'MULLIKEN_CHARGES')
f=open( 'psi4out.xyz', 'w' )
f.write( "20  " )
f.write( str(ee) + "\n" )
f.write( MOL.save_string_xyz() )
f.close()
--------------------------------------------------------------------------

    Molecular point group: c1
  Charge       = 0
  Multiplicity = 1
  Basis Set: CC-PVTZ
  Basis Set:
  @DF-RHF Final Energy:  -384.00934996207104
    Total Energy =                       -384.0093499620709281
    Molecular point group: c1
  Basis Set: CC-PVTZ
  Basis Set:
  Basis Set: CC-PVTZ
  Basis Set:
  @DF-RHF Final Energy:  -384.04321402097679
    Total Energy =                       -384.0432140209768477
  Basis Set: CC-PVTZ
  Basis Set:
  Basis Set: CC-PVTZ
  Basis Set:
  @DF-RHF Final Energy:  -384.06023286853713
    Total Energy =                       -384.0602328685370139
  Basis Set: CC-PVTZ
  Basis Set:
  Basis Set: CC-PVTZ
  Basis Set:
  @DF-RHF Final Energy:  -384.07043081227567
    Total Energy =                       -384.0704308122752764
  Basis Set: CC-PVTZ
  Basis Set:
  @DF-RHF Final Energy:  -384.07618023464295
    Total Energy =                       -384.0761802346429477
  @DF-RHF Final Energy:  -384.07508455344038
    Total Energy =                       -384.0750845534406608
  @DF-RHF Final Energy:  -384.07997511778569
    Total Energy =                       -384.0799751177858070
  @DF-RHF Final Energy:  -384.08080324215393
    Total Energy =                       -384.0808032421541611
  @DF-RHF Final Energy:  -384.08114566470056
    Total Energy =                       -384.0811456647001023
  @DF-RHF Final Energy:  -384.08137175263465
    Total Energy =                       -384.0813717526343680
  @DF-RHF Final Energy:  -384.08153522339910
    Total Energy =                       -384.0815352233992144
  @DF-RHF Final Energy:  -384.08162442136188
    Total Energy =                       -384.0816244213615391
  @DF-RHF Final Energy:  -384.08172947450589
    Total Energy =                       -384.0817294745056643
  @DF-RHF Final Energy:  -384.08170465828022
    Total Energy =                       -384.0817046582803869
  @DF-RHF Final Energy:  -384.08202070942014
    Total Energy =                       -384.0820207094201351
  @DF-RHF Final Energy:  -384.08094000689238
    Total Energy =                       -384.0809400068926607
  @DF-RHF Final Energy:  -384.08205545990415
    Total Energy =                       -384.0820554599041543
  @DF-RHF Final Energy:  -384.08252324885495
    Total Energy =                       -384.0825232488547272
  @DF-RHF Final Energy:  -384.08312883144066
    Total Energy =                       -384.0831288314406038
  @DF-RHF Final Energy:  -384.08337708557929
    Total Energy =                       -384.0833770855787179
  @DF-RHF Final Energy:  -384.08362302276277
    Total Energy =                       -384.0836230227630494
  @DF-RHF Final Energy:  -384.08371809662634
    Total Energy =                       -384.0837180966261712
  @DF-RHF Final Energy:  -384.08378400176417
    Total Energy =                       -384.0837840017640019
  @DF-RHF Final Energy:  -384.08379922826521
    Total Energy =                       -384.0837992282653204
  Basis Set: CC-PVTZ
  Basis Set:
  @DF-RHF Final Energy:  -384.08380647097385
    Total Energy =                       -384.0838064709738546
  Basis Set: CC-PVTZ
  Basis Set:
  Basis Set: CC-PVTZ
  Basis Set:
  @DF-RHF Final Energy:  -384.08380942264859
    Total Energy =                       -384.0838094226484145
  Basis Set: CC-PVTZ
  Basis Set:
  Basis Set: CC-PVTZ
  Basis Set:
  @DF-RHF Final Energy:  -384.08381115273625
    Total Energy =                       -384.0838111527366436
  Basis Set: CC-PVTZ
  Basis Set:
  Charge       = 0
  Multiplicity = 1
  Basis Set: CC-PVTZ
  Basis Set:

    Orbital Energies (a.u.)
    -----------------------

    Doubly Occupied:

       1A    -20.606491     2A    -20.538388     3A    -11.374594
       4A    -11.238595     5A    -11.230442     6A    -11.214348
       7A    -11.213094     8A    -11.205867     9A     -1.478648
      10A     -1.368510    11A     -1.092129    12A     -1.037747
      13A     -0.960144    14A     -0.873019    15A     -0.815881
      16A     -0.783235    17A     -0.706844    18A     -0.681677
      19A     -0.659358    20A     -0.633447    21A     -0.611161
      22A     -0.592712    23A     -0.574447    24A     -0.558841
      25A     -0.542767    26A     -0.506592    27A     -0.500510
      28A     -0.482380    29A     -0.472598    30A     -0.463137
      31A     -0.454906    32A     -0.437699

  @DF-RHF Final Energy:  -384.08381197519020

   => Energetics <=

    Nuclear Repulsion Energy =            394.7555547859859644
    One-Electron Energy =               -1305.8583155272858676
    Two-Electron Energy =                 527.0189487661093608
    DFT Exchange-Correlation Energy =       0.0000000000000000
    Empirical Dispersion Energy =           0.0000000000000000
    PCM Polarization Energy =               0.0000000000000000
    EFP Energy =                            0.0000000000000000
    Total Energy =                       -384.0838119751905424
    Molecular point group: c1
  Basis Set: CC-PVTZ
  Basis Set:

  -Total Gradient:
     Atom            X                  Y                   Z
    ------   -----------------  -----------------  -----------------
       1       -0.000004121555    -0.000004526936     0.000001038960
       2       -0.000009557227     0.000011921461    -0.000000294424
       3        0.000029537052    -0.000005636698    -0.000077966988
       4        0.000353435900     0.000130727109    -0.000431685967
       5        0.000000665451    -0.000035286027     0.000077708995
       6        0.000422801074     0.000247759699     0.000256726992
       7       -0.000376682842    -0.000129396163     0.000343067860
       8        0.000010449252    -0.000005390348     0.000002125502
       9        0.000010131076     0.000010820335    -0.000004311225
      10       -0.000424368197    -0.000220612612    -0.000162847180
      11        0.000005915979    -0.000002658660     0.000003272084
      12        0.000024516827    -0.000013144219    -0.000003783569
      13       -0.000015234819    -0.000003674069    -0.000001165494
      14        0.000007140907     0.000003171616     0.000005044900
      15       -0.000034487940     0.000022521713    -0.000007206320
      16        0.000009555874    -0.000002259792    -0.000006652744
      17       -0.000011617186    -0.000006292037    -0.000000279149
      18        0.000002347183    -0.000001604791     0.000001304108
      19       -0.000000281612     0.000005961216    -0.000001456481
      20       -0.000000145192    -0.000002400802     0.000007360142

  **** Optimization is complete! (in 28 steps) ****
    Final optimized geometry and variables:
    Molecular point group: c1

    Geometry (in Angstrom), charge = 0, multiplicity = 1:

    H            0.205012201487    -2.792484381803    -0.151518252193
    O            0.762748399477    -2.099123312619    -0.472124860133
    C            0.834969336067    -1.156327531421     0.462506228673
    C            1.737665961415    -0.011869683297     0.078227674914
    O            0.262468904143    -1.255688436922     1.493784005247
    C            1.067680391111     1.383726617122    -0.098993161893
    H            2.457047740929     0.046388652692     0.884797778893
    H            2.273448180058    -0.285883692860    -0.817362619921
    C           -0.438332994745     1.513057480676     0.147269912371
    H            1.275624833284     1.722995341405    -1.107325133415
    H            1.577231546455     2.073603765806     0.560788586999
    C           -1.316891706046     0.916199506914    -0.951465119513
    H           -0.661391558641     2.573707432802     0.219128688463
    H           -0.698231251788     1.079521553861     1.104603895783
    C           -2.805970062826     1.069820189965    -0.659594291196
    H           -1.081666112823     1.402160244860    -1.894874876105
    H           -1.091798201367    -0.135382485099    -1.092233120892
    H           -3.407761062386     0.656391846377    -1.460816222338
    H           -3.076757525803     2.114552828244    -0.547884819678
    H           -3.076951995027     0.558541710929     0.257583513408

  Mulliken Charges: (a.u.)
   Center  Symbol    Alpha    Beta     Spin     Total
       1     H     0.38037  0.38037  0.00000  0.23926
       2     O     4.16373  4.16373  0.00000 -0.32746
       3     C     2.79901  2.79901  0.00000  0.40199
       4     C     3.09471  3.09471  0.00000 -0.18942
       5     O     4.20112  4.20112  0.00000 -0.40224
       6     C     3.11062  3.11062  0.00000 -0.22123
       7     H     0.43753  0.43753  0.00000  0.12494
       8     H     0.43636  0.43636  0.00000  0.12727
       9     C     3.10661  3.10661  0.00000 -0.21321
      10     H     0.44780  0.44780  0.00000  0.10440
      11     H     0.44014  0.44014  0.00000  0.11973
      12     C     3.08275  3.08275  0.00000 -0.16550
      13     H     0.44583  0.44583  0.00000  0.10834
      14     H     0.43803  0.43803  0.00000  0.12393
      15     C     3.15195  3.15195  0.00000 -0.30389
      16     H     0.45438  0.45438  0.00000  0.09124
      17     H     0.45413  0.45413  0.00000  0.09174
      18     H     0.44887  0.44887  0.00000  0.10225
      19     H     0.45521  0.45521  0.00000  0.08957
      20     H     0.45086  0.45086  0.00000  0.09829

   Total alpha = 32.00000, Total beta = 32.00000, Total charge = -0.00000

*** Psi4 exiting successfully. Buy a developer a beer!
