                              Psi4 1.0.54 Driver

  ==> Input File <==

--------------------------------------------------------------------------
set {
	reference rhf
	basis cc-pvtz
}

set_num_threads( 4 )
memory 2 gb

molecule MOL {
0 1

O	 2.176725	 0.689921	 -0.923324
C	 1.704209	 0.119472	 -0.000093
C	 0.380337	 -0.600947	 -0.000234
O	 2.294479	 0.039647	 1.181273
C	 -0.824290	 0.329213	 -0.000115
H	 0.371455	 -1.255476	 -0.865660
H	 0.371410	 -1.255787	 0.864952
C	 -2.146151	 -0.432825	 -0.000068
H	 -0.773936	 0.979158	 -0.866319
H	 -0.773838	 0.979034	 0.866186
C	 -3.366283	 0.483552	 0.000557
H	 -2.189286	 -1.084450	 -0.869996
H	 -2.188867	 -1.085083	 0.869399
C	 -4.687436	 -0.278003	 0.000108
H	 -3.325150	 1.134819	 -0.867957
H	 -3.325087	 1.133730	 0.869885
H	 -4.773783	 -0.912098	 -0.876078
H	 -5.531922	 0.401392	 0.000363
H	 -4.773901	 -0.912898	 0.875703
C	 3.549325	 0.673953	 1.323907
H	 4.269116	 0.253993	 0.637069
H	 3.858392	 0.496845	 2.341235
H	 3.463587	 1.734556	 1.139557

	symmetry c1
}
set optking {
	frozen_dihedral = ("
		1 2 3 6
	")
}

ee,wfn = optimize('scf', return_wfn=True)
oeprop( wfn, 'DIPOLE', 'QUADRUPOLE', 'MULLIKEN_CHARGES')
f=open( 'psi4out.xyz', 'w' )
f.write( "23  " )
f.write( str(ee) + "\n" )
f.write( MOL.save_string_xyz() )
f.close()
--------------------------------------------------------------------------

    Molecular point group: c1
  Charge       = 0
  Multiplicity = 1
  Basis Set: CC-PVTZ
  Basis Set:
  @DF-RHF Final Energy:  -423.12894569836095
    Total Energy =                       -423.1289456983606669
    Molecular point group: c1
  Basis Set: CC-PVTZ
  Basis Set:
  Basis Set: CC-PVTZ
  Basis Set:
  @DF-RHF Final Energy:  -423.12934257701789
    Total Energy =                       -423.1293425770173826
  Basis Set: CC-PVTZ
  Basis Set:
  Basis Set: CC-PVTZ
  Basis Set:
  @DF-RHF Final Energy:  -423.12969038225265
    Total Energy =                       -423.1296903822528748
  Basis Set: CC-PVTZ
  Basis Set:
  Basis Set: CC-PVTZ
  Basis Set:
  @DF-RHF Final Energy:  -423.12972662320971
    Total Energy =                       -423.1297266232105585
  Basis Set: CC-PVTZ
  Basis Set:
  Basis Set: CC-PVTZ
  Basis Set:
  @DF-RHF Final Energy:  -423.12972838658840
    Total Energy =                       -423.1297283865883401
  Basis Set: CC-PVTZ
  Basis Set:
  Charge       = 0
  Multiplicity = 1
  Basis Set: CC-PVTZ
  Basis Set:

    Orbital Energies (a.u.)
    -----------------------

    Doubly Occupied:

       1A    -20.598363     2A    -20.530933     3A    -11.363485
       4A    -11.278371     5A    -11.231826     6A    -11.225501
       7A    -11.218694     8A    -11.217103     9A    -11.209499
      10A     -1.472123    11A     -1.364181    12A     -1.097146
      13A     -1.045573    14A     -0.987045    15A     -0.934739
      16A     -0.845759    17A     -0.798010    18A     -0.774288
      19A     -0.697083    20A     -0.683486    21A     -0.675541
      22A     -0.654765    23A     -0.608068    24A     -0.598675
      25A     -0.578252    26A     -0.572051    27A     -0.543583
      28A     -0.533918    29A     -0.525477    30A     -0.506962
      31A     -0.489790    32A     -0.475404    33A     -0.469934
      34A     -0.466190    35A     -0.456950    36A     -0.432643

  @DF-RHF Final Energy:  -423.12972892881072

   => Energetics <=

    Nuclear Repulsion Energy =            454.2673782948079975
    One-Electron Energy =               -1476.4713936227037721
    Two-Electron Energy =                 599.0742863990851674
    DFT Exchange-Correlation Energy =       0.0000000000000000
    Empirical Dispersion Energy =           0.0000000000000000
    PCM Polarization Energy =               0.0000000000000000
    EFP Energy =                            0.0000000000000000
    Total Energy =                       -423.1297289288106640
    Molecular point group: c1
  Basis Set: CC-PVTZ
  Basis Set:

  -Total Gradient:
     Atom            X                  Y                   Z
    ------   -----------------  -----------------  -----------------
       1       -0.000092678193     0.000112483125     0.000133934528
       2        0.000116172308    -0.000205041844    -0.000174046539
       3       -0.000134863867     0.000202219160    -0.000088274918
       4        0.000063276736     0.000010933371     0.000019335263
       5       -0.000033350385     0.000019292025     0.000008091191
       6        0.000074162787    -0.000147618637     0.000094957870
       7        0.000013005770     0.000015485805    -0.000014777291
       8        0.000005228399    -0.000001430034    -0.000002702219
       9       -0.000002892705    -0.000008872791     0.000005047595
      10       -0.000011772868     0.000006109246    -0.000003220058
      11        0.000011559157     0.000011874758     0.000001400177
      12        0.000005936388    -0.000001460812    -0.000004450737
      13        0.000002463096    -0.000006377225    -0.000000229296
      14        0.000004689259    -0.000003454151     0.000004494425
      15       -0.000002460905    -0.000000029288    -0.000000677032
      16       -0.000003111224     0.000004152857    -0.000001277554
      17        0.000001359533     0.000000841349    -0.000001052702
      18        0.000003073693     0.000001278835     0.000001606020
      19       -0.000001217592    -0.000001482075     0.000000962097
      20       -0.000037461129    -0.000005558227     0.000023837253
      21        0.000003665525    -0.000007095789    -0.000010427861
      22        0.000012889612     0.000003872034     0.000006080331
      23        0.000002326607    -0.000000121693     0.000001389455

  **** Optimization is complete! (in 6 steps) ****
    Final optimized geometry and variables:
    Molecular point group: c1

    Geometry (in Angstrom), charge = 0, multiplicity = 1:

    O            2.149984351131     0.588455977315    -1.106670940442
    C            1.755383881479    -0.024737388601    -0.172978064392
    C            0.452414478490    -0.782163282088    -0.148446609235
    O            2.409601858369    -0.098133768671     0.973140863677
    C           -0.743711975700     0.174730027935    -0.149335726121
    H            0.426918308418    -1.399890499990    -1.037773994929
    H            0.423577754500    -1.427231516691     0.718366538815
    C           -2.078911565810    -0.562310936558    -0.171127482955
    H           -0.668595840269     0.828175450558    -1.010686308793
    H           -0.695174839171     0.809105151559     0.731348866099
    C           -3.281803614829     0.376649230554    -0.169411601699
    H           -2.122087606594    -1.198992518254    -1.051456638717
    H           -2.140344433159    -1.225384131855     0.688460275557
    C           -4.616030966927    -0.361364100515    -0.194348491483
    H           -3.220034195534     1.039196577319    -1.028040758409
    H           -3.238620652173     1.013104381742     0.710103742347
    H           -4.704378868937    -0.980346188370    -1.080944110507
    H           -5.448188324867     0.333001603949    -0.192131405239
    H           -4.722369356619    -1.007645950407     0.670610362931
    C            3.634720343117     0.601384215225     1.064573177289
    H            4.337366259815     0.235175601797     0.330974089714
    H            4.006870097371     0.420921734573     2.059978670074
    H            3.481908747793     1.658952317011     0.908797611441

  Mulliken Charges: (a.u.)
   Center  Symbol    Alpha    Beta     Spin     Total
       1     O     4.20575  4.20575  0.00000 -0.41149
       2     C     2.81043  2.81043  0.00000  0.37915
       3     C     3.07816  3.07816  0.00000 -0.15632
       4     O     4.14634  4.14634  0.00000 -0.29267
       5     C     3.09787  3.09787  0.00000 -0.19574
       6     H     0.44267  0.44267  0.00000  0.11467
       7     H     0.44143  0.44143  0.00000  0.11714
       8     C     3.09102  3.09102  0.00000 -0.18204
       9     H     0.44020  0.44020  0.00000  0.11960
      10     H     0.45065  0.45065  0.00000  0.09871
      11     C     3.08464  3.08464  0.00000 -0.16929
      12     H     0.45333  0.45333  0.00000  0.09335
      13     H     0.45437  0.45437  0.00000  0.09126
      14     C     3.15022  3.15022  0.00000 -0.30045
      15     H     0.45259  0.45259  0.00000  0.09482
      16     H     0.45395  0.45395  0.00000  0.09209
      17     H     0.45461  0.45461  0.00000  0.09078
      18     H     0.44760  0.44760  0.00000  0.10481
      19     H     0.45515  0.45515  0.00000  0.08970
      20     C     3.03570  3.03570  0.00000 -0.07140
      21     H     0.45382  0.45382  0.00000  0.09236
      22     H     0.44534  0.44534  0.00000  0.10932
      23     H     0.45417  0.45417  0.00000  0.09166

   Total alpha = 36.00000, Total beta = 36.00000, Total charge = -0.00000

*** Psi4 exiting successfully. Buy a developer a beer!
