  ==> Input File <==

--------------------------------------------------------------------------
set {
	reference rhf
	basis 6-31G*
}

set_num_threads( 1 )
memory 2 gb

molecule MOL {
0 1

H	 -3.420663	 1.227371	 -1.044276
O	 -3.452007	 0.283848	 -0.965577
C	 -3.181085	 -0.079926	 0.364119
C	 -1.765924	 0.277073	 0.805136
H	 -3.327791	 -1.152017	 0.410903
H	 -3.905698	 0.375695	 1.036898
C	 -0.677594	 -0.417312	 -0.014550
H	 -1.637766	 1.358238	 0.744969
H	 -1.659588	 0.017670	 1.857098
C	 0.738335	 -0.034840	 0.421385
H	 -0.814977	 -0.178223	 -1.064632
H	 -0.802730	 -1.495410	 0.071702
C	 1.705417	 0.102134	 -0.757629
H	 0.696965	 0.898197	 0.978296
H	 1.119948	 -0.785896	 1.111957
C	 3.157656	 0.397456	 -0.365273
H	 1.348772	 0.884062	 -1.426276
H	 1.684716	 -0.820786	 -1.333483
C	 3.373391	 1.760591	 0.294823
H	 3.773769	 0.342437	 -1.259515
H	 3.517255	 -0.386211	 0.298623
H	 3.011268	 2.563728	 -0.341554
H	 4.428731	 1.936888	 0.479254
H	 2.860259	 1.836588	 1.247757

	symmetry c1
}
set optking {
	frozen_dihedral = ("
		20 16 13 17,
		17 13 10 7,
		11 7 4 3,
		1 2 3 5,
		7 4 3 2
	")
}

ee = energy('scf')
oeprop('DIPOLE', 'QUADRUPOLE', 'MULLIKEN_CHARGES')
f=open( 'psi4out.xyz', 'w' )
f.write( "24  " )
f.write( str(ee) + "\n" )
f.write( MOL.save_string_xyz() )
f.close()
--------------------------------------------------------------------------

    Molecular point group: c1

    Geometry (in Angstrom), charge = 0, multiplicity = 1:

       Center              X                  Y                   Z               Mass
    ------------   -----------------  -----------------  -----------------  -----------------
           H         -3.351028570825     0.923578780736    -1.003915755827     1.007825032070
           O         -3.382372570825    -0.019944219264    -0.925216755827    15.994914619560
           C         -3.111450570825    -0.383718219264     0.404479244173    12.000000000000
           C         -1.696289570825    -0.026719219264     0.845496244173    12.000000000000
           H         -3.258156570825    -1.455809219264     0.451263244173     1.007825032070
           H         -3.836063570825     0.071902780736     1.077258244173     1.007825032070
           C         -0.607959570825    -0.721104219264     0.025810244173    12.000000000000
           H         -1.568131570825     1.054445780736     0.785329244173     1.007825032070
           H         -1.589953570825    -0.286122219264     1.897458244173     1.007825032070
           C          0.807969429175    -0.338632219264     0.461745244173    12.000000000000
           H         -0.745342570825    -0.482015219264    -1.024271755827     1.007825032070
           H         -0.733095570825    -1.799202219264     0.112062244173     1.007825032070
           C          1.775051429175    -0.201658219264    -0.717268755827    12.000000000000
           H          0.766599429175     0.594404780736     1.018656244173     1.007825032070
           H          1.189582429175    -1.089688219264     1.152317244173     1.007825032070
           C          3.227290429175     0.093663780736    -0.324912755827    12.000000000000
           H          1.418406429175     0.580269780736    -1.385915755827     1.007825032070
           H          1.754350429175    -1.124578219264    -1.293122755827     1.007825032070
           C          3.443025429175     1.456798780736     0.335183244173    12.000000000000
           H          3.843403429175     0.038644780736    -1.219154755827     1.007825032070
           H          3.586889429175    -0.690003219264     0.338983244173     1.007825032070
           H          3.080902429175     2.259935780736    -0.301193755827     1.007825032070
           H          4.498365429175     1.633095780736     0.519614244173     1.007825032070
           H          2.929893429175     1.532795780736     1.288117244173     1.007825032070

  Charge       = 0
  Multiplicity = 1
  Basis Set: 6-31G*
  Basis Set:

    Orbital Energies (a.u.)
    -----------------------

    Doubly Occupied:

       1A    -20.553478     2A    -11.267318     3A    -11.217677
       4A    -11.213808     5A    -11.212121     6A    -11.211050
       7A    -11.209980     8A    -11.207566     9A     -1.360029
      10A     -1.088671    11A     -1.048119    12A     -0.985461
      13A     -0.914918    14A     -0.850375    15A     -0.801693
      16A     -0.776562    17A     -0.679838    18A     -0.646180
      19A     -0.629872    20A     -0.616803    21A     -0.599520
      22A     -0.588155    23A     -0.550606    24A     -0.547503
      25A     -0.513796    26A     -0.508145    27A     -0.500531
      28A     -0.472814    29A     -0.466951    30A     -0.459054
      31A     -0.452940    32A     -0.451375    33A     -0.417889

  @DF-RHF Final Energy:  -349.24364869892355

   => Energetics <=

    Nuclear Repulsion Energy =            385.9510764063996362
    One-Electron Energy =               -1238.3480169129124988
    Two-Electron Energy =                 503.1532918075894827
    DFT Exchange-Correlation Energy =       0.0000000000000000
    Empirical Dispersion Energy =           0.0000000000000000
    PCM Polarization Energy =               0.0000000000000000
    EFP Energy =                            0.0000000000000000
    Total Energy =                       -349.2436486989234368

  Mulliken Charges: (a.u.)
   Center  Symbol    Alpha    Beta     Spin     Total
       1     H     0.28342  0.28342  0.00000  0.43316
       2     O     4.36821  4.36821  0.00000 -0.73643
       3     C     2.99661  2.99661  0.00000  0.00677
       4     C     3.17092  3.17092  0.00000 -0.34184
       5     H     0.41637  0.41637  0.00000  0.16726
       6     H     0.42829  0.42829  0.00000  0.14341
       7     C     3.15391  3.15391  0.00000 -0.30782
       8     H     0.42799  0.42799  0.00000  0.14401
       9     H     0.42205  0.42205  0.00000  0.15590
      10     C     3.15542  3.15542  0.00000 -0.31084
      11     H     0.41008  0.41008  0.00000  0.17984
      12     H     0.42160  0.42160  0.00000  0.15680
      13     C     3.15417  3.15417  0.00000 -0.30834
      14     H     0.42165  0.42165  0.00000  0.15671
      15     H     0.42258  0.42258  0.00000  0.15484
      16     C     3.15287  3.15287  0.00000 -0.30573
      17     H     0.42447  0.42447  0.00000  0.15107
      18     H     0.42096  0.42096  0.00000  0.15808
      19     C     3.24097  3.24097  0.00000 -0.48194
      20     H     0.42119  0.42119  0.00000  0.15761
      21     H     0.42357  0.42357  0.00000  0.15287
      22     H     0.42287  0.42287  0.00000  0.15426
      23     H     0.41944  0.41944  0.00000  0.16112
      24     H     0.42039  0.42039  0.00000  0.15922

   Total alpha = 33.00000, Total beta = 33.00000, Total charge =  0.00000
