  ==> Input File <==

--------------------------------------------------------------------------
set {
	reference rhf
	basis 6-31G*
}

set_num_threads( 1 )
memory 2 gb

molecule MOL {
0 1

H	 -3.892951	 0.981613	 -0.358725
C	 -3.196921	 0.361773	 0.172313
C	 -2.076860	 -0.007332	 -0.404944
H	 -3.439953	 0.057760	 1.173024
O	 -0.867564	 0.456021	 0.007084
H	 -2.046823	 -0.708601	 -1.220122
C	 0.246673	 0.158314	 -0.762133
C	 0.448799	 1.168853	 -1.868592
H	 0.186291	 -0.826680	 -1.211393
H	 1.112035	 0.196160	 -0.116995
F	 1.543038	 0.862996	 -2.550428
F	 -0.564999	 1.175583	 -2.718296
F	 0.589965	 2.392225	 -1.401878

	symmetry c1
}
set optking {
	frozen_dihedral = ("
		11 8 7 9,
		3 5 7 9,
		6 3 5 7
	")
}

ee = energy('scf')
oeprop('DIPOLE', 'QUADRUPOLE', 'MULLIKEN_CHARGES')
f=open( 'psi4out.xyz', 'w' )
f.write( "13  " )
f.write( str(ee) + "\n" )
f.write( MOL.save_string_xyz() )
f.close()
--------------------------------------------------------------------------

    Molecular point group: c1

    Geometry (in Angstrom), charge = 0, multiplicity = 1:

       Center              X                  Y                   Z               Mass
    ------------   -----------------  -----------------  -----------------  -----------------
           H         -3.518661806933     0.098092540228     0.932447743883     1.007825032070
           C         -2.822631806933    -0.521747459772     1.463485743883    12.000000000000
           C         -1.702570806933    -0.890852459772     0.886228743883    12.000000000000
           H         -3.065663806933    -0.825760459772     2.464196743883     1.007825032070
           O         -0.493274806933    -0.427499459772     1.298256743883    15.994914619560
           H         -1.672533806933    -1.592121459772     0.071050743883     1.007825032070
           C          0.620962193067    -0.725206459772     0.529039743883    12.000000000000
           C          0.823088193067     0.285332540228    -0.577419256117    12.000000000000
           H          0.560580193067    -1.710200459772     0.079779743883     1.007825032070
           H          1.486324193067    -0.687360459772     1.174177743883     1.007825032070
           F          1.917327193067    -0.020524459772    -1.259255256117    18.998403224000
           F         -0.190709806933     0.292062540228    -1.427123256117    18.998403224000
           F          0.964254193067     1.508704540228    -0.110705256117    18.998403224000

  Charge       = 0
  Multiplicity = 1
  Basis Set: 6-31G*
  Basis Set:

    Orbital Energies (a.u.)
    -----------------------

    Doubly Occupied:

       1A    -26.349173     2A    -26.347156     3A    -26.344317
       4A    -20.622991     5A    -11.508817     6A    -11.328153
       7A    -11.324663     8A    -11.188963     9A     -1.745690
      10A     -1.643862    11A     -1.641942    12A     -1.450965
      13A     -1.089493    14A     -1.017885    15A     -0.929473
      16A     -0.840939    17A     -0.834887    18A     -0.826040
      19A     -0.797062    20A     -0.725575    21A     -0.714517
      22A     -0.699152    23A     -0.677631    24A     -0.663747
      25A     -0.657575    26A     -0.646805    27A     -0.641555
      28A     -0.587223    29A     -0.578178    30A     -0.532210
      31A     -0.509394    32A     -0.286225

  @DF-RHF Final Energy:  -527.43107495713684

   => Energetics <=

    Nuclear Repulsion Energy =            413.4867062996040659
    One-Electron Energy =               -1550.3313888189441059
    Two-Electron Energy =                 609.4136075622038788
    DFT Exchange-Correlation Energy =       0.0000000000000000
    Empirical Dispersion Energy =           0.0000000000000000
    PCM Polarization Energy =               0.0000000000000000
    EFP Energy =                            0.0000000000000000
    Total Energy =                       -527.4310749571361612

  Mulliken Charges: (a.u.)
   Center  Symbol    Alpha    Beta     Spin     Total
       1     H     0.39966  0.39966  0.00000  0.20067
       2     C     3.29166  3.29166  0.00000 -0.58332
       3     C     2.87210  2.87210  0.00000  0.25580
       4     H     0.40427  0.40427  0.00000  0.19147
       5     O     4.27974  4.27974  0.00000 -0.55948
       6     H     0.40397  0.40397  0.00000  0.19206
       7     C     3.06998  3.06998  0.00000 -0.13995
       8     C     2.45333  2.45333  0.00000  1.09334
       9     H     0.40327  0.40327  0.00000  0.19346
      10     H     0.38771  0.38771  0.00000  0.22458
      11     F     4.68197  4.68197  0.00000 -0.36394
      12     F     4.67875  4.67875  0.00000 -0.35750
      13     F     4.67360  4.67360  0.00000 -0.34721

   Total alpha = 32.00000, Total beta = 32.00000, Total charge = -0.00000
