  ==> Input File <==

--------------------------------------------------------------------------
set {
	reference rhf
	basis 6-31G*
}

set_num_threads( 4 )
memory 2 gb

molecule MOL {
0 1

H	 -2.081214	 0.073195	 -2.226315
C	 -2.756786	 0.808722	 -1.772196
C	 -2.660244	 0.921717	 -0.272021
O	 -3.492721	 1.444826	 -2.454487
C	 -1.220012	 1.144545	 0.209990
H	 -3.317577	 1.719437	 0.053964
H	 -3.036644	 -0.012070	 0.143937
C	 -0.252658	 0.041456	 -0.226725
H	 -0.873521	 2.100229	 -0.171974
H	 -1.211708	 1.231594	 1.295398
C	 1.180775	 0.282413	 0.250794
H	 -0.266029	 -0.034465	 -1.312038
H	 -0.597733	 -0.921000	 0.146291
C	 2.148627	 -0.814315	 -0.201312
H	 1.516199	 1.249228	 -0.115937
H	 1.192670	 0.346017	 1.338083
C	 3.580890	 -0.659131	 0.322722
H	 2.166869	 -0.852443	 -1.289387
H	 1.762857	 -1.776509	 0.128956
C	 4.324889	 0.564933	 -0.213704
H	 4.142010	 -1.551473	 0.056605
H	 3.564836	 -0.624694	 1.410140
H	 4.342616	 0.565491	 -1.300421
H	 3.866655	 1.493402	 0.110242
H	 5.353900	 0.572371	 0.132816

	symmetry c1
}
set optking {
	frozen_dihedral = ("
		6 3 5 8
	")
}

ee = optimize('scf')
oeprop('DIPOLE', 'QUADRUPOLE', 'MULLIKEN_CHARGES')
f=open( 'psi4out.xyz', 'w' )
f.write( "25  " )
f.write( str(ee) + "\n" )
f.write( MOL.save_string_xyz() )
f.close()
--------------------------------------------------------------------------

    Molecular point group: c1
  Charge       = 0
  Multiplicity = 1
  Basis Set: 6-31G*
  Basis Set:
  @DF-RHF Final Energy:  -387.11843366429451
    Total Energy =                       -387.1184336642947983
    Molecular point group: c1
  Basis Set: 6-31G*
  Basis Set:
  Basis Set: 6-31G*
  Basis Set:
  @DF-RHF Final Energy:  -387.11854894507314
    Total Energy =                       -387.1185489450726891
  Basis Set: 6-31G*
  Basis Set:
  Basis Set: 6-31G*
  Basis Set:
  @DF-RHF Final Energy:  -387.11971481331261
    Total Energy =                       -387.1197148133118162
  Basis Set: 6-31G*
  Basis Set:
  Basis Set: 6-31G*
  Basis Set:
  @DF-RHF Final Energy:  -387.11986998587298
    Total Energy =                       -387.1198699858725831
  Basis Set: 6-31G*
  Basis Set:
  @DF-RHF Final Energy:  -387.11989029235053
    Total Energy =                       -387.1198902923501919
  @DF-RHF Final Energy:  -387.12003751961379
    Total Energy =                       -387.1200375196142431
  @DF-RHF Final Energy:  -387.12006103406549
    Total Energy =                       -387.1200610340657704
  @DF-RHF Final Energy:  -387.12007702005144
    Total Energy =                       -387.1200770200518946
  @DF-RHF Final Energy:  -387.12009151616724
    Total Energy =                       -387.1200915161670082
  @DF-RHF Final Energy:  -387.12013073613468
    Total Energy =                       -387.1201307361344561
  @DF-RHF Final Energy:  -387.12021495189646
    Total Energy =                       -387.1202149518960596
  Basis Set: 6-31G*
  Basis Set:
  @DF-RHF Final Energy:  -387.12025176541317
    Total Energy =                       -387.1202517654133999
  Basis Set: 6-31G*
  Basis Set:
  Basis Set: 6-31G*
  Basis Set:
  @DF-RHF Final Energy:  -387.12025222377997
    Total Energy =                       -387.1202522237800849
  Basis Set: 6-31G*
  Basis Set:
  Basis Set: 6-31G*
  Basis Set:
  @DF-RHF Final Energy:  -387.12025452616842
    Total Energy =                       -387.1202545261688783
  Basis Set: 6-31G*
  Basis Set:
  Charge       = 0
  Multiplicity = 1
  Basis Set: 6-31G*
  Basis Set:

    Orbital Energies (a.u.)
    -----------------------

    Doubly Occupied:

       1A    -20.561500     2A    -11.325016     3A    -11.234793
       4A    -11.233799     5A    -11.227202     6A    -11.221217
       7A    -11.219328     8A    -11.218723     9A    -11.211065
      10A     -1.401126    11A     -1.104074    12A     -1.069114
      13A     -1.013262    14A     -0.942772    15A     -0.877070
      16A     -0.828215    17A     -0.783423    18A     -0.774558
      19A     -0.682375    20A     -0.655708    21A     -0.631760
      22A     -0.617641    23A     -0.610969    24A     -0.581124
      25A     -0.574128    26A     -0.564590    27A     -0.532018
      28A     -0.519439    29A     -0.516767    30A     -0.498076
      31A     -0.486771    32A     -0.480652    33A     -0.466355
      34A     -0.460176    35A     -0.442614    36A     -0.407495

  @DF-RHF Final Energy:  -387.12025488442333

   => Energetics <=

    Nuclear Repulsion Energy =            439.0092218630897491
    One-Electron Energy =               -1394.3091218649396978
    Two-Electron Energy =                 568.1796451174258209
    DFT Exchange-Correlation Energy =       0.0000000000000000
    Empirical Dispersion Energy =           0.0000000000000000
    PCM Polarization Energy =               0.0000000000000000
    EFP Energy =                            0.0000000000000000
    Total Energy =                       -387.1202548844240710
    Molecular point group: c1
  Basis Set: 6-31G*
  Basis Set:

  -Total Gradient:
     Atom            X                  Y                   Z
    ------   -----------------  -----------------  -----------------
       1       -0.000049835749     0.000089437723    -0.000056031871
       2        0.000033190785    -0.000212841932    -0.000090946446
       3        0.000042142581    -0.000272804808     0.000678519334
       4        0.000020198576    -0.000037051759     0.000115938726
       5       -0.000120251177    -0.000205645363     0.000657163431
       6        0.000134777100     0.000407548815    -0.000727654096
       7       -0.000052884376     0.000030604881    -0.000015139363
       8        0.000060512324     0.000243660422    -0.000520845137
       9       -0.000017999307     0.000011133752     0.000001143377
      10       -0.000044874716    -0.000046914186    -0.000031842446
      11       -0.000027669119    -0.000004284682     0.000025904118
      12       -0.000013235048    -0.000014335003    -0.000019857395
      13       -0.000000743646    -0.000005531672     0.000026807460
      14        0.000023423268     0.000036263388    -0.000057976412
      15       -0.000023016130    -0.000012442371     0.000021859462
      16        0.000001322734    -0.000020075923     0.000006646164
      17       -0.000003468504     0.000022111247    -0.000007914271
      18       -0.000000299988     0.000000165766    -0.000006546059
      19        0.000026062517     0.000008179502    -0.000000502592
      20        0.000019229590    -0.000009841953    -0.000001994436
      21       -0.000003626113    -0.000008804058     0.000015651670
      22       -0.000014058347     0.000024282170    -0.000007906736
      23       -0.000007958373     0.000003899060    -0.000003108611
      24        0.000019913410    -0.000018240985     0.000007699147
      25       -0.000000852287    -0.000008472033    -0.000009067016

  **** Optimization is complete! (in 15 steps) ****
    Final optimized geometry and variables:
    Molecular point group: c1

    Geometry (in Angstrom), charge = 0, multiplicity = 1:

    H           -2.766644205122    -0.635522622055    -1.696451845495
    C           -2.988990147173     0.337198248383    -1.246327632846
    C           -2.806969609979     0.442885220952     0.248646717983
    O           -3.339682907380     1.242540877684    -1.933092083820
    C           -1.339953707614     0.689338451308     0.646705184818
    H           -3.419643205371     1.269400806961     0.589293416005
    H           -3.165779558389    -0.471681389662     0.714860346670
    C           -0.366212149229    -0.413495644455     0.220264049142
    H           -1.021748131027     1.638944207588     0.225018513325
    H           -1.302864791052     0.802367806828     1.726519916866
    C            1.057617297947    -0.169236260154     0.725264448829
    H           -0.345455973432    -0.492935316579    -0.864670787325
    H           -0.720697763964    -1.373829150715     0.591536865630
    C            2.040388175795    -1.255780651409     0.280820709793
    H            1.393247454757     0.803081289137     0.374520026797
    H            1.047797088749    -0.116817580410     1.812850348688
    C            3.460240759525    -1.100230064336     0.837519730005
    H            2.083180879827    -1.279639868606    -0.806936656248
    H            1.652630682757    -2.224210921891     0.590475112885
    C            4.210410775888     0.132630443705     0.330117051051
    H            4.030749338620    -1.987749556913     0.575366916293
    H            3.419393673355    -1.076789281625     1.924627059291
    H            4.254359280168     0.143225632736    -0.755640842609
    H            3.740037920255     1.056001865405     0.651317887718
    H            5.230598886071     0.141870542692     0.701114751828

  Mulliken Charges: (a.u.)
   Center  Symbol    Alpha    Beta     Spin     Total
       1     H     0.42906  0.42906  0.00000  0.14187
       2     C     2.83727  2.83727  0.00000  0.32546
       3     C     3.20410  3.20410  0.00000 -0.40821
       4     O     4.23758  4.23758  0.00000 -0.47516
       5     C     3.16168  3.16168  0.00000 -0.32336
       6     H     0.39881  0.39881  0.00000  0.20237
       7     H     0.41473  0.41473  0.00000  0.17054
       8     C     3.15833  3.15833  0.00000 -0.31666
       9     H     0.41015  0.41015  0.00000  0.17970
      10     H     0.41399  0.41399  0.00000  0.17203
      11     C     3.15406  3.15406  0.00000 -0.30813
      12     H     0.42030  0.42030  0.00000  0.15940
      13     H     0.42229  0.42229  0.00000  0.15542
      14     C     3.15314  3.15314  0.00000 -0.30629
      15     H     0.41877  0.41877  0.00000  0.16247
      16     H     0.42286  0.42286  0.00000  0.15429
      17     C     3.15275  3.15275  0.00000 -0.30550
      18     H     0.42308  0.42308  0.00000  0.15384
      19     H     0.42229  0.42229  0.00000  0.15541
      20     C     3.24154  3.24154  0.00000 -0.48308
      21     H     0.42018  0.42018  0.00000  0.15965
      22     H     0.42309  0.42309  0.00000  0.15382
      23     H     0.42153  0.42153  0.00000  0.15694
      24     H     0.41993  0.41993  0.00000  0.16013
      25     H     0.41848  0.41848  0.00000  0.16303

   Total alpha = 36.00000, Total beta = 36.00000, Total charge =  0.00000
