  ==> Input File <==

--------------------------------------------------------------------------
set {
	reference rhf
	basis 6-31G*
}

set_num_threads( 4 )
memory 2 gb

molecule MOL {
0 1

H	 -2.365627	 -1.312883	 -0.379134
C	 -1.358347	 -1.274295	 0.019669
C	 -0.681945	 0.000119	 -0.470601
H	 -0.826096	 -2.155117	 -0.321105
H	 -1.409554	 -1.292283	 1.100109
C	 -1.357790	 1.274691	 0.020220
N	 0.739525	 -0.000142	 0.006128
H	 -0.594190	 0.000341	 -1.545128
H	 -2.364980	 1.313977	 -0.378631
H	 -0.825080	 2.155361	 -0.320114
H	 -1.409060	 1.292170	 1.100671
O	 1.518543	 -0.679748	 -0.587039
O	 1.000817	 0.681523	 0.950829

	symmetry c1
}
set optking {
	frozen_dihedral = ("
		12 7 3 8
	")
}

ee = optimize('scf')
oeprop('DIPOLE', 'QUADRUPOLE', 'MULLIKEN_CHARGES')
f=open( 'psi4out.xyz', 'w' )
f.write( "13  " )
f.write( str(ee) + "\n" )
f.write( MOL.save_string_xyz() )
f.close()
--------------------------------------------------------------------------

    Molecular point group: c1
  Charge       = 0
  Multiplicity = 1
  Basis Set: 6-31G*
  Basis Set:
  @DF-RHF Final Energy:  -321.73779592897074
    Total Energy =                       -321.7377959289707405
    Molecular point group: c1
  Basis Set: 6-31G*
  Basis Set:
  Basis Set: 6-31G*
  Basis Set:
  @DF-RHF Final Energy:  -321.73363770683363
    Total Energy =                       -321.7336377068336333
  Basis Set: 6-31G*
  Basis Set:
  Basis Set: 6-31G*
  Basis Set:
  @DF-RHF Final Energy:  -321.73732912400533
    Total Energy =                       -321.7373291240052708
  Basis Set: 6-31G*
  Basis Set:
  Basis Set: 6-31G*
  Basis Set:
  @DF-RHF Final Energy:  -321.73859319010126
    Total Energy =                       -321.7385931901010849
  Basis Set: 6-31G*
  Basis Set:
  Basis Set: 6-31G*
  Basis Set:
  @DF-RHF Final Energy:  -321.73861111366205
    Total Energy =                       -321.7386111136618183
  Basis Set: 6-31G*
  Basis Set:
  Basis Set: 6-31G*
  Basis Set:
  @DF-RHF Final Energy:  -321.73861324964918
    Total Energy =                       -321.7386132496491769
  Basis Set: 6-31G*
  Basis Set:
  Charge       = 0
  Multiplicity = 1
  Basis Set: 6-31G*
  Basis Set:

    Orbital Energies (a.u.)
    -----------------------

    Doubly Occupied:

       1A    -20.601479     2A    -20.597362     3A    -15.843481
       4A    -11.306804     5A    -11.248093     6A    -11.241256
       7A     -1.628886     8A     -1.414244     9A     -1.143244
      10A     -0.972561    11A     -0.958202    12A     -0.813443
      13A     -0.755155    14A     -0.726248    15A     -0.721874
      16A     -0.646617    17A     -0.593481    18A     -0.587513
      19A     -0.572022    20A     -0.528844    21A     -0.522123
      22A     -0.481695    23A     -0.470438    24A     -0.446816

  @DF-RHF Final Energy:  -321.73861352428946

   => Energetics <=

    Nuclear Repulsion Energy =            256.8371633969760524
    One-Electron Energy =                -947.5077887664265290
    Two-Electron Energy =                 368.9320118451609005
    DFT Exchange-Correlation Energy =       0.0000000000000000
    Empirical Dispersion Energy =           0.0000000000000000
    PCM Polarization Energy =               0.0000000000000000
    EFP Energy =                            0.0000000000000000
    Total Energy =                       -321.7386135242895762
    Molecular point group: c1
  Basis Set: 6-31G*
  Basis Set:

  -Total Gradient:
     Atom            X                  Y                   Z
    ------   -----------------  -----------------  -----------------
       1       -0.000012851765    -0.000010044590     0.000007732035
       2       -0.000023570326    -0.000010532341    -0.000020932748
       3       -0.000056546512    -0.001078580179     0.000181447913
       4       -0.000002880481     0.000008935568    -0.000006262489
       5        0.000007677833     0.000009065303    -0.000003913535
       6       -0.000003694555    -0.000009344728    -0.000011037132
       7        0.000255096512     0.000893334890    -0.000628594886
       8        0.000016105855     0.000749433855    -0.000006576857
       9        0.000002377459    -0.000002241410     0.000007180980
      10       -0.000004087898    -0.000004660911    -0.000002472272
      11       -0.000002497523     0.000014506307     0.000012566093
      12       -0.000166850925    -0.000570956235     0.000453979405
      13       -0.000008277678     0.000011084470     0.000016883494

  **** Optimization is complete! (in 7 steps) ****
    Final optimized geometry and variables:
    Molecular point group: c1

    Geometry (in Angstrom), charge = 0, multiplicity = 1:

    H           -2.364641855631    -1.287460342082    -0.348976775484
    C           -1.346714701082    -1.253645737382     0.021150119546
    C           -0.682044136094     0.033402174244    -0.462619585721
    H           -0.816752278695    -2.123537985731    -0.343318407288
    H           -1.375398669952    -1.284198685858     1.104656076461
    C           -1.381576802573     1.296862193335     0.008426901604
    N            0.743909017588     0.000393090657     0.008267773127
    H           -0.590666612061     0.022184802882    -1.538443265794
    H           -2.374636882868     1.320547637517    -0.426963903402
    H           -0.849725496803     2.185097772625    -0.308455291625
    H           -1.473414930941     1.319387500562     1.085572928937
    O            1.484704751818    -0.711890602564    -0.598776909583
    O            1.042929288912     0.644485534620     0.965314461050

  Mulliken Charges: (a.u.)
   Center  Symbol    Alpha    Beta     Spin     Total
       1     H     0.40629  0.40629  0.00000  0.18742
       2     C     3.25016  3.25016  0.00000 -0.50032
       3     C     3.02310  3.02310  0.00000 -0.04619
       4     H     0.39441  0.39441  0.00000  0.21118
       5     H     0.40351  0.40351  0.00000  0.19298
       6     C     3.24378  3.24378  0.00000 -0.48756
       7     N     3.21836  3.21836  0.00000  0.56329
       8     H     0.38687  0.38687  0.00000  0.22626
       9     H     0.41202  0.41202  0.00000  0.17595
      10     H     0.40297  0.40297  0.00000  0.19407
      11     H     0.39972  0.39972  0.00000  0.20055
      12     O     4.23065  4.23065  0.00000 -0.46130
      13     O     4.22816  4.22816  0.00000 -0.45633

   Total alpha = 24.00000, Total beta = 24.00000, Total charge =  0.00000
