  ==> Input File <==

--------------------------------------------------------------------------
set {
	reference rhf
	basis 6-31G*
}

set_num_threads( 1 )
memory 2 gb

molecule MOL {
0 1

O	 -2.042549	 -1.228399	 -0.269030
C	 -1.653912	 -0.146171	 0.050137
C	 -0.332303	 0.024011	 0.778412
C	 -2.438579	 1.106236	 -0.272369
C	 0.845713	 -0.001731	 -0.208243
H	 -0.323783	 0.953829	 1.340327
H	 -0.235459	 -0.796807	 1.480410
C	 1.544105	 1.353695	 -0.326994
H	 0.495665	 -0.311884	 -1.191276
H	 1.556303	 -0.754086	 0.120641
C	 2.721549	 1.328719	 -1.300754
H	 0.824888	 2.104210	 -0.647742
H	 1.893202	 1.663475	 0.655216
H	 2.398273	 1.054895	 -2.301037
H	 3.473134	 0.609876	 -0.987979
H	 3.199048	 2.301456	 -1.362417
H	 -3.277823	 0.863061	 -0.908988
H	 -1.806773	 1.843019	 -0.759671
H	 -2.802853	 1.554979	 0.648059

	symmetry c1
}
set optking {
	frozen_dihedral = ("
		11 8 5 9,
		5 3 2 4
	")
}

ee = energy('scf')
oeprop('DIPOLE', 'QUADRUPOLE', 'MULLIKEN_CHARGES')
f=open( 'psi4out.xyz', 'w' )
f.write( "19  " )
f.write( str(ee) + "\n" )
f.write( MOL.save_string_xyz() )
f.close()
--------------------------------------------------------------------------

    Molecular point group: c1

    Geometry (in Angstrom), charge = 0, multiplicity = 1:

       Center              X                  Y                   Z               Mass
    ------------   -----------------  -----------------  -----------------  -----------------
           O         -1.852762638454    -1.583101394670    -0.033180153735    15.994914619560
           C         -1.464125638454    -0.500873394670     0.285986846265    12.000000000000
           C         -0.142516638454    -0.330691394670     1.014261846265    12.000000000000
           C         -2.248792638454     0.751533605330    -0.036519153735    12.000000000000
           C          1.035499361546    -0.356433394670     0.027606846265    12.000000000000
           H         -0.133996638454     0.599126605330     1.576176846265     1.007825032070
           H         -0.045672638454    -1.151509394670     1.716259846265     1.007825032070
           C          1.733891361546     0.998992605330    -0.091144153735    12.000000000000
           H          0.685451361546    -0.666586394670    -0.955426153735     1.007825032070
           H          1.746089361546    -1.108788394670     0.356490846265     1.007825032070
           C          2.911335361546     0.974016605330    -1.064904153735    12.000000000000
           H          1.014674361546     1.749507605330    -0.411892153735     1.007825032070
           H          2.082988361546     1.308772605330     0.891065846265     1.007825032070
           H          2.588059361546     0.700192605330    -2.065187153735     1.007825032070
           H          3.662920361546     0.255173605330    -0.752129153735     1.007825032070
           H          3.388834361546     1.946753605330    -1.126567153735     1.007825032070
           H         -3.088036638454     0.508358605330    -0.673138153735     1.007825032070
           H         -1.616986638454     1.488316605330    -0.523821153735     1.007825032070
           H         -2.613066638454     1.200276605330     0.883908846265     1.007825032070

  Charge       = 0
  Multiplicity = 1
  Basis Set: 6-31G*
  Basis Set:

    Orbital Energies (a.u.)
    -----------------------

    Doubly Occupied:

       1A    -20.546338     2A    -11.324388     3A    -11.229474
       4A    -11.228549     5A    -11.227848     6A    -11.226746
       7A    -11.215801     8A     -1.392601     9A     -1.092811
      10A     -1.028352    11A     -0.984849    12A     -0.890214
      13A     -0.809221    14A     -0.734747    15A     -0.661098
      16A     -0.644388    17A     -0.622038    18A     -0.610524
      19A     -0.585679    20A     -0.576198    21A     -0.559171
      22A     -0.529520    23A     -0.517399    24A     -0.505549
      25A     -0.481758    26A     -0.474032    27A     -0.461542
      28A     -0.396796

  @DF-RHF Final Energy:  -309.05917173334649

   => Energetics <=

    Nuclear Repulsion Energy =            304.6602522908469837
    One-Electron Energy =               -1022.3234358042076337
    Two-Electron Energy =                 408.6040117800140479
    DFT Exchange-Correlation Energy =       0.0000000000000000
    Empirical Dispersion Energy =           0.0000000000000000
    PCM Polarization Energy =               0.0000000000000000
    EFP Energy =                            0.0000000000000000
    Total Energy =                       -309.0591717333466022

  Mulliken Charges: (a.u.)
   Center  Symbol    Alpha    Beta     Spin     Total
       1     O     4.26171  4.26171  0.00000 -0.52341
       2     C     2.74098  2.74098  0.00000  0.51804
       3     C     3.20247  3.20247  0.00000 -0.40493
       4     C     3.29016  3.29016  0.00000 -0.58032
       5     C     3.15990  3.15990  0.00000 -0.31979
       6     H     0.41430  0.41430  0.00000  0.17141
       7     H     0.39851  0.39851  0.00000  0.20298
       8     C     3.15592  3.15592  0.00000 -0.31184
       9     H     0.40981  0.40981  0.00000  0.18038
      10     H     0.41147  0.41147  0.00000  0.17707
      11     C     3.24066  3.24066  0.00000 -0.48132
      12     H     0.42366  0.42366  0.00000  0.15269
      13     H     0.42034  0.42034  0.00000  0.15931
      14     H     0.41960  0.41960  0.00000  0.16080
      15     H     0.41948  0.41948  0.00000  0.16103
      16     H     0.41777  0.41777  0.00000  0.16446
      17     H     0.39713  0.39713  0.00000  0.20574
      18     H     0.40968  0.40968  0.00000  0.18064
      19     H     0.40648  0.40648  0.00000  0.18705

   Total alpha = 28.00000, Total beta = 28.00000, Total charge =  0.00000
