  ==> Input File <==

--------------------------------------------------------------------------
set {
	reference rhf
	basis 6-31G*
}

set_num_threads( 4 )
memory 2 gb

molecule MOL {
0 1

O	 2.876414	 1.334293	 -0.231951
C	 2.843464	 0.164689	 -0.000222
C	 1.546494	 -0.624492	 -0.000609
C	 4.105166	 -0.613673	 0.311892
C	 0.291004	 0.242674	 0.000989
H	 1.557904	 -1.283758	 -0.867573
H	 1.558622	 -1.285963	 0.864672
C	 -0.994322	 -0.586602	 0.000262
H	 0.309117	 0.896430	 -0.865270
H	 0.309661	 0.894078	 0.869017
C	 -2.259874	 0.272531	 0.000494
H	 -1.004862	 -1.240012	 -0.870939
H	 -1.005220	 -1.241071	 0.870675
C	 -3.549786	 -0.549746	 -0.000374
H	 -2.250389	 0.926680	 -0.869574
H	 -2.250838	 0.925513	 0.871430
C	 -4.809590	 0.315458	 -0.000369
H	 -3.560515	 -1.202009	 -0.871156
H	 -3.561123	 -1.202955	 0.869711
H	 -4.844746	 0.956611	 -0.876632
H	 -5.706986	 -0.295590	 -0.001609
H	 -4.845960	 0.954827	 0.877144
H	 4.242901	 -1.416267	 -0.406780
H	 4.959228	 0.048515	 0.281568
H	 4.035106	 -1.070043	 1.294976

	symmetry c1
}
set optking {
	frozen_dihedral = ("
		1 2 3 6
	")
}

ee = optimize('scf')
oeprop('DIPOLE', 'QUADRUPOLE', 'MULLIKEN_CHARGES')
f=open( 'psi4out.xyz', 'w' )
f.write( "25  " )
f.write( str(ee) + "\n" )
f.write( MOL.save_string_xyz() )
f.close()
--------------------------------------------------------------------------

    Molecular point group: c1
  Charge       = 0
  Multiplicity = 1
  Basis Set: 6-31G*
  Basis Set:
  @DF-RHF Final Energy:  -387.13628065230944
    Total Energy =                       -387.1362806523101199
    Molecular point group: c1
  Basis Set: 6-31G*
  Basis Set:
  Basis Set: 6-31G*
  Basis Set:
  @DF-RHF Final Energy:  -387.13529660126818
    Total Energy =                       -387.1352966012688057
  Basis Set: 6-31G*
  Basis Set:
  Basis Set: 6-31G*
  Basis Set:
  @DF-RHF Final Energy:  -387.13637346139421
    Total Energy =                       -387.1363734613945553
  Basis Set: 6-31G*
  Basis Set:
  Basis Set: 6-31G*
  Basis Set:
  @DF-RHF Final Energy:  -387.13641914992536
    Total Energy =                       -387.1364191499253593
  Basis Set: 6-31G*
  Basis Set:
  @DF-RHF Final Energy:  -387.13643352378841
    Total Energy =                       -387.1364335237879004
  Basis Set: 6-31G*
  Basis Set:
  @DF-RHF Final Energy:  -387.13644192286682
    Total Energy =                       -387.1364419228672205
  Basis Set: 6-31G*
  Basis Set:
  Basis Set: 6-31G*
  Basis Set:
  @DF-RHF Final Energy:  -387.13644351077994
    Total Energy =                       -387.1364435107801683
  Basis Set: 6-31G*
  Basis Set:
  Basis Set: 6-31G*
  Basis Set:
  @DF-RHF Final Energy:  -387.13644547954021
    Total Energy =                       -387.1364454795402708
  Basis Set: 6-31G*
  Basis Set:
  Charge       = 0
  Multiplicity = 1
  Basis Set: 6-31G*
  Basis Set:

    Orbital Energies (a.u.)
    -----------------------

    Doubly Occupied:

       1A    -20.550029     2A    -11.326307     3A    -11.231884
       4A    -11.228431     5A    -11.217368     6A    -11.216759
       7A    -11.215469     8A    -11.213655     9A    -11.208392
      10A     -1.395531    11A     -1.093755    12A     -1.056413
      13A     -1.014581    14A     -0.969334    15A     -0.890810
      16A     -0.814187    17A     -0.790942    18A     -0.729901
      19A     -0.661861    20A     -0.651426    21A     -0.632227
      22A     -0.623375    23A     -0.596244    24A     -0.584310
      25A     -0.566623    26A     -0.560347    27A     -0.540350
      28A     -0.526584    29A     -0.512824    30A     -0.489983
      31A     -0.487425    32A     -0.473330    33A     -0.463849
      34A     -0.462510    35A     -0.450801    36A     -0.398972

  @DF-RHF Final Energy:  -387.13644585892416

   => Energetics <=

    Nuclear Repulsion Energy =            438.3266153730805854
    One-Electron Energy =               -1393.2325461106279363
    Two-Electron Energy =                 567.7694848786228476
    DFT Exchange-Correlation Energy =       0.0000000000000000
    Empirical Dispersion Energy =           0.0000000000000000
    PCM Polarization Energy =               0.0000000000000000
    EFP Energy =                            0.0000000000000000
    Total Energy =                       -387.1364458589245032
    Molecular point group: c1
  Basis Set: 6-31G*
  Basis Set:

  -Total Gradient:
     Atom            X                  Y                   Z
    ------   -----------------  -----------------  -----------------
       1        0.000064093513    -0.000107632344    -0.000543249318
       2       -0.000134820984     0.000227656643     0.000714276112
       3        0.000309620525    -0.000513724450     0.000115848103
       4        0.000001100654     0.000006621515     0.000000566869
       5       -0.000000212187    -0.000003385143     0.000010601540
       6       -0.000238960994     0.000388241713    -0.000284379096
       7       -0.000000177777    -0.000000452294     0.000001253978
       8       -0.000001058647     0.000002684954    -0.000008496683
       9       -0.000002309025    -0.000000800227    -0.000000096582
      10        0.000001148258     0.000001236048    -0.000002134546
      11       -0.000001592281    -0.000001467452    -0.000003394068
      12       -0.000002833371    -0.000002479234    -0.000000776631
      13        0.000003104298     0.000003250836    -0.000001277474
      14       -0.000000752316     0.000001057602     0.000001039171
      15        0.000001255656     0.000002267275     0.000000261751
      16       -0.000001058761    -0.000002587785    -0.000000265957
      17       -0.000000768831    -0.000000734978     0.000004124966
      18        0.000004067422    -0.000000141353     0.000000190813
      19       -0.000004323056     0.000000165969     0.000000069907
      20        0.000001026250    -0.000001441801    -0.000000268783
      21       -0.000000478861     0.000000223543     0.000000067691
      22       -0.000000863533     0.000001341265    -0.000000311738
      23       -0.000000367226     0.000001108362    -0.000002745266
      24        0.000005526047    -0.000003995843     0.000001454006
      25       -0.000000364767     0.000002987179    -0.000002358765

  **** Optimization is complete! (in 9 steps) ****
    Final optimized geometry and variables:
    Molecular point group: c1

    Geometry (in Angstrom), charge = 0, multiplicity = 1:

    O            2.871149510351     1.338977998613    -0.211244003511
    C            2.843591490571     0.165705046580     0.001977421399
    C            1.547849889466    -0.625446773751     0.006589525818
    C            4.111324589367    -0.617396004463     0.272652571151
    C            0.291420607609     0.241231136696     0.008783208781
    H            1.563436668923    -1.264915898869    -0.876014151917
    H            1.555724745631    -1.302727879407     0.858422627272
    C           -0.993566949252    -0.588250714724    -0.012163699187
    H            0.317876476545     0.905636124677    -0.848083911956
    H            0.301334700102     0.881290985591     0.886453775951
    C           -2.259411336414     0.270470651008    -0.008752908179
    H           -0.997245526377    -1.228708288038    -0.892982228762
    H           -1.010622470975    -1.255445052297     0.848410752122
    C           -3.548969895547    -0.552048415974    -0.031785556633
    H           -2.243362718446     0.937551411623    -0.868785311005
    H           -2.257447827103     0.910334876162     0.871966124266
    C           -4.809055866319     0.312735257231    -0.028166016795
    H           -3.552846282466    -1.191003726283    -0.912425997671
    H           -3.566651926037    -1.218401195269     0.828171706732
    H           -4.838123281381     0.966611999342    -0.895180144058
    H           -5.706171420388    -0.298476344386    -0.044819001383
    H           -4.852005963200     0.939186234954     0.858330580967
    H            4.155385754934    -1.512044344746    -0.340839350532
    H            4.974700684352     0.003813481621     0.078715010107
    H            4.128155169466    -0.937044712882     1.311125936306

  Mulliken Charges: (a.u.)
   Center  Symbol    Alpha    Beta     Spin     Total
       1     O     4.26173  4.26173  0.00000 -0.52345
       2     C     2.73486  2.73486  0.00000  0.53028
       3     C     3.21127  3.21127  0.00000 -0.42253
       4     C     3.28695  3.28695  0.00000 -0.57389
       5     C     3.14884  3.14884  0.00000 -0.29767
       6     H     0.40752  0.40752  0.00000  0.18495
       7     H     0.41194  0.41194  0.00000  0.17612
       8     C     3.15381  3.15381  0.00000 -0.30763
       9     H     0.40873  0.40873  0.00000  0.18254
      10     H     0.41531  0.41531  0.00000  0.16937
      11     C     3.15076  3.15076  0.00000 -0.30152
      12     H     0.42453  0.42453  0.00000  0.15093
      13     H     0.42504  0.42504  0.00000  0.14992
      14     C     3.15152  3.15152  0.00000 -0.30304
      15     H     0.42213  0.42213  0.00000  0.15574
      16     H     0.42275  0.42275  0.00000  0.15450
      17     C     3.23934  3.23934  0.00000 -0.47868
      18     H     0.42341  0.42341  0.00000  0.15318
      19     H     0.42361  0.42361  0.00000  0.15278
      20     H     0.42127  0.42127  0.00000  0.15747
      21     H     0.41951  0.41951  0.00000  0.16098
      22     H     0.42146  0.42146  0.00000  0.15707
      23     H     0.41032  0.41032  0.00000  0.17936
      24     H     0.39669  0.39669  0.00000  0.20661
      25     H     0.40669  0.40669  0.00000  0.18661

   Total alpha = 36.00000, Total beta = 36.00000, Total charge = -0.00000
