  ==> Input File <==

--------------------------------------------------------------------------
set {
	reference rhf
	basis cc-pvtz
}

set_num_threads( 4 )
memory 2 gb

molecule MOL {
0 1

H	 2.008611	 -0.593329	 0.838726
O	 1.583947	 -0.677544	 -0.001533
C	 0.489979	 0.078084	 0.002623
C	 -0.763662	 -0.754014	 0.000816
O	 0.539051	 1.259395	 -0.000088
C	 -2.038001	 0.074705	 -0.000833
H	 -0.712945	 -1.405886	 -0.864342
H	 -0.715137	 -1.405770	 0.866182
H	 -2.087267	 0.710831	 -0.874232
H	 -2.903419	 -0.576199	 -0.001922
H	 -2.089467	 0.710909	 0.872389

	symmetry c1
}
set optking {
	frozen_dihedral = ("
		1 2 3 5
	")
}

ee = optimize('scf')
oeprop('DIPOLE', 'QUADRUPOLE', 'MULLIKEN_CHARGES')
f=open( 'psi4out.xyz', 'w' )
f.write( "11  " )
f.write( str(ee) + "\n" )
f.write( MOL.save_string_xyz() )
f.close()
--------------------------------------------------------------------------

    Molecular point group: c1
  Charge       = 0
  Multiplicity = 1
  Basis Set: CC-PVTZ
  Basis Set:
  @DF-RHF Final Energy:  -266.93524498246660
    Total Energy =                       -266.9352449824664291
    Molecular point group: c1
  Basis Set: CC-PVTZ
  Basis Set:
  Basis Set: CC-PVTZ
  Basis Set:
  @DF-RHF Final Energy:  -266.93398146266145
    Total Energy =                       -266.9339814626612224
  Basis Set: CC-PVTZ
  Basis Set:
  Basis Set: CC-PVTZ
  Basis Set:
  @DF-RHF Final Energy:  -266.93631089091923
    Total Energy =                       -266.9363108909192306
  Basis Set: CC-PVTZ
  Basis Set:
  Basis Set: CC-PVTZ
  Basis Set:
  @DF-RHF Final Energy:  -266.93670830046256
    Total Energy =                       -266.9367083004625556
  Basis Set: CC-PVTZ
  Basis Set:
  Basis Set: CC-PVTZ
  Basis Set:
  @DF-RHF Final Energy:  -266.93671456221676
    Total Energy =                       -266.9367145622168778
  Basis Set: CC-PVTZ
  Basis Set:
  Charge       = 0
  Multiplicity = 1
  Basis Set: CC-PVTZ
  Basis Set:

    Orbital Energies (a.u.)
    -----------------------

    Doubly Occupied:

       1A    -20.589308     2A    -20.550358     3A    -11.374992
       4A    -11.243467     5A    -11.219356     6A     -1.465908
       7A     -1.371343     8A     -1.065233     9A     -0.913403
      10A     -0.806494    11A     -0.712043    12A     -0.682334
      13A     -0.661320    14A     -0.613783    15A     -0.570973
      16A     -0.529002    17A     -0.525565    18A     -0.503913
      19A     -0.492983    20A     -0.449231

  @DF-RHF Final Energy:  -266.93671526602952

   => Energetics <=

    Nuclear Repulsion Energy =            179.4784556920976968
    One-Electron Energy =                -720.1483239042515834
    Two-Electron Energy =                 273.7331529461243917
    DFT Exchange-Correlation Energy =       0.0000000000000000
    Empirical Dispersion Energy =           0.0000000000000000
    PCM Polarization Energy =               0.0000000000000000
    EFP Energy =                            0.0000000000000000
    Total Energy =                       -266.9367152660295233
    Molecular point group: c1
  Basis Set: CC-PVTZ
  Basis Set:

  -Total Gradient:
     Atom            X                  Y                   Z
    ------   -----------------  -----------------  -----------------
       1       -0.004129315262    -0.006411165716     0.003122812027
       2        0.004861466539     0.008071315131    -0.007230824733
       3       -0.000233873093    -0.001633814195     0.011323277262
       4        0.000015140214     0.000024569515     0.000076465112
       5       -0.000528787416    -0.000043118911    -0.007237054533
       6        0.000002258884    -0.000007200146    -0.000023748340
       7        0.000006980407     0.000000478806    -0.000023067552
       8        0.000001363147    -0.000003455895    -0.000022078210
       9        0.000002559972    -0.000000269412     0.000000706104
      10        0.000002341985     0.000001112209     0.000004564282
      11       -0.000000135374     0.000001548615     0.000008948581

  **** Optimization is complete! (in 6 steps) ****
    Final optimized geometry and variables:
    Molecular point group: c1

    Geometry (in Angstrom), charge = 0, multiplicity = 1:

    H            2.122303889193    -0.616018809616     0.740284884918
    O            1.611235890191    -0.672117840868    -0.050332197273
    C            0.490531397471     0.087422425025     0.026485854159
    C           -0.765576309961    -0.740674882651     0.000829376702
    O            0.531528929909     1.262008568792     0.021564588354
    C           -2.043412004075     0.080779804263    -0.039638093559
    H           -0.686514740206    -1.400529563415    -0.856495777582
    H           -0.737869655978    -1.390267042946     0.870375440412
    H           -2.071823430703     0.710460702748    -0.918801898657
    H           -2.906584235892    -0.573047128594    -0.059060533408
    H           -2.121275171452     0.723741726204     0.826986929032

  Mulliken Charges: (a.u.)
   Center  Symbol    Alpha    Beta     Spin     Total
       1     H     0.38391  0.38391  0.00000  0.23218
       2     O     4.17674  4.17674  0.00000 -0.35347
       3     C     2.80282  2.80282  0.00000  0.39436
       4     C     3.09982  3.09982  0.00000 -0.19963
       5     O     4.16613  4.16613  0.00000 -0.33225
       6     C     3.13967  3.13967  0.00000 -0.27934
       7     H     0.43838  0.43838  0.00000  0.12324
       8     H     0.44701  0.44701  0.00000  0.10597
       9     H     0.44677  0.44677  0.00000  0.10646
      10     H     0.44991  0.44991  0.00000  0.10018
      11     H     0.44885  0.44885  0.00000  0.10230

   Total alpha = 20.00000, Total beta = 20.00000, Total charge = -0.00000
