  ==> Input File <==

--------------------------------------------------------------------------
set {
	reference rhf
	basis cc-pvtz
}

set_num_threads( 4 )
memory 2 gb

molecule MOL {
0 1

H	 2.718619	 -0.072928	 -0.609727
N	 1.743876	 0.133688	 -0.619506
C	 1.255860	 0.364451	 0.725273
C	 1.003374	 -0.921649	 -1.281142
H	 1.817101	 1.176522	 1.171258
H	 1.370625	 -0.513364	 1.363935
C	 -0.214989	 0.735521	 0.670635
H	 1.381658	 -1.041517	 -2.289054
H	 1.102187	 -1.880721	 -0.769247
C	 -0.467144	 -0.548895	 -1.333152
H	 -0.319834	 1.699526	 0.164382
H	 -0.596415	 0.850831	 1.678274
N	 -0.976577	 -0.298712	 -0.000000
H	 -1.030895	 -1.362298	 -1.774376
H	 -0.589361	 0.326625	 -1.977449
C	 -2.391156	 -0.021003	 -0.000000
H	 -2.853954	 -0.458728	 -0.875714
H	 -2.853954	 -0.458728	 0.875714
H	 -2.614037	 1.049773	 -0.000000

	symmetry c1
}
set optking {
	frozen_dihedral = ("
		7 13 16 19
	")
}

ee = optimize('scf')
oeprop('DIPOLE', 'QUADRUPOLE', 'MULLIKEN_CHARGES')
f=open( 'psi4out.xyz', 'w' )
f.write( "19  " )
f.write( str(ee) + "\n" )
f.write( MOL.save_string_xyz() )
f.close()
--------------------------------------------------------------------------

    Molecular point group: c1
  Charge       = 0
  Multiplicity = 1
  Basis Set: CC-PVTZ
  Basis Set:
  @DF-RHF Final Energy:  -305.30524474478028
    Total Energy =                       -305.3052447447803388
    Molecular point group: c1
  Basis Set: CC-PVTZ
  Basis Set:
  Basis Set: CC-PVTZ
  Basis Set:
  @DF-RHF Final Energy:  -305.30547479544344
    Total Energy =                       -305.3054747954431036
  Basis Set: CC-PVTZ
  Basis Set:
  Basis Set: CC-PVTZ
  Basis Set:
  @DF-RHF Final Energy:  -305.30551716178934
    Total Energy =                       -305.3055171617893393
  Basis Set: CC-PVTZ
  Basis Set:
  Charge       = 0
  Multiplicity = 1
  Basis Set: CC-PVTZ
  Basis Set:

    Orbital Energies (a.u.)
    -----------------------

    Doubly Occupied:

       1A    -15.536011     2A    -15.530861     3A    -11.236929
       4A    -11.236820     5A    -11.235781     6A    -11.235716
       7A    -11.232982     8A     -1.247834     9A     -1.186573
      10A     -1.023401    11A     -0.965214    12A     -0.861010
      13A     -0.858912    14A     -0.758039    15A     -0.692348
      16A     -0.632848    17A     -0.625868    18A     -0.608486
      19A     -0.604967    20A     -0.581010    21A     -0.544053
      22A     -0.531535    23A     -0.513631    24A     -0.489427
      25A     -0.466679    26A     -0.457165    27A     -0.365553
      28A     -0.347205

  @DF-RHF Final Energy:  -305.30551877282119

   => Energetics <=

    Nuclear Repulsion Energy =            340.0703236086501420
    One-Electron Energy =               -1087.5379621178080924
    Two-Electron Energy =                 442.1621197363372175
    DFT Exchange-Correlation Energy =       0.0000000000000000
    Empirical Dispersion Energy =           0.0000000000000000
    PCM Polarization Energy =               0.0000000000000000
    EFP Energy =                            0.0000000000000000
    Total Energy =                       -305.3055187728207329
    Molecular point group: c1
  Basis Set: CC-PVTZ
  Basis Set:

  -Total Gradient:
     Atom            X                  Y                   Z
    ------   -----------------  -----------------  -----------------
       1       -0.000028631035    -0.000002528856     0.000003038032
       2       -0.000026680099     0.000000830242     0.000008342356
       3        0.000042345539    -0.000001628414     0.000030594964
       4        0.000052930861     0.000008889415    -0.000031719227
       5        0.000017813854    -0.000001292339    -0.000003618617
       6        0.000007873381    -0.000002889031     0.000002767246
       7        0.000315965273     0.001751160503    -0.003347200391
       8        0.000037217360    -0.000005239622    -0.000012135502
       9       -0.000012309856     0.000018981991    -0.000002104115
      10       -0.000034947883    -0.000018885863     0.000149058501
      11       -0.000012850279     0.000024755956     0.000003537874
      12        0.000007451917     0.000000895441    -0.000007281882
      13       -0.000503721010    -0.002468424815     0.005846279990
      14       -0.000002735355     0.000013330302     0.000006942440
      15        0.000013610836    -0.000005101115    -0.000002543100
      16        0.000125825629     0.000698762669    -0.007706787854
      17       -0.000010151985    -0.000000151589    -0.000008340915
      18       -0.000006150176    -0.000002207005     0.000025739407
      19        0.000017143026    -0.000009257869     0.005045430793

  **** Optimization is complete! (in 4 steps) ****
    Final optimized geometry and variables:
    Molecular point group: c1

    Geometry (in Angstrom), charge = 0, multiplicity = 1:

    H            2.739110415967    -0.003198400894    -0.332460895869
    N            1.765652167548     0.209260120540    -0.348818295809
    C            1.268345420084     0.440276468318     0.992157331586
    C            1.023569787856    -0.839404597859    -1.018691163983
    H            1.824836077748     1.254035387398     1.441412597260
    H            1.379445539930    -0.436335590590     1.633149630770
    C           -0.202213929984     0.809463460503     0.924729466235
    H            1.406424175789    -0.956894669454    -2.025351616203
    H            1.115132452960    -1.801226214752    -0.510391238851
    C           -0.446199088279    -0.463074043047    -1.076997750463
    H           -0.306342281226     1.767408033923     0.408125227558
    H           -0.588431230231     0.935986773382     1.929980499248
    N           -0.963590310288    -0.229187335813     0.258933635978
    H           -1.003740610087    -1.273596889245    -1.530028893328
    H           -0.561347462543     0.417822860867    -1.715050062559
    C           -2.385548435320     0.053118277194     0.270328933393
    H           -2.875010226388    -0.400779360412    -0.580175261661
    H           -2.839516920351    -0.352927277922     1.168689071280
    H           -2.599270790967     1.122061639830     0.271195762574

  Mulliken Charges: (a.u.)
   Center  Symbol    Alpha    Beta     Spin     Total
       1     H     0.44002  0.44002  0.00000  0.11997
       2     N     3.64287  3.64287  0.00000 -0.28574
       3     C     3.04137  3.04137  0.00000 -0.08275
       4     C     3.04187  3.04187  0.00000 -0.08374
       5     H     0.45259  0.45259  0.00000  0.09482
       6     H     0.46544  0.46544  0.00000  0.06912
       7     C     3.03596  3.03596  0.00000 -0.07193
       8     H     0.45259  0.45259  0.00000  0.09482
       9     H     0.46564  0.46564  0.00000  0.06872
      10     C     3.03323  3.03323  0.00000 -0.06646
      11     H     0.46751  0.46751  0.00000  0.06499
      12     H     0.45375  0.45375  0.00000  0.09250
      13     N     3.61687  3.61687  0.00000 -0.23374
      14     H     0.45413  0.45413  0.00000  0.09175
      15     H     0.46908  0.46908  0.00000  0.06185
      16     C     3.09517  3.09517  0.00000 -0.19034
      17     H     0.45501  0.45501  0.00000  0.08998
      18     H     0.45035  0.45035  0.00000  0.09930
      19     H     0.46656  0.46656  0.00000  0.06687

   Total alpha = 28.00000, Total beta = 28.00000, Total charge =  0.00000
