  ==> Input File <==

--------------------------------------------------------------------------
set {
	reference rhf
	basis 6-31G*
}

set_num_threads( 4 )
memory 2 gb

molecule MOL {
0 1

H	 1.053869	 1.831728	 -0.271446
O	 0.230959	 1.352808	 -0.285053
C	 0.489431	 0.077273	 0.000046
C	 -0.764129	 -0.759190	 0.000191
O	 1.589465	 -0.312156	 0.221031
C	 -2.038368	 0.075731	 -0.000248
H	 -0.717284	 -1.412404	 -0.866059
H	 -0.717458	 -1.411724	 0.866967
H	 -2.086483	 0.712501	 -0.875098
H	 -2.908485	 -0.571682	 -0.000042
H	 -2.086576	 0.713280	 0.874068

	symmetry c1
}
set optking {
	frozen_dihedral = ("
		2 3 4 7
	")
}

ee = optimize('scf')
oeprop('DIPOLE', 'QUADRUPOLE', 'MULLIKEN_CHARGES')
f=open( 'psi4out.xyz', 'w' )
f.write( "11  " )
f.write( str(ee) + "\n" )
f.write( MOL.save_string_xyz() )
f.close()
--------------------------------------------------------------------------

    Molecular point group: c1
  Charge       = 0
  Multiplicity = 1
  Basis Set: 6-31G*
  Basis Set:
  @DF-RHF Final Energy:  -266.84235609789488
    Total Energy =                       -266.8423560978947080
    Molecular point group: c1
  Basis Set: 6-31G*
  Basis Set:
  Basis Set: 6-31G*
  Basis Set:
  @DF-RHF Final Energy:  -266.84310694356839
    Total Energy =                       -266.8431069435681025
  Basis Set: 6-31G*
  Basis Set:
  Basis Set: 6-31G*
  Basis Set:
  @DF-RHF Final Energy:  -266.84278952138243
    Total Energy =                       -266.8427895213823149
  Basis Set: 6-31G*
  Basis Set:
  Basis Set: 6-31G*
  Basis Set:
  @DF-RHF Final Energy:  -266.84348117944143
    Total Energy =                       -266.8434811794414827
  Basis Set: 6-31G*
  Basis Set:
  Basis Set: 6-31G*
  Basis Set:
  @DF-RHF Final Energy:  -266.84348844597923
    Total Energy =                       -266.8434884459790624
  Basis Set: 6-31G*
  Basis Set:
  Charge       = 0
  Multiplicity = 1
  Basis Set: 6-31G*
  Basis Set:

    Orbital Energies (a.u.)
    -----------------------

    Doubly Occupied:

       1A    -20.616414     2A    -20.547966     3A    -11.382517
       4A    -11.244550     5A    -11.224620     6A     -1.476687
       7A     -1.365305     8A     -1.066325     9A     -0.909186
      10A     -0.823867    11A     -0.701723    12A     -0.674460
      13A     -0.660293    14A     -0.596586    15A     -0.586728
      16A     -0.554068    17A     -0.524075    18A     -0.516126
      19A     -0.470703    20A     -0.440075

  @DF-RHF Final Energy:  -266.84348971969672

   => Energetics <=

    Nuclear Repulsion Energy =            180.0517487652725777
    One-Electron Energy =                -721.0259265516418736
    Two-Electron Energy =                 274.1306880666726329
    DFT Exchange-Correlation Energy =       0.0000000000000000
    Empirical Dispersion Energy =           0.0000000000000000
    PCM Polarization Energy =               0.0000000000000000
    EFP Energy =                            0.0000000000000000
    Total Energy =                       -266.8434897196966631
    Molecular point group: c1
  Basis Set: 6-31G*
  Basis Set:

  -Total Gradient:
     Atom            X                  Y                   Z
    ------   -----------------  -----------------  -----------------
       1       -0.000005394259    -0.000036301091     0.000005034129
       2       -0.000144185874     0.000161711817     0.000378511272
       3        0.000223042548    -0.000269134390    -0.000475692906
       4       -0.000253458017     0.000486613268    -0.000147442877
       5       -0.000071317271    -0.000022431854    -0.000005217266
       6        0.000010013672    -0.000014347047    -0.000017652027
       7        0.000230485016    -0.000319501980     0.000247311204
       8        0.000008297004     0.000007703154     0.000008934511
       9        0.000003039844     0.000000861310     0.000001119233
      10       -0.000002673820     0.000002971065     0.000001339635
      11        0.000002151152     0.000001855746     0.000003755092

  **** Optimization is complete! (in 6 steps) ****
    Final optimized geometry and variables:
    Molecular point group: c1

    Geometry (in Angstrom), charge = 0, multiplicity = 1:

    H            1.235610293702     1.683123538117    -0.255920306003
    O            0.384951064995     1.254663236942    -0.265369407259
    C            0.573729118738    -0.030855760832     0.018539094239
    C           -0.694140758443    -0.852425640070     0.018265062070
    O            1.653967196695    -0.476965556197     0.234765327465
    C           -2.005687313181    -0.072108585011     0.018327416014
    H           -0.630793685803    -1.498804546859    -0.852845285253
    H           -0.626240073075    -1.508782830263     0.878171934017
    H           -2.097424488911     0.549520403697    -0.863396423389
    H           -2.841996519992    -0.762480523279     0.035432111477
    H           -2.083171948875     0.570462292242     0.887824737597

  Mulliken Charges: (a.u.)
   Center  Symbol    Alpha    Beta     Spin     Total
       1     H     0.26717  0.26717  0.00000  0.46567
       2     O     4.34810  4.34810  0.00000 -0.69621
       3     C     2.62387  2.62387  0.00000  0.75227
       4     C     3.21113  3.21113  0.00000 -0.42225
       5     O     4.28195  4.28195  0.00000 -0.56390
       6     C     3.24042  3.24042  0.00000 -0.48084
       7     H     0.39611  0.39611  0.00000  0.20777
       8     H     0.39497  0.39497  0.00000  0.21007
       9     H     0.40862  0.40862  0.00000  0.18276
      10     H     0.41526  0.41526  0.00000  0.16947
      11     H     0.41240  0.41240  0.00000  0.17520

   Total alpha = 20.00000, Total beta = 20.00000, Total charge =  0.00000
