  ==> Input File <==

--------------------------------------------------------------------------
set {
	reference rhf
	basis 6-31G*
}

set_num_threads( 1 )
memory 2 gb

molecule MOL {
0 1

H	 -2.798360	 -0.862255	 -0.071053
N	 -1.863561	 -0.715187	 0.256814
C	 -1.344686	 0.554728	 -0.219830
H	 -1.300452	 -1.461917	 -0.101532
C	 -1.873092	 1.684311	 0.639219
H	 -0.255182	 0.608877	 -0.226944
H	 -1.685013	 0.707872	 -1.239392
O	 -1.367139	 1.524509	 1.933654
H	 -1.560923	 2.645445	 0.231284
H	 -2.960391	 1.655538	 0.652898
C	 -1.843733	 2.452568	 2.855138
H	 -1.386131	 2.231648	 3.809859
H	 -1.582576	 3.469399	 2.567328
H	 -2.924986	 2.390296	 2.959181

	symmetry c1
}
set optking {
	frozen_dihedral = ("
		8 5 3 6,
		5 8 11 13,
		11 8 5 3
	")
}

ee = energy('scf')
oeprop('DIPOLE', 'QUADRUPOLE', 'MULLIKEN_CHARGES')
f=open( 'psi4out.xyz', 'w' )
f.write( "14  " )
f.write( str(ee) + "\n" )
f.write( MOL.save_string_xyz() )
f.close()
--------------------------------------------------------------------------

    Molecular point group: c1

    Geometry (in Angstrom), charge = 0, multiplicity = 1:

       Center              X                  Y                   Z               Mass
    ------------   -----------------  -----------------  -----------------  -----------------
           H         -1.129432326825    -1.956494837408    -1.169623174920     1.007825032070
           N         -0.194633326825    -1.809426837408    -0.841756174920    14.003074004780
           C          0.324241673175    -0.539511837408    -1.318400174920    12.000000000000
           H          0.368475673175    -2.556156837408    -1.200102174920     1.007825032070
           C         -0.204164326825     0.590071162592    -0.459351174920    12.000000000000
           H          1.413745673175    -0.485362837408    -1.325514174920     1.007825032070
           H         -0.016085326825    -0.386367837408    -2.337962174920     1.007825032070
           O          0.301788673175     0.430269162592     0.835083825080    15.994914619560
           H          0.108004673175     1.551205162592    -0.867286174920     1.007825032070
           H         -1.291463326825     0.561298162592    -0.445672174920     1.007825032070
           C         -0.174805326825     1.358328162592     1.756567825080    12.000000000000
           H          0.282796673175     1.137408162592     2.711288825080     1.007825032070
           H          0.086351673175     2.375159162592     1.468757825080     1.007825032070
           H         -1.256058326825     1.296056162592     1.860610825080     1.007825032070

  Charge       = 0
  Multiplicity = 1
  Basis Set: 6-31G*
  Basis Set:

    Orbital Energies (a.u.)
    -----------------------

    Doubly Occupied:

       1A    -20.545725     2A    -15.530137     3A    -11.263383
       4A    -11.258537     5A    -11.242893     6A     -1.370250
       7A     -1.176409     8A     -0.996618     9A     -0.900647
      10A     -0.815066    11A     -0.681784    12A     -0.663397
      13A     -0.642745    14A     -0.618899    15A     -0.591258
      16A     -0.548816    17A     -0.519996    18A     -0.501693
      19A     -0.460691    20A     -0.409980    21A     -0.377435

  @DF-RHF Final Energy:  -248.11680695086204

   => Energetics <=

    Nuclear Repulsion Energy =            194.0290948878894142
    One-Electron Energy =                -722.0589301478204334
    Two-Electron Energy =                 279.9130283090693183
    DFT Exchange-Correlation Energy =       0.0000000000000000
    Empirical Dispersion Energy =           0.0000000000000000
    PCM Polarization Energy =               0.0000000000000000
    EFP Energy =                            0.0000000000000000
    Total Energy =                       -248.1168069508617009

  Mulliken Charges: (a.u.)
   Center  Symbol    Alpha    Beta     Spin     Total
       1     H     0.33483  0.33483  0.00000  0.33035
       2     N     3.91240  3.91240  0.00000 -0.82480
       3     C     3.07737  3.07737  0.00000 -0.15473
       4     H     0.33167  0.33167  0.00000  0.33666
       5     C     2.98097  2.98097  0.00000  0.03805
       6     H     0.41149  0.41149  0.00000  0.17702
       7     H     0.43251  0.43251  0.00000  0.13499
       8     O     4.29745  4.29745  0.00000 -0.59490
       9     H     0.43251  0.43251  0.00000  0.13498
      10     H     0.43493  0.43493  0.00000  0.13015
      11     C     3.07733  3.07733  0.00000 -0.15467
      12     H     0.41223  0.41223  0.00000  0.17555
      13     H     0.43348  0.43348  0.00000  0.13304
      14     H     0.43084  0.43084  0.00000  0.13832

   Total alpha = 21.00000, Total beta = 21.00000, Total charge = -0.00000
