  ==> Input File <==

--------------------------------------------------------------------------
set {
	reference rhf
	basis cc-pvtz
}

set_num_threads( 4 )
memory 2 gb

molecule MOL {
0 1

O	 -2.440701	 -0.934798	 -0.415053
C	 -1.922978	 0.063265	 -0.045005
C	 -2.632749	 1.372204	 0.158357
O	 -0.637375	 0.157174	 0.243149
H	 -2.187724	 2.129143	 -0.474664
H	 -3.677681	 1.257276	 -0.079438
H	 -2.516788	 1.693160	 1.185542
C	 0.162530	 -1.009518	 0.097799
C	 1.587210	 -0.664190	 0.477086
H	 0.096803	 -1.356267	 -0.924704
H	 -0.233803	 -1.785900	 0.736810
C	 2.256770	 0.342732	 -0.454344
H	 2.154716	 -1.590834	 0.479041
H	 1.598751	 -0.289614	 1.496104
C	 1.285540	 0.947272	 -1.462740
H	 2.701148	 1.136856	 0.139788
H	 3.071432	 -0.140942	 -0.980868
H	 1.785276	 1.660481	 -2.107707
H	 0.472633	 1.465229	 -0.964449
H	 0.849536	 0.180139	 -2.093948

	symmetry c1
}
set optking {
	frozen_dihedral = ("
		16 12 9 8
	")
}

ee = optimize('scf')
oeprop('DIPOLE', 'QUADRUPOLE', 'MULLIKEN_CHARGES')
f=open( 'psi4out.xyz', 'w' )
f.write( "20  " )
f.write( str(ee) + "\n" )
f.write( MOL.save_string_xyz() )
f.close()
--------------------------------------------------------------------------

    Molecular point group: c1
  Charge       = 0
  Multiplicity = 1
  Basis Set: CC-PVTZ
  Basis Set:
  @DF-RHF Final Energy:  -384.06869261772073
    Total Energy =                       -384.0686926177202167
    Molecular point group: c1
  Basis Set: CC-PVTZ
  Basis Set:
  Basis Set: CC-PVTZ
  Basis Set:
  @DF-RHF Final Energy:  -384.07484269004311
    Total Energy =                       -384.0748426900430559
  Basis Set: CC-PVTZ
  Basis Set:
  Basis Set: CC-PVTZ
  Basis Set:
  @DF-RHF Final Energy:  -384.07642230188708
    Total Energy =                       -384.0764223018868506
  Basis Set: CC-PVTZ
  Basis Set:
  Basis Set: CC-PVTZ
  Basis Set:
  @DF-RHF Final Energy:  -384.07457042047406
    Total Energy =                       -384.0745704204737194
  Basis Set: CC-PVTZ
  Basis Set:
  @DF-RHF Final Energy:  -384.07714543247010
    Total Energy =                       -384.0771454324706156
  Basis Set: CC-PVTZ
  Basis Set:
  @DF-RHF Final Energy:  -384.07727600327877
    Total Energy =                       -384.0772760032792803
  Basis Set: CC-PVTZ
  Basis Set:
  Basis Set: CC-PVTZ
  Basis Set:
  @DF-RHF Final Energy:  -384.07736372533515
    Total Energy =                       -384.0773637253353172
  Basis Set: CC-PVTZ
  Basis Set:
  Basis Set: CC-PVTZ
  Basis Set:
  @DF-RHF Final Energy:  -384.07736889162851
    Total Energy =                       -384.0773688916287938
  Basis Set: CC-PVTZ
  Basis Set:
  Charge       = 0
  Multiplicity = 1
  Basis Set: CC-PVTZ
  Basis Set:

    Orbital Energies (a.u.)
    -----------------------

    Doubly Occupied:

       1A    -20.593942     2A    -20.532612     3A    -11.366560
       4A    -11.280127     5A    -11.231771     6A    -11.224294
       7A    -11.220940     8A    -11.208902     9A     -1.470883
      10A     -1.364997    11A     -1.082082    12A     -1.026883
      13A     -0.980765    14A     -0.893676    15A     -0.800473
      16A     -0.776144    17A     -0.692297    18A     -0.690921
      19A     -0.666294    20A     -0.628178    21A     -0.612736
      22A     -0.581802    23A     -0.570930    24A     -0.557215
      25A     -0.548139    26A     -0.527711    27A     -0.522082
      28A     -0.479703    29A     -0.475478    30A     -0.466390
      31A     -0.449021    32A     -0.440623

  @DF-RHF Final Energy:  -384.07736914156925

   => Energetics <=

    Nuclear Repulsion Energy =            394.5579427577350202
    One-Electron Energy =               -1305.3414770124318238
    Two-Electron Energy =                 526.7061651131276676
    DFT Exchange-Correlation Energy =       0.0000000000000000
    Empirical Dispersion Energy =           0.0000000000000000
    PCM Polarization Energy =               0.0000000000000000
    EFP Energy =                            0.0000000000000000
    Total Energy =                       -384.0773691415691928
    Molecular point group: c1
  Basis Set: CC-PVTZ
  Basis Set:

  -Total Gradient:
     Atom            X                  Y                   Z
    ------   -----------------  -----------------  -----------------
       1        0.000007825645    -0.000016910552     0.000005683524
       2        0.000030540766     0.000017743516     0.000017692196
       3        0.000000672726     0.000012470715    -0.000026983152
       4       -0.000029043412     0.000003211336     0.000031842499
       5        0.000000671949     0.000003971114     0.000010142868
       6        0.000001915794    -0.000003083151     0.000001040996
       7       -0.000002759204    -0.000004448932     0.000007272201
       8       -0.000211550781     0.000506283442     0.000298709761
       9        0.000158231150    -0.000683079742    -0.000534724650
      10        0.000015392924    -0.000003846188     0.000001091795
      11       -0.000007332962     0.000001578511     0.000007531535
      12        0.000779738286    -0.000345568899     0.000307745876
      13       -0.000022977491    -0.000008767211     0.000005460465
      14        0.000001236171     0.000003749013     0.000000845148
      15       -0.000007082676     0.000008246140     0.000007570641
      16       -0.000729113987     0.000497260658    -0.000133250797
      17        0.000001879440    -0.000001913859     0.000009020576
      18        0.000002940839     0.000004862418    -0.000015490324
      19        0.000004228264     0.000010114104    -0.000011008456
      20        0.000004586561    -0.000001872429     0.000009807297

  **** Optimization is complete! (in 9 steps) ****
    Final optimized geometry and variables:
    Molecular point group: c1

    Geometry (in Angstrom), charge = 0, multiplicity = 1:

    O           -2.181535948067    -1.011057464813    -0.186282634752
    C           -1.690123422471    -0.007720427374     0.204937081302
    C           -2.442178977637     1.264517928371     0.476523540100
    O           -0.400294561187     0.125342962062     0.456229204102
    H           -2.060877715044     2.053613059537    -0.158997640433
    H           -3.491855776461     1.111314047939     0.285814161287
    H           -2.288729922449     1.566907885909     1.504251152863
    C            0.434909770718    -1.007264394498     0.246914642708
    C            1.857636181859    -0.647564789204     0.628540020430
    H            0.346657669393    -1.328023798679    -0.780480648422
    H            0.079189798104    -1.814619210607     0.871200430152
    C            2.656578698133     0.297553308029    -0.307331935622
    H            2.394387448198    -1.585767279025     0.717916357197
    H            1.824006296554    -0.227816697246     1.627120609706
    C            1.905477865232     0.947893795748    -1.469124257769
    H            3.087741150718     1.088814647429     0.294738353842
    H            3.495462485629    -0.253658795903    -0.717443697551
    H            2.589325779553     1.560639723336    -2.045221344842
    H            1.101068108263     1.582557036709    -1.123501318253
    H            1.485187342804     0.212941043815    -2.145608375774

  Mulliken Charges: (a.u.)
   Center  Symbol    Alpha    Beta     Spin     Total
       1     O     4.19708  4.19708  0.00000 -0.39417
       2     C     2.80867  2.80867  0.00000  0.38265
       3     C     3.13891  3.13891  0.00000 -0.27782
       4     O     4.15505  4.15505  0.00000 -0.31009
       5     H     0.44627  0.44627  0.00000  0.10746
       6     H     0.43730  0.43730  0.00000  0.12541
       7     H     0.44551  0.44551  0.00000  0.10898
       8     C     3.00227  3.00227  0.00000 -0.00454
       9     C     3.09292  3.09292  0.00000 -0.18584
      10     H     0.44556  0.44556  0.00000  0.10888
      11     H     0.43893  0.43893  0.00000  0.12215
      12     C     3.08720  3.08720  0.00000 -0.17441
      13     H     0.44775  0.44775  0.00000  0.10451
      14     H     0.45035  0.45035  0.00000  0.09931
      15     C     3.15740  3.15740  0.00000 -0.31480
      16     H     0.45083  0.45083  0.00000  0.09834
      17     H     0.45103  0.45103  0.00000  0.09795
      18     H     0.44438  0.44438  0.00000  0.11125
      19     H     0.44841  0.44841  0.00000  0.10318
      20     H     0.45419  0.45419  0.00000  0.09161

   Total alpha = 32.00000, Total beta = 32.00000, Total charge = -0.00000
