  ==> Input File <==

--------------------------------------------------------------------------
set {
	reference rhf
	basis 6-31G*
}

set_num_threads( 1 )
memory 2 gb

molecule MOL {
0 1

O	 0.452467	 -4.284100	 -3.079800
C	 0.575286	 -3.143350	 -3.408495
C	 0.447421	 -2.022262	 -2.392071
C	 0.894278	 -2.758361	 -4.835870
C	 1.737992	 -1.878569	 -1.569319
H	 -0.376905	 -2.269294	 -1.731946
H	 0.215478	 -1.083016	 -2.886082
C	 1.631333	 -0.777471	 -0.511575
H	 1.951141	 -2.834753	 -1.104923
H	 2.572860	 -1.658232	 -2.232790
C	 2.915987	 -0.544314	 0.291766
H	 0.818460	 -1.015390	 0.172062
H	 1.355072	 0.153923	 -1.001506
C	 3.373361	 0.914346	 0.347591
H	 3.708709	 -1.142521	 -0.150311
H	 2.780642	 -0.921148	 1.303579
H	 3.506512	 1.320010	 -0.651625
H	 4.322697	 0.999599	 0.867103
H	 2.660624	 1.545032	 0.868198
H	 0.054474	 -2.218012	 -5.264842
H	 1.088879	 -3.644559	 -5.423721
H	 1.753745	 -2.095189	 -4.872271

	symmetry c1
}
set optking {
	frozen_dihedral = ("
		6 3 2 1,
		6 3 5 8,
		3 5 8 12
	")
}

ee = energy('scf')
oeprop('DIPOLE', 'QUADRUPOLE', 'MULLIKEN_CHARGES')
f=open( 'psi4out.xyz', 'w' )
f.write( "22  " )
f.write( str(ee) + "\n" )
f.write( MOL.save_string_xyz() )
f.close()
--------------------------------------------------------------------------

    Molecular point group: c1

    Geometry (in Angstrom), charge = 0, multiplicity = 1:

       Center              X                  Y                   Z               Mass
    ------------   -----------------  -----------------  -----------------  -----------------
           O         -1.061620399757    -2.478531362933    -1.182600857651    15.994914619560
           C         -0.938801399757    -1.337781362933    -1.511295857651    12.000000000000
           C         -1.066666399757    -0.216693362933    -0.494871857651    12.000000000000
           C         -0.619809399757    -0.952792362933    -2.938670857651    12.000000000000
           C          0.223904600243    -0.073000362933     0.327880142349    12.000000000000
           H         -1.890992399757    -0.463725362933     0.165253142349     1.007825032070
           H         -1.298609399757     0.722552637067    -0.988882857651     1.007825032070
           C          0.117245600243     1.028097637067     1.385624142349    12.000000000000
           H          0.437053600243    -1.029184362933     0.792276142349     1.007825032070
           H          1.058772600243     0.147336637067    -0.335590857651     1.007825032070
           C          1.401899600243     1.261254637067     2.188965142349    12.000000000000
           H         -0.695627399757     0.790178637067     2.069261142349     1.007825032070
           H         -0.159015399757     1.959491637067     0.895693142349     1.007825032070
           C          1.859273600243     2.719914637067     2.244790142349    12.000000000000
           H          2.194621600243     0.663047637067     1.746888142349     1.007825032070
           H          1.266554600243     0.884420637067     3.200778142349     1.007825032070
           H          1.992424600243     3.125578637067     1.245574142349     1.007825032070
           H          2.808609600243     2.805167637067     2.764302142349     1.007825032070
           H          1.146536600243     3.350600637067     2.765397142349     1.007825032070
           H         -1.459613399757    -0.412443362933    -3.367642857651     1.007825032070
           H         -0.425208399757    -1.838990362933    -3.526521857651     1.007825032070
           H          0.239657600243    -0.289620362933    -2.975071857651     1.007825032070

  Charge       = 0
  Multiplicity = 1
  Basis Set: 6-31G*
  Basis Set:

    Orbital Energies (a.u.)
    -----------------------

    Doubly Occupied:

       1A    -20.547375     2A    -11.324575     3A    -11.230528
       4A    -11.229031     5A    -11.228291     6A    -11.221002
       7A    -11.219343     8A    -11.213647     9A     -1.393132
      10A     -1.095177    11A     -1.045051    12A     -1.000915
      13A     -0.938954    14A     -0.848826    15A     -0.796708
      16A     -0.732500    17A     -0.662980    18A     -0.646624
      19A     -0.628840    20A     -0.611799    21A     -0.594513
      22A     -0.585989    23A     -0.559932    24A     -0.547305
      25A     -0.538332    26A     -0.512108    27A     -0.499226
      28A     -0.490238    29A     -0.470040    30A     -0.463592
      31A     -0.459390    32A     -0.396323

  @DF-RHF Final Energy:  -348.09411857577038

   => Energetics <=

    Nuclear Repulsion Energy =            369.2719165953410538
    One-Electron Energy =               -1203.2677226076334591
    Two-Electron Energy =                 485.9016874365225362
    DFT Exchange-Correlation Energy =       0.0000000000000000
    Empirical Dispersion Energy =           0.0000000000000000
    PCM Polarization Energy =               0.0000000000000000
    EFP Energy =                            0.0000000000000000
    Total Energy =                       -348.0941185757698690

  Mulliken Charges: (a.u.)
   Center  Symbol    Alpha    Beta     Spin     Total
       1     O     4.26237  4.26237  0.00000 -0.52474
       2     C     2.73724  2.73724  0.00000  0.52552
       3     C     3.20073  3.20073  0.00000 -0.40146
       4     C     3.28953  3.28953  0.00000 -0.57906
       5     C     3.16431  3.16431  0.00000 -0.32861
       6     H     0.40108  0.40108  0.00000  0.19784
       7     H     0.41676  0.41676  0.00000  0.16648
       8     C     3.15412  3.15412  0.00000 -0.30823
       9     H     0.40477  0.40477  0.00000  0.19046
      10     H     0.42071  0.42071  0.00000  0.15858
      11     C     3.15570  3.15570  0.00000 -0.31139
      12     H     0.41776  0.41776  0.00000  0.16448
      13     H     0.42140  0.42140  0.00000  0.15720
      14     C     3.24049  3.24049  0.00000 -0.48097
      15     H     0.41956  0.41956  0.00000  0.16089
      16     H     0.41819  0.41819  0.00000  0.16362
      17     H     0.42253  0.42253  0.00000  0.15494
      18     H     0.41885  0.41885  0.00000  0.16231
      19     H     0.42021  0.42021  0.00000  0.15958
      20     H     0.40689  0.40689  0.00000  0.18622
      21     H     0.39705  0.39705  0.00000  0.20590
      22     H     0.40977  0.40977  0.00000  0.18046

   Total alpha = 32.00000, Total beta = 32.00000, Total charge = -0.00000
