                              Psi4 1.0.54 Driver

  ==> Input File <==

--------------------------------------------------------------------------
set {
	reference rhf
	basis cc-pvtz
}

set_num_threads( 4 )
memory 2 gb

molecule MOL {
0 1

H	 -2.412160	 0.528611	 2.238386
C	 -2.213210	 -0.354423	 1.635432
O	 -0.940595	 -0.315783	 1.081810
H	 -2.272141	 -1.227888	 2.268263
H	 -2.981445	 -0.426715	 0.867661
C	 -0.718530	 0.758693	 0.228682
C	 0.718529	 0.758687	 -0.228709
H	 -1.366826	 0.687396	 -0.644587
H	 -0.934047	 1.699551	 0.730447
O	 1.401606	 -0.295166	 0.366636
H	 0.748705	 0.673477	 -1.312803
H	 1.176496	 1.708671	 0.046552
C	 2.714315	 -0.441627	 -0.061017
H	 2.765292	 -0.641548	 -1.128869
H	 3.305661	 0.447341	 0.150952
H	 3.143725	 -1.278506	 0.470147

	symmetry c1
}
set optking {
	frozen_dihedral = ("
		3 6 7 11
	")
}

ee,wfn = optimize('scf', return_wfn=True)
oeprop( wfn, 'DIPOLE', 'QUADRUPOLE', 'MULLIKEN_CHARGES')
f=open( 'psi4out.xyz', 'w' )
f.write( "16  " )
f.write( str(ee) + "\n" )
f.write( MOL.save_string_xyz() )
f.close()
--------------------------------------------------------------------------

    Molecular point group: c1
  Charge       = 0
  Multiplicity = 1
  Basis Set: CC-PVTZ
  Basis Set:
  @DF-RHF Final Energy:  -307.08253873744485
    Total Energy =                       -307.0825387374449065
    Molecular point group: c1
  Basis Set: CC-PVTZ
  Basis Set:
  Basis Set: CC-PVTZ
  Basis Set:
  @DF-RHF Final Energy:  -307.08325914412279
    Total Energy =                       -307.0832591441229624
  Basis Set: CC-PVTZ
  Basis Set:
  Basis Set: CC-PVTZ
  Basis Set:
  @DF-RHF Final Energy:  -307.08439524956231
    Total Energy =                       -307.0843952495624762
  Basis Set: CC-PVTZ
  Basis Set:
  Basis Set: CC-PVTZ
  Basis Set:
  @DF-RHF Final Energy:  -307.08443404760374
    Total Energy =                       -307.0844340476036791
  Basis Set: CC-PVTZ
  Basis Set:
  Charge       = 0
  Multiplicity = 1
  Basis Set: CC-PVTZ
  Basis Set:

    Orbital Energies (a.u.)
    -----------------------

    Doubly Occupied:

       1A    -20.545724     2A    -20.545580     3A    -11.270054
       4A    -11.269478     5A    -11.260429     6A    -11.260369
       7A     -1.392648     8A     -1.371976     9A     -1.024194
      10A     -0.934649    11A     -0.897374    12A     -0.819268
      13A     -0.689759    14A     -0.674287    15A     -0.660059
      16A     -0.647604    17A     -0.618498    18A     -0.592243
      19A     -0.574953    20A     -0.516525    21A     -0.508628
      22A     -0.470064    23A     -0.469041    24A     -0.428323
      25A     -0.399519

  @DF-RHF Final Energy:  -307.08443602709514

   => Energetics <=

    Nuclear Repulsion Energy =            259.9334542732385103
    One-Electron Energy =                -934.3532892563691803
    Two-Electron Energy =                 367.3353989560355899
    DFT Exchange-Correlation Energy =       0.0000000000000000
    Empirical Dispersion Energy =           0.0000000000000000
    PCM Polarization Energy =               0.0000000000000000
    EFP Energy =                            0.0000000000000000
    Total Energy =                       -307.0844360270950233
    Molecular point group: c1
  Basis Set: CC-PVTZ
  Basis Set:

  -Total Gradient:
     Atom            X                  Y                   Z
    ------   -----------------  -----------------  -----------------
       1        0.000007404749    -0.000015519820    -0.000008275759
       2       -0.000041314764    -0.000016860134     0.000038081791
       3        0.000198131485     0.000337511474     0.000521413120
       4       -0.000015332160     0.000010028558    -0.000005564488
       5        0.000004211679    -0.000004618116     0.000007636241
       6       -0.000208653719    -0.000209814397    -0.000764593444
       7       -0.000019781063    -0.000763059332     0.000202127623
       8        0.000010800441    -0.000030132929     0.000023149108
       9        0.000017368160    -0.000009522197    -0.000015593948
      10       -0.000004887693    -0.000059394754     0.000025703874
      11       -0.000001581883     0.000813112525    -0.000017616113
      12       -0.000005276060    -0.000022561287     0.000001280488
      13        0.000040202462    -0.000035207669    -0.000022884458
      14        0.000006001364     0.000000235867     0.000022441132
      15       -0.000004439358    -0.000006087683     0.000003081819
      16        0.000017146360     0.000011889892    -0.000010386986

  **** Optimization is complete! (in 5 steps) ****
    Final optimized geometry and variables:
    Molecular point group: c1

    Geometry (in Angstrom), charge = 0, multiplicity = 1:

    H           -2.692984256930     0.553532830876     1.651569025772
    C           -2.456738191807    -0.346914175179     1.087562103713
    O           -1.151732052440    -0.326684244098     0.616508480412
    H           -2.557627061359    -1.201944557628     1.739789916552
    H           -3.174924398240    -0.439748324281     0.274939837409
    C           -0.883229198339     0.730555032137    -0.237809545926
    C            0.577473412014     0.706590835716    -0.732156376334
    H           -1.552303413866     0.694397025775    -1.095799516097
    H           -1.073763638175     1.673440199178     0.271952373881
    O            1.292286426496    -0.338408875435    -0.170320583304
    H            0.589224460368     0.626310781827    -1.817801491056
    H            1.051958936809     1.654795224740    -0.484461304948
    C            2.615524192340    -0.396394294567    -0.584051193141
    H            2.692912683046    -0.534567661511    -1.660879718474
    H            3.159393446898     0.507313085851    -0.315194369619
    H            3.077357388501    -1.239421185237    -0.091440558278

  Mulliken Charges: (a.u.)
   Center  Symbol    Alpha    Beta     Spin     Total
       1     H     0.47313  0.47313  0.00000  0.05373
       2     C     3.03230  3.03230  0.00000 -0.06461
       3     O     4.15599  4.15599  0.00000 -0.31199
       4     H     0.44563  0.44563  0.00000  0.10875
       5     H     0.47315  0.47315  0.00000  0.05370
       6     C     2.96688  2.96688  0.00000  0.06624
       7     C     2.96670  2.96670  0.00000  0.06660
       8     H     0.47645  0.47645  0.00000  0.04710
       9     H     0.47649  0.47649  0.00000  0.04702
      10     O     4.15585  4.15585  0.00000 -0.31171
      11     H     0.47649  0.47649  0.00000  0.04703
      12     H     0.47679  0.47679  0.00000  0.04642
      13     C     3.03236  3.03236  0.00000 -0.06473
      14     H     0.47302  0.47302  0.00000  0.05395
      15     H     0.47314  0.47314  0.00000  0.05372
      16     H     0.44562  0.44562  0.00000  0.10877

   Total alpha = 25.00000, Total beta = 25.00000, Total charge = -0.00000

*** Psi4 exiting successfully. Buy a developer a beer!
