  ==> Input File <==

--------------------------------------------------------------------------
set {
	reference rhf
	basis 6-31G*
}

set_num_threads( 4 )
memory 2 gb

molecule MOL {
0 1

H	 -3.892951	 0.981613	 -0.358725
C	 -3.196921	 0.361773	 0.172313
C	 -2.076860	 -0.007332	 -0.404944
H	 -3.439953	 0.057760	 1.173024
O	 -1.180634	 -0.819263	 0.215062
H	 -1.811520	 0.292194	 -1.403480
C	 0.051604	 -1.018856	 -0.387932
C	 1.043764	 0.054862	 -0.001873
H	 -0.017620	 -1.041351	 -1.469781
H	 0.437898	 -1.966374	 -0.042284
F	 1.822843	 0.328346	 -1.038236
F	 0.439443	 1.176700	 0.353239
F	 1.814754	 -0.320001	 0.997847

	symmetry c1
}
set optking {
	frozen_dihedral = ("
		11 8 7 9
	")
}

ee = optimize('scf')
oeprop('DIPOLE', 'QUADRUPOLE', 'MULLIKEN_CHARGES')
f=open( 'psi4out.xyz', 'w' )
f.write( "13  " )
f.write( str(ee) + "\n" )
f.write( MOL.save_string_xyz() )
f.close()
--------------------------------------------------------------------------

    Molecular point group: c1
  Charge       = 0
  Multiplicity = 1
  Basis Set: 6-31G*
  Basis Set:
  @DF-RHF Final Energy:  -527.53069859062384
    Total Energy =                       -527.5306985906233876
    Molecular point group: c1
  Basis Set: 6-31G*
  Basis Set:
  Basis Set: 6-31G*
  Basis Set:
  @DF-RHF Final Energy:  -527.53110153609987
    Total Energy =                       -527.5311015360998681
  Basis Set: 6-31G*
  Basis Set:
  Basis Set: 6-31G*
  Basis Set:
  @DF-RHF Final Energy:  -527.53123300036680
    Total Energy =                       -527.5312330003666830
  Basis Set: 6-31G*
  Basis Set:
  Basis Set: 6-31G*
  Basis Set:
  @DF-RHF Final Energy:  -527.53124583514614
    Total Energy =                       -527.5312458351462510
  Basis Set: 6-31G*
  Basis Set:
  Basis Set: 6-31G*
  Basis Set:
  @DF-RHF Final Energy:  -527.53125353774351
    Total Energy =                       -527.5312535377437371
  Basis Set: 6-31G*
  Basis Set:
  Basis Set: 6-31G*
  Basis Set:
  @DF-RHF Final Energy:  -527.53126021239473
    Total Energy =                       -527.5312602123944998
  Basis Set: 6-31G*
  Basis Set:
  Basis Set: 6-31G*
  Basis Set:
  @DF-RHF Final Energy:  -527.53126224680420
    Total Energy =                       -527.5312622468042036
  Basis Set: 6-31G*
  Basis Set:
  Charge       = 0
  Multiplicity = 1
  Basis Set: 6-31G*
  Basis Set:

    Orbital Energies (a.u.)
    -----------------------

    Doubly Occupied:

       1A    -26.343215     2A    -26.342577     3A    -26.342312
       4A    -20.608365     5A    -11.504537     6A    -11.318647
       7A    -11.299506     8A    -11.215747     9A     -1.742125
      10A     -1.639082    11A     -1.638490    12A     -1.438539
      13A     -1.081924    14A     -1.015361    15A     -0.925708
      16A     -0.837711    17A     -0.829619    18A     -0.821891
      19A     -0.789169    20A     -0.726147    21A     -0.714788
      22A     -0.695248    23A     -0.674779    24A     -0.659678
      25A     -0.655316    26A     -0.642749    27A     -0.627913
      28A     -0.584455    29A     -0.561820    30A     -0.525825
      31A     -0.511861    32A     -0.351412

  @DF-RHF Final Energy:  -527.53126261858324

   => Energetics <=

    Nuclear Repulsion Energy =            412.4194245700255124
    One-Electron Energy =               -1548.5683407708365849
    Two-Electron Energy =                 608.6176535822280584
    DFT Exchange-Correlation Energy =       0.0000000000000000
    Empirical Dispersion Energy =           0.0000000000000000
    PCM Polarization Energy =               0.0000000000000000
    EFP Energy =                            0.0000000000000000
    Total Energy =                       -527.5312626185830140
    Molecular point group: c1
  Basis Set: 6-31G*
  Basis Set:

  -Total Gradient:
     Atom            X                  Y                   Z
    ------   -----------------  -----------------  -----------------
       1        0.000000204885    -0.000003848051    -0.000002369859
       2        0.000004683126    -0.000004762966     0.000005684740
       3        0.000010408549     0.000006083989     0.000000572190
       4        0.000001860626    -0.000002354931     0.000000096267
       5       -0.000009407217    -0.000016497091     0.000012230605
       6        0.000004768257    -0.000005907738    -0.000006910434
       7       -0.005058911766     0.005113560870    -0.000408688773
       8        0.004023802609    -0.004494677785     0.001698831772
       9        0.003511405570    -0.003455935989    -0.000000165245
      10       -0.000014824488     0.000007873498     0.000007994344
      11       -0.002500543766     0.002899234719    -0.001380399566
      12        0.000018250155    -0.000040471925     0.000015923955
      13        0.000008303465    -0.000002296599     0.000057200009

  **** Optimization is complete! (in 8 steps) ****
    Final optimized geometry and variables:
    Molecular point group: c1

    Geometry (in Angstrom), charge = 0, multiplicity = 1:

    H           -3.939622913430     0.960467372108    -0.342067918921
    C           -3.264583855109     0.305989498270     0.174275702997
    C           -2.084407473718     0.045541717129    -0.338731139528
    H           -3.575637408206    -0.117421774144     1.110826031799
    O           -1.201322157854    -0.786008183924     0.273638061430
    H           -1.752311631789     0.464285966121    -1.272279057200
    C            0.013185653406    -1.016015642058    -0.347458770783
    C            1.060723488601     0.046200677046    -0.019911158771
    H           -0.065127263929    -1.097319527950    -1.425183789190
    H            0.386387187133    -1.959926499986     0.022624701260
    F            1.852870251854     0.240463796467    -1.065432283102
    F            0.510722039135     1.209145030427     0.272699788160
    F            1.822672620770    -0.304504886756     0.999385764016

  Mulliken Charges: (a.u.)
   Center  Symbol    Alpha    Beta     Spin     Total
       1     H     0.40707  0.40707  0.00000  0.18586
       2     C     3.23696  3.23696  0.00000 -0.47392
       3     C     2.89300  2.89300  0.00000  0.21400
       4     H     0.40216  0.40216  0.00000  0.19568
       5     O     4.29888  4.29888  0.00000 -0.59777
       6     H     0.40714  0.40714  0.00000  0.18572
       7     C     3.08000  3.08000  0.00000 -0.16001
       8     C     2.44779  2.44779  0.00000  1.10443
       9     H     0.40153  0.40153  0.00000  0.19693
      10     H     0.38686  0.38686  0.00000  0.22627
      11     F     4.68460  4.68460  0.00000 -0.36920
      12     F     4.67592  4.67592  0.00000 -0.35185
      13     F     4.67807  4.67807  0.00000 -0.35615

   Total alpha = 32.00000, Total beta = 32.00000, Total charge = -0.00000
