  ==> Input File <==

--------------------------------------------------------------------------
set {
	reference rhf
	basis 6-31G*
}

set_num_threads( 4 )
memory 2 gb

molecule MOL {
0 1

H	 -2.646374	 -0.642757	 1.268656
C	 -2.083525	 -0.384536	 0.393091
O	 -0.807605	 -0.127164	 0.768327
F	 -2.118945	 -1.383102	 -0.486752
F	 -2.621877	 0.670592	 -0.209486
C	 0.084052	 0.273579	 -0.209957
C	 1.353033	 -0.546803	 -0.018071
Cl	 0.433844	 2.004619	 -0.074457
H	 -0.288836	 0.092657	 -1.202930
F	 2.417975	 0.209608	 -0.178949
F	 1.385240	 -1.498103	 -0.929898
F	 1.406774	 -1.105187	 1.166535

	symmetry c1
}
set optking {
	frozen_dihedral = ("
		10 7 6 9
	")
}

ee = optimize('scf')
oeprop('DIPOLE', 'QUADRUPOLE', 'MULLIKEN_CHARGES')
f=open( 'psi4out.xyz', 'w' )
f.write( "12  " )
f.write( str(ee) + "\n" )
f.write( MOL.save_string_xyz() )
f.close()
--------------------------------------------------------------------------

    Molecular point group: c1
  Charge       = 0
  Multiplicity = 1
  Basis Set: 6-31G*
  Basis Set:
  @DF-RHF Final Energy: -1146.30512629237296
    Total Energy =                      -1146.3051262923727336
    Molecular point group: c1
  Basis Set: 6-31G*
  Basis Set:
  Basis Set: 6-31G*
  Basis Set:
  @DF-RHF Final Energy: -1146.30519696410397
    Total Energy =                      -1146.3051969641028336
  Basis Set: 6-31G*
  Basis Set:
  Basis Set: 6-31G*
  Basis Set:
  @DF-RHF Final Energy: -1146.30685269471087
    Total Energy =                      -1146.3068526947108694
  Basis Set: 6-31G*
  Basis Set:
  Basis Set: 6-31G*
  Basis Set:
  @DF-RHF Final Energy: -1146.30691762409037
    Total Energy =                      -1146.3069176240899196
  Basis Set: 6-31G*
  Basis Set:
  @DF-RHF Final Energy: -1146.30692643710336
    Total Energy =                      -1146.3069264371022200
  @DF-RHF Final Energy: -1146.30692841565406
    Total Energy =                      -1146.3069284156542835
  @DF-RHF Final Energy: -1146.30692983192580
    Total Energy =                      -1146.3069298319269365
  @DF-RHF Final Energy: -1146.30692847824685
    Total Energy =                      -1146.3069284782473005
  @DF-RHF Final Energy: -1146.30692516969521
    Total Energy =                      -1146.3069251696947504
  @DF-RHF Final Energy: -1146.30692999989560
    Total Energy =                      -1146.3069299998960560
  @DF-RHF Final Energy: -1146.30692927455357
    Total Energy =                      -1146.3069292745544772
  @DF-RHF Final Energy: -1146.30655903760885
    Total Energy =                      -1146.3065590376090768
  @DF-RHF Final Energy: -1146.30140330829454
    Total Energy =                      -1146.3014033082954484
  @DF-RHF Final Energy: -1146.29788662953024
    Total Energy =                      -1146.2978866295306943
  @DF-RHF Final Energy: -1146.30089632084241
    Total Energy =                      -1146.3008963208426394
  @DF-RHF Final Energy: -1146.30604436880594
    Total Energy =                      -1146.3060443688050327
  @DF-RHF Final Energy: -1146.30659911444013
    Total Energy =                      -1146.3065991144399050
  @DF-RHF Final Energy: -1146.30674040855297
    Total Energy =                      -1146.3067404085541057
  Basis Set: 6-31G*
  Basis Set:
  @DF-RHF Final Energy: -1146.30691057264494
    Total Energy =                      -1146.3069105726449379
  Basis Set: 6-31G*
  Basis Set:
  Basis Set: 6-31G*
  Basis Set:
  @DF-RHF Final Energy: -1146.30692734773265
    Total Energy =                      -1146.3069273477335628
  Basis Set: 6-31G*
  Basis Set:
  Basis Set: 6-31G*
  Basis Set:
  @DF-RHF Final Energy: -1146.30693018149987
    Total Energy =                      -1146.3069301815003200
  Basis Set: 6-31G*
  Basis Set:
  Charge       = 0
  Multiplicity = 1
  Basis Set: 6-31G*
  Basis Set:

    Orbital Energies (a.u.)
    -----------------------

    Doubly Occupied:

       1A   -104.844015     2A    -26.359939     3A    -26.358554
       4A    -26.354960     5A    -26.345528     6A    -26.345289
       7A    -20.647145     8A    -11.529404     9A    -11.488291
      10A    -11.401383    11A    -10.578650    12A     -8.048013
      13A     -8.044446    14A     -8.044388    15A     -1.761372
      16A     -1.716766    17A     -1.657568    18A     -1.654396
      19A     -1.637501    20A     -1.483647    21A     -1.177696
      22A     -1.049611    23A     -0.985402    24A     -0.918506
      25A     -0.857725    26A     -0.850441    27A     -0.845975
      28A     -0.823656    29A     -0.810631    30A     -0.790843
      31A     -0.726278    32A     -0.722490    33A     -0.704777
      34A     -0.701384    35A     -0.678437    36A     -0.672986
      37A     -0.658023    38A     -0.656162    39A     -0.646319
      40A     -0.630111    41A     -0.596169    42A     -0.578821
      43A     -0.523005    44A     -0.475348    45A     -0.468778

  @DF-RHF Final Energy: -1146.30693083042070

   => Energetics <=

    Nuclear Repulsion Energy =            735.8087302756053987
    One-Electron Energy =               -3054.5296648856719912
    Two-Electron Energy =                1172.4140037796464640
    DFT Exchange-Correlation Energy =       0.0000000000000000
    Empirical Dispersion Energy =           0.0000000000000000
    PCM Polarization Energy =               0.0000000000000000
    EFP Energy =                            0.0000000000000000
    Total Energy =                      -1146.3069308304202423
    Molecular point group: c1
  Basis Set: 6-31G*
  Basis Set:

  -Total Gradient:
     Atom            X                  Y                   Z
    ------   -----------------  -----------------  -----------------
       1       -0.000043861401     0.000014983303    -0.000011097421
       2        0.000009254259     0.000126215932     0.000097014170
       3        0.000069868185    -0.000133495768    -0.000050003438
       4       -0.000000601498     0.000053453184    -0.000034185875
       5        0.000002593135    -0.000142564747    -0.000012474881
       6        0.004418433481     0.006131656711    -0.001112780899
       7       -0.001068586464    -0.002523300338    -0.006214330059
       8       -0.000028081636     0.000008385423    -0.000032598935
       9       -0.003389721110    -0.004748315325     0.002366094364
      10        0.000057040464     0.001193534529     0.005053849960
      11        0.000055509346     0.000011308819    -0.000140518557
      12       -0.000081846749     0.000008138267     0.000091031570

  **** Optimization is complete! (in 22 steps) ****
    Final optimized geometry and variables:
    Molecular point group: c1

    Geometry (in Angstrom), charge = 0, multiplicity = 1:

    H           -2.653764818655    -0.661762024879     1.248195211852
    C           -2.085041161612    -0.387682835980     0.381263438786
    O           -0.810755364750    -0.144945010697     0.768339568943
    F           -2.118868348374    -1.370717201789    -0.517980486506
    F           -2.619925091553     0.678215933181    -0.204749928671
    C            0.087887304929     0.282486261039    -0.197604399266
    C            1.376933219071    -0.551336059354    -0.023786887943
    CL           0.374049361779     2.020020842010    -0.048118944447
    H           -0.304058402833     0.077479513576    -1.177692555436
    F            2.465680370932     0.154529042147    -0.218592504912
    F            1.360354085060    -1.539123699131    -0.899395313691
    F            1.455515215684    -1.073283677906     1.177695055628

  Mulliken Charges: (a.u.)
   Center  Symbol    Alpha    Beta     Spin     Total
       1     H     0.40131  0.40131  0.00000  0.19739
       2     C     2.56655  2.56655  0.00000  0.86690
       3     O     4.29528  4.29528  0.00000 -0.59055
       4     F     4.68739  4.68739  0.00000 -0.37477
       5     F     4.68411  4.68411  0.00000 -0.36823
       6     C     3.06644  3.06644  0.00000 -0.13287
       7     C     2.42677  2.42677  0.00000  1.14646
       8    CL     8.49403  8.49403  0.00000  0.01195
       9     H     0.36447  0.36447  0.00000  0.27106
      10     F     4.66893  4.66893  0.00000 -0.33787
      11     F     4.67682  4.67682  0.00000 -0.35364
      12     F     4.66791  4.66791  0.00000 -0.33582

   Total alpha = 45.00000, Total beta = 45.00000, Total charge = -0.00000
