  ==> Input File <==

--------------------------------------------------------------------------
set {
	reference rhf
	basis 6-31G*
}

set_num_threads( 4 )
memory 2 gb

molecule MOL {
0 1

H	 3.178437	 -0.841916	 2.641256
O	 3.898617	 -0.935060	 2.034844
C	 3.681349	 -2.051094	 1.209425
C	 2.589221	 -1.826145	 0.169530
H	 4.625101	 -2.238620	 0.713602
H	 3.451631	 -2.930386	 1.810138
C	 1.198617	 -1.597615	 0.766908
H	 2.867591	 -0.973166	 -0.443906
H	 2.562507	 -2.694059	 -0.487265
C	 0.115918	 -1.429151	 -0.302766
H	 1.222818	 -0.715543	 1.400728
H	 0.937932	 -2.438663	 1.409577
C	 -1.309753	 -1.282496	 0.241564
H	 0.355324	 -0.566311	 -0.921667
H	 0.144909	 -2.292979	 -0.963570
C	 -2.037799	 -0.007733	 -0.193645
H	 -1.890610	 -2.142323	 -0.085726
H	 -1.285946	 -1.330893	 1.329189
C	 -3.489788	 0.042957	 0.286558
H	 -2.017067	 0.064384	 -1.280144
H	 -1.513726	 0.868678	 0.179924
C	 -4.216917	 1.317354	 -0.141063
H	 -4.025645	 -0.823308	 -0.095450
H	 -3.513059	 -0.038752	 1.371301
H	 -4.239342	 1.411634	 -1.223113
H	 -5.243387	 1.322503	 0.212445
H	 -3.726170	 2.201406	 0.256408

	symmetry c1
}
set optking {
	frozen_dihedral = ("
		14 10 13 16
	")
}

ee = optimize('scf')
oeprop('DIPOLE', 'QUADRUPOLE', 'MULLIKEN_CHARGES')
f=open( 'psi4out.xyz', 'w' )
f.write( "27  " )
f.write( str(ee) + "\n" )
f.write( MOL.save_string_xyz() )
f.close()
--------------------------------------------------------------------------

    Molecular point group: c1
  Charge       = 0
  Multiplicity = 1
  Basis Set: 6-31G*
  Basis Set:
  @DF-RHF Final Energy:  -388.27748760844668
    Total Energy =                       -388.2774876084469042
    Molecular point group: c1
  Basis Set: 6-31G*
  Basis Set:
  Basis Set: 6-31G*
  Basis Set:
  @DF-RHF Final Energy:  -388.27801071844112
    Total Energy =                       -388.2780107184407825
  Basis Set: 6-31G*
  Basis Set:
  Basis Set: 6-31G*
  Basis Set:
  @DF-RHF Final Energy:  -388.27809981421780
    Total Energy =                       -388.2780998142169437
  Basis Set: 6-31G*
  Basis Set:
  Basis Set: 6-31G*
  Basis Set:
  @DF-RHF Final Energy:  -388.27810097207475
    Total Energy =                       -388.2781009720744123
  Basis Set: 6-31G*
  Basis Set:
  Basis Set: 6-31G*
  Basis Set:
  @DF-RHF Final Energy:  -388.27810257498192
    Total Energy =                       -388.2781025749819719
  Basis Set: 6-31G*
  Basis Set:
  Charge       = 0
  Multiplicity = 1
  Basis Set: 6-31G*
  Basis Set:

    Orbital Energies (a.u.)
    -----------------------

    Doubly Occupied:

       1A    -20.552219     2A    -11.267108     3A    -11.220800
       4A    -11.216693     5A    -11.215506     6A    -11.215133
       7A    -11.215124     8A    -11.214252     9A    -11.208929
      10A     -1.359017    11A     -1.093533    12A     -1.062358
      13A     -1.010487    14A     -0.950214    15A     -0.882742
      16A     -0.820726    17A     -0.792899    18A     -0.790157
      19A     -0.694084    20A     -0.649929    21A     -0.639765
      22A     -0.613178    23A     -0.599302    24A     -0.586292
      25A     -0.575976    26A     -0.551769    27A     -0.543238
      28A     -0.522608    29A     -0.509190    30A     -0.487905
      31A     -0.485318    32A     -0.477007    33A     -0.469510
      34A     -0.462613    35A     -0.453310    36A     -0.441894
      37A     -0.420545

  @DF-RHF Final Energy:  -388.27810294327264

   => Energetics <=

    Nuclear Repulsion Energy =            453.7352509828604070
    One-Electron Energy =               -1425.4840410281826735
    Two-Electron Energy =                 583.4706871020493963
    DFT Exchange-Correlation Energy =       0.0000000000000000
    Empirical Dispersion Energy =           0.0000000000000000
    PCM Polarization Energy =               0.0000000000000000
    EFP Energy =                            0.0000000000000000
    Total Energy =                       -388.2781029432728701
    Molecular point group: c1
  Basis Set: 6-31G*
  Basis Set:

  -Total Gradient:
     Atom            X                  Y                   Z
    ------   -----------------  -----------------  -----------------
       1        0.000005660901     0.000000279713     0.000001419204
       2       -0.000005682686     0.000006130057     0.000005377567
       3       -0.000000982334    -0.000007576090    -0.000005773332
       4        0.000003115816    -0.000005838815     0.000000395734
       5       -0.000000743628    -0.000003077055    -0.000001290695
       6        0.000000839963     0.000000789536     0.000001445306
       7        0.000010739721     0.000008607432    -0.000010652788
       8        0.000002208644     0.000001158814     0.000005856348
       9       -0.000002000303     0.000002164308    -0.000005507702
      10        0.000329261491     0.000421360645     0.000741759794
      11       -0.000001571876     0.000002041083    -0.000011302925
      12       -0.000003847108     0.000004211936    -0.000004011818
      13       -0.000274268083    -0.000346930052    -0.000618458122
      14       -0.000203559971    -0.000281396934    -0.000465708549
      15        0.000004895291    -0.000002765354     0.000001960029
      16        0.000149206264     0.000201847049     0.000362065975
      17       -0.000008114848    -0.000001556241    -0.000002080431
      18       -0.000008480505     0.000010481987    -0.000008488924
      19       -0.000004915388     0.000004968121     0.000005951211
      20        0.000004713952    -0.000007401449     0.000003731388
      21        0.000000056621    -0.000004059452     0.000004706529
      22        0.000001139815    -0.000005342800    -0.000003607631
      23        0.000002331160    -0.000002761383     0.000004320862
      24        0.000000255318     0.000004729290     0.000000119369
      25        0.000001101289     0.000002203688    -0.000002009199
      26       -0.000000123710    -0.000002560078    -0.000002099718
      27       -0.000001235820     0.000000292043     0.000001882514

  **** Optimization is complete! (in 6 steps) ****
    Final optimized geometry and variables:
    Molecular point group: c1

    Geometry (in Angstrom), charge = 0, multiplicity = 1:

    H            2.962760582853    -0.003224532212     2.203234411136
    O            3.706250944822    -0.033771324060     1.618896915790
    C            3.575602250409    -1.124949403895     0.743659834833
    C            2.500477825722    -0.918426967071    -0.317654094801
    H            4.541572753996    -1.238120964969     0.268611006764
    H            3.380670348848    -2.040030973642     1.301701227526
    C            1.084539776703    -0.792658471211     0.247477532903
    H            2.746163230060    -0.027160229213    -0.889211825137
    H            2.539879736149    -1.759112181420    -1.008487968087
    C            0.014625152550    -0.643726738287    -0.836819987841
    H            1.030638141693     0.069520951678     0.909723704745
    H            0.856965378128    -1.667321839457     0.856428455889
    C           -1.419024463350    -0.501547494276    -0.278007073464
    H            0.256066929043     0.220578711296    -1.451076862577
    H            0.068901743378    -1.501161068104    -1.502723937842
    C           -2.122361105597     0.785243759430    -0.716523191157
    H           -2.020918422160    -1.354871248509    -0.579519039966
    H           -1.391426851656    -0.529131484545     0.809343737460
    C           -3.537359009284     0.925581938794    -0.154002164699
    H           -2.162621726405     0.820130252503    -1.804081697499
    H           -1.525122106851     1.641985010415    -0.407626884924
    C           -4.232233776761     2.212598186681    -0.597471001408
    H           -4.133643503756     0.069232698246    -0.462171791916
    H           -3.497621395499     0.893388884137     0.932904762680
    H           -4.318531537857     2.258691784968    -1.679430645725
    H           -5.233142968922     2.282753740174    -0.182884845432
    H           -3.678013910180     3.089056947439    -0.273614652260

  Mulliken Charges: (a.u.)
   Center  Symbol    Alpha    Beta     Spin     Total
       1     H     0.27994  0.27994  0.00000  0.44012
       2     O     4.37095  4.37095  0.00000 -0.74190
       3     C     2.99726  2.99726  0.00000  0.00547
       4     C     3.16213  3.16213  0.00000 -0.32427
       5     H     0.41442  0.41442  0.00000  0.17116
       6     H     0.43200  0.43200  0.00000  0.13599
       7     C     3.16347  3.16347  0.00000 -0.32693
       8     H     0.41485  0.41485  0.00000  0.17030
       9     H     0.42415  0.42415  0.00000  0.15170
      10     C     3.15398  3.15398  0.00000 -0.30795
      11     H     0.42507  0.42507  0.00000  0.14987
      12     H     0.42424  0.42424  0.00000  0.15152
      13     C     3.15548  3.15548  0.00000 -0.31095
      14     H     0.41853  0.41853  0.00000  0.16295
      15     H     0.42057  0.42057  0.00000  0.15886
      16     C     3.15268  3.15268  0.00000 -0.30536
      17     H     0.42055  0.42055  0.00000  0.15889
      18     H     0.42223  0.42223  0.00000  0.15554
      19     C     3.15219  3.15219  0.00000 -0.30438
      20     H     0.42317  0.42317  0.00000  0.15366
      21     H     0.42373  0.42373  0.00000  0.15254
      22     C     3.23920  3.23920  0.00000 -0.47839
      23     H     0.42311  0.42311  0.00000  0.15378
      24     H     0.42341  0.42341  0.00000  0.15318
      25     H     0.42167  0.42167  0.00000  0.15667
      26     H     0.41937  0.41937  0.00000  0.16126
      27     H     0.42166  0.42166  0.00000  0.15668

   Total alpha = 37.00000, Total beta = 37.00000, Total charge =  0.00000
