  ==> Input File <==

--------------------------------------------------------------------------
set {
	reference rhf
	basis 6-31G*
}

set_num_threads( 4 )
memory 2 gb

molecule MOL {
0 1

O	 2.885223	 -2.308308	 -1.454081
C	 2.518917	 -1.693670	 -0.504818
C	 1.086020	 -1.538547	 -0.055897
O	 3.347903	 -1.046386	 0.304773
C	 0.093632	 -2.277630	 -0.950904
H	 1.036476	 -1.877952	 0.973444
H	 0.869720	 -0.473590	 -0.028035
C	 -1.372528	 -2.044578	 -0.570697
H	 0.314559	 -3.340585	 -0.929996
H	 0.249542	 -1.959768	 -1.976125
C	 -1.785482	 -2.616361	 0.788583
H	 -1.995601	 -2.494092	 -1.340399
H	 -1.587865	 -0.977293	 -0.593954
C	 -3.280229	 -2.454978	 1.072636
H	 -1.524391	 -3.672873	 0.826445
H	 -1.222806	 -2.133916	 1.584582
C	 -3.703408	 -3.018107	 2.430552
H	 -3.850919	 -2.947029	 0.286867
H	 -3.544064	 -1.399631	 1.024326
C	 -5.198176	 -2.856412	 2.704820
H	 -3.439586	 -4.072386	 2.480905
H	 -3.137168	 -2.524407	 3.217579
H	 -5.467106	 -3.264791	 3.674103
H	 -5.792283	 -3.369177	 1.953617
H	 -5.487539	 -1.809296	 2.695334
C	 4.728119	 -1.109107	 -0.004993
H	 4.882018	 -1.033965	 -1.071845
H	 5.068212	 -2.067527	 0.355250
H	 5.265056	 -0.311663	 0.488280

	symmetry c1
}
set optking {
	frozen_dihedral = ("
		2 4 26 27
	")
}

ee = optimize('scf')
oeprop('DIPOLE', 'QUADRUPOLE', 'MULLIKEN_CHARGES')
f=open( 'psi4out.xyz', 'w' )
f.write( "29  " )
f.write( str(ee) + "\n" )
f.write( MOL.save_string_xyz() )
f.close()
--------------------------------------------------------------------------

    Molecular point group: c1
  Charge       = 0
  Multiplicity = 1
  Basis Set: 6-31G*
  Basis Set:
  @DF-RHF Final Energy:  -501.04207950051671
    Total Energy =                       -501.0420795005163654
    Molecular point group: c1
  Basis Set: 6-31G*
  Basis Set:
  Basis Set: 6-31G*
  Basis Set:
  @DF-RHF Final Energy:  -501.04317923840199
    Total Energy =                       -501.0431792384013079
  Basis Set: 6-31G*
  Basis Set:
  Basis Set: 6-31G*
  Basis Set:
  @DF-RHF Final Energy:  -501.04253847767438
    Total Energy =                       -501.0425384776747251
  Basis Set: 6-31G*
  Basis Set:
  Basis Set: 6-31G*
  Basis Set:
  @DF-RHF Final Energy:  -501.04349078605219
    Total Energy =                       -501.0434907860515068
  Basis Set: 6-31G*
  Basis Set:
  Basis Set: 6-31G*
  Basis Set:
  @DF-RHF Final Energy:  -501.04350239013979
    Total Energy =                       -501.0435023901397926
  Basis Set: 6-31G*
  Basis Set:
  Charge       = 0
  Multiplicity = 1
  Basis Set: 6-31G*
  Basis Set:

    Orbital Energies (a.u.)
    -----------------------

    Doubly Occupied:

       1A    -20.603082     2A    -20.544982     3A    -11.372394
       4A    -11.280291     5A    -11.234532     6A    -11.218933
       7A    -11.217538     8A    -11.215919     9A    -11.215792
      10A    -11.214395    11A    -11.209025    12A     -1.468275
      13A     -1.362662    14A     -1.097984    15A     -1.066710
      16A     -1.019507    17A     -0.977411    18A     -0.928539
      19A     -0.861533    20A     -0.799171    21A     -0.790427
      22A     -0.763610    23A     -0.701082    24A     -0.681426
      25A     -0.672190    26A     -0.650866    27A     -0.628679
      28A     -0.605007    29A     -0.594564    30A     -0.581181
      31A     -0.567371    32A     -0.549342    33A     -0.532523
      34A     -0.529728    35A     -0.515435    36A     -0.511947
      37A     -0.496194    38A     -0.477726    39A     -0.470104
      40A     -0.462279    41A     -0.458515    42A     -0.455174
      43A     -0.440682    44A     -0.435483

  @DF-RHF Final Energy:  -501.04350177109302

   => Energetics <=

    Nuclear Repulsion Energy =            610.1364714256895923
    One-Electron Energy =               -1891.3995295855602308
    Two-Electron Energy =                 780.2195563887777325
    DFT Exchange-Correlation Energy =       0.0000000000000000
    Empirical Dispersion Energy =           0.0000000000000000
    PCM Polarization Energy =               0.0000000000000000
    EFP Energy =                            0.0000000000000000
    Total Energy =                       -501.0435017710927923
    Molecular point group: c1
  Basis Set: 6-31G*
  Basis Set:

  -Total Gradient:
     Atom            X                  Y                   Z
    ------   -----------------  -----------------  -----------------
       1       -0.000006579370     0.000014936817     0.000020500172
       2       -0.000142415247     0.001082418441    -0.000732031306
       3       -0.000022334405     0.000008916979     0.000005111671
       4        0.000170481823    -0.002029799730     0.000961023645
       5        0.000016377106     0.000029347460    -0.000021870352
       6       -0.000024764681    -0.000017347302     0.000046120255
       7        0.000008300342    -0.000017488889    -0.000003308037
       8       -0.000014649841    -0.000022337048    -0.000024791120
       9       -0.000005646118     0.000003741463    -0.000027570997
      10        0.000014508869     0.000022990153     0.000005347056
      11        0.000025821210     0.000000378840     0.000004259498
      12        0.000000532472    -0.000023777087     0.000016196965
      13       -0.000024741338    -0.000007854159    -0.000029093793
      14        0.000001680230     0.000017254680     0.000011452858
      15       -0.000016946852     0.000009840012    -0.000010172251
      16        0.000058896395     0.000000961814     0.000016134772
      17        0.000001432064     0.000002655005     0.000002133929
      18        0.000007315602    -0.000005340747     0.000001421975
      19       -0.000008053079     0.000001791753    -0.000003627930
      20        0.000001163317     0.000005591111     0.000001940636
      21       -0.000001477439     0.000000013317    -0.000002797129
      22        0.000000856709    -0.000003074746     0.000000858637
      23        0.000000539188     0.000001367544     0.000000551127
      24        0.000001255908    -0.000001074075     0.000000583159
      25       -0.000001684971     0.000000519553    -0.000000819065
      26        0.000032702207     0.002539452913    -0.000068420005
      27       -0.000098488410    -0.001587626556    -0.000166986464
      28       -0.000005675062    -0.000005270185    -0.000011821033
      29        0.000031593366    -0.000021187333     0.000009673127

  **** Optimization is complete! (in 6 steps) ****
    Final optimized geometry and variables:
    Molecular point group: c1

    Geometry (in Angstrom), charge = 0, multiplicity = 1:

    O            2.898014506523    -0.234648254272    -1.804944452488
    C            2.535915288764     0.374019075170    -0.850325776588
    C            1.103374124540     0.531891261384    -0.400833945115
    O            3.364838198354     1.009785758791    -0.031212571970
    C            0.108147699129    -0.196520538085    -1.301365763067
    H            1.052362764620     0.184786741176     0.625882285220
    H            0.891415160784     1.597434707305    -0.364799997835
    C           -1.356964332890     0.038569672175    -0.918431573918
    H            0.325403855894    -1.260357398874    -1.289047976413
    H            0.264634762517     0.128978065644    -2.324100000056
    C           -1.768250755545    -0.533523409885     0.441230786246
    H           -1.982198037736    -0.409343046553    -1.687318399147
    H           -1.570629358538     1.106223175652    -0.940437586345
    C           -3.261324460325    -0.365678176486     0.730323199939
    H           -1.511924738520    -1.591278584305     0.476554908762
    H           -1.200789967629    -0.054983075824     1.236197336379
    C           -3.682531181542    -0.927827173314     2.089251740582
    H           -3.836793817379    -0.854633213250    -0.053887567119
    H           -3.520605028626     0.690867025583     0.683591489655
    C           -5.175373780111    -0.758272206556     2.369223840891
    H           -3.424252705389    -1.983567566583     2.137631893500
    H           -3.110709784865    -0.437970472189     2.874641986976
    H           -5.442851856690    -1.165802999908     3.339269262996
    H           -5.775034862652    -1.267371486502     1.619947084852
    H           -5.459144374890     0.290388832227     2.361449474874
    C            4.746867567771     0.980324224782    -0.340025236442
    H            4.905444959368     1.086433507643    -1.401682512301
    H            5.177972880277     0.043274191289    -0.013113152332
    H            5.194441432094     1.799284719897     0.201281671271

  Mulliken Charges: (a.u.)
   Center  Symbol    Alpha    Beta     Spin     Total
       1     O     4.28589  4.28589  0.00000 -0.57178
       2     C     2.60463  2.60463  0.00000  0.79075
       3     C     3.20989  3.20989  0.00000 -0.41978
       4     O     4.30807  4.30807  0.00000 -0.61613
       5     C     3.15374  3.15374  0.00000 -0.30747
       6     H     0.39868  0.39868  0.00000  0.20264
       7     H     0.40141  0.40141  0.00000  0.19717
       8     C     3.15658  3.15658  0.00000 -0.31317
       9     H     0.41307  0.41307  0.00000  0.17385
      10     H     0.40882  0.40882  0.00000  0.18236
      11     C     3.15514  3.15514  0.00000 -0.31028
      12     H     0.41825  0.41825  0.00000  0.16350
      13     H     0.42390  0.42390  0.00000  0.15220
      14     C     3.15027  3.15027  0.00000 -0.30054
      15     H     0.42260  0.42260  0.00000  0.15479
      16     H     0.42358  0.42358  0.00000  0.15284
      17     C     3.15145  3.15145  0.00000 -0.30291
      18     H     0.42333  0.42333  0.00000  0.15334
      19     H     0.42399  0.42399  0.00000  0.15201
      20     C     3.23935  3.23935  0.00000 -0.47870
      21     H     0.42280  0.42280  0.00000  0.15441
      22     H     0.42343  0.42343  0.00000  0.15313
      23     H     0.41924  0.41924  0.00000  0.16153
      24     H     0.42155  0.42155  0.00000  0.15690
      25     H     0.42184  0.42184  0.00000  0.15632
      26     C     3.09394  3.09394  0.00000 -0.18789
      27     H     0.40299  0.40299  0.00000  0.19403
      28     H     0.41263  0.41263  0.00000  0.17473
      29     H     0.40893  0.40893  0.00000  0.18213

   Total alpha = 44.00000, Total beta = 44.00000, Total charge = -0.00000
