  ==> Input File <==

--------------------------------------------------------------------------
set {
	reference rhf
	basis 6-31G*
}

set_num_threads( 4 )
memory 2 gb

molecule MOL {
0 1

H	 -3.161837	 0.500524	 -0.000234
C	 -2.367097	 -0.232926	 -0.000000
O	 -1.158440	 0.455814	 -0.000122
H	 -2.468853	 -0.861886	 -0.882833
H	 -2.468942	 -0.861421	 0.883154
C	 -0.029776	 -0.365156	 0.000148
C	 1.212217	 0.508981	 0.000007
H	 -0.036772	 -1.013236	 -0.877259
H	 -0.036869	 -1.012778	 0.877897
C	 0.912604	 1.950127	 0.410144
H	 1.941428	 0.071076	 0.674656
H	 1.650121	 0.484844	 -0.993148
H	 0.495627	 1.998588	 1.412244
H	 1.815738	 2.551051	 0.400943
H	 0.201609	 2.415171	 -0.267074

	symmetry c1
}
set optking {
	frozen_dihedral = ("
		11 7 6 8
	")
}

ee = optimize('scf')
oeprop('DIPOLE', 'QUADRUPOLE', 'MULLIKEN_CHARGES')
f=open( 'psi4out.xyz', 'w' )
f.write( "15  " )
f.write( str(ee) + "\n" )
f.write( MOL.save_string_xyz() )
f.close()
--------------------------------------------------------------------------

    Molecular point group: c1
  Charge       = 0
  Multiplicity = 1
  Basis Set: 6-31G*
  Basis Set:
  @DF-RHF Final Energy:  -232.13126491658940
    Total Energy =                       -232.1312649165894300
    Molecular point group: c1
  Basis Set: 6-31G*
  Basis Set:
  Basis Set: 6-31G*
  Basis Set:
  @DF-RHF Final Energy:  -232.13179416351593
    Total Energy =                       -232.1317941635159059
  Basis Set: 6-31G*
  Basis Set:
  Basis Set: 6-31G*
  Basis Set:
  @DF-RHF Final Energy:  -232.13284446478488
    Total Energy =                       -232.1328444647850233
  Basis Set: 6-31G*
  Basis Set:
  Basis Set: 6-31G*
  Basis Set:
  @DF-RHF Final Energy:  -232.13287853313324
    Total Energy =                       -232.1328785331331801
  Basis Set: 6-31G*
  Basis Set:
  Basis Set: 6-31G*
  Basis Set:
  @DF-RHF Final Energy:  -232.13288532590758
    Total Energy =                       -232.1328853259075231
  Basis Set: 6-31G*
  Basis Set:
  Charge       = 0
  Multiplicity = 1
  Basis Set: 6-31G*
  Basis Set:

    Orbital Energies (a.u.)
    -----------------------

    Doubly Occupied:

       1A    -20.553056     2A    -11.267520     3A    -11.264302
       4A    -11.215749     5A    -11.199978     6A     -1.377999
       7A     -1.048564     8A     -0.947757     9A     -0.889039
      10A     -0.793104    11A     -0.673750    12A     -0.655317
      13A     -0.633533    14A     -0.602095    15A     -0.551240
      16A     -0.542284    17A     -0.502601    18A     -0.481236
      19A     -0.473992    20A     -0.459326    21A     -0.410190

  @DF-RHF Final Energy:  -232.13288624863870

   => Energetics <=

    Nuclear Repulsion Energy =            193.5064228082813713
    One-Electron Energy =                -698.1933541945633124
    Two-Electron Energy =                 272.5540451376430156
    DFT Exchange-Correlation Energy =       0.0000000000000000
    Empirical Dispersion Energy =           0.0000000000000000
    PCM Polarization Energy =               0.0000000000000000
    EFP Energy =                            0.0000000000000000
    Total Energy =                       -232.1328862486388971
    Molecular point group: c1
  Basis Set: 6-31G*
  Basis Set:

  -Total Gradient:
     Atom            X                  Y                   Z
    ------   -----------------  -----------------  -----------------
       1       -0.000010858635    -0.000005688175     0.000000931732
       2       -0.000029373794    -0.000003247287    -0.000005915736
       3        0.000134293064    -0.000079985202     0.000002336913
       4        0.000002023879     0.000001544485     0.000007058755
       5        0.000006601709     0.000003431352    -0.000005768877
       6        0.002815701022    -0.003907403216     0.004319522879
       7        0.001687481268    -0.002600969904    -0.005470006606
       8       -0.002703469608     0.003694779775    -0.002769122904
       9       -0.000041569259     0.000003934978     0.000002043770
      10        0.000016081940    -0.000034665300    -0.000040072741
      11       -0.001880004917     0.002926905240     0.003954169881
      12       -0.000000531917     0.000030769680     0.000006441790
      13       -0.000008678500    -0.000017456185    -0.000007396966
      14        0.000011559685    -0.000001895391     0.000012720623
      15        0.000000744065    -0.000010054849    -0.000006942513

  **** Optimization is complete! (in 6 steps) ****
    Final optimized geometry and variables:
    Molecular point group: c1

    Geometry (in Angstrom), charge = 0, multiplicity = 1:

    H           -2.879040446642    -0.029673243718    -0.118252761565
    C           -2.062061122435    -0.737941478612    -0.092087102983
    O           -0.875475181327    -0.013512161791    -0.099664918196
    H           -2.136429637682    -1.392930485384    -0.958768457797
    H           -2.152889177642    -1.346661259697     0.806198661052
    C            0.275633381252    -0.808687758619    -0.061667996968
    C            1.536187088189     0.072047868318    -0.100666591815
    H            0.256898866600    -1.470063624024    -0.926588944313
    H            0.261866953094    -1.423195241058     0.836931669422
    C            1.304486650683     1.518150284626     0.345684911742
    H            2.272167046489    -0.360099562761     0.571645471978
    H            1.962544605048     0.068482269518    -1.098290418821
    H            0.890880608695     1.559682558244     1.347569246484
    H            2.247110246607     2.057487114918     0.348637043581
    H            0.618590894833     2.032651671789    -0.313982458587

  Mulliken Charges: (a.u.)
   Center  Symbol    Alpha    Beta     Spin     Total
       1     H     0.41225  0.41225  0.00000  0.17549
       2     C     3.07875  3.07875  0.00000 -0.15751
       3     O     4.30549  4.30549  0.00000 -0.61099
       4     H     0.43074  0.43074  0.00000  0.13851
       5     H     0.43059  0.43059  0.00000  0.13881
       6     C     2.98538  2.98538  0.00000  0.02923
       7     C     3.17161  3.17161  0.00000 -0.34322
       8     H     0.42982  0.42982  0.00000  0.14036
       9     H     0.43065  0.43065  0.00000  0.13869
      10     C     3.23115  3.23115  0.00000 -0.46231
      11     H     0.42065  0.42065  0.00000  0.15870
      12     H     0.41785  0.41785  0.00000  0.16430
      13     H     0.41974  0.41974  0.00000  0.16052
      14     H     0.42517  0.42517  0.00000  0.14966
      15     H     0.41013  0.41013  0.00000  0.17975

   Total alpha = 21.00000, Total beta = 21.00000, Total charge =  0.00000
