  ==> Input File <==

--------------------------------------------------------------------------
set {
	reference rhf
	basis 6-31G*
}

set_num_threads( 4 )
memory 2 gb

molecule MOL {
0 1

H	 3.089270	 -1.380733	 0.000000
O	 2.178328	 -1.639175	 0.000000
C	 1.368216	 -0.558384	 0.000000
C	 0.318652	 -0.415067	 0.898431
C	 1.614294	 0.427659	 -0.939466
H	 0.128860	 -1.183601	 1.628752
C	 -0.483398	 0.713057	 0.856911
H	 2.424668	 0.318206	 -1.634008
C	 0.806598	 1.553924	 -0.974273
H	 -1.292636	 0.812798	 1.557313
C	 -0.244705	 1.703468	 -0.078634
C	 1.065421	 2.617096	 -1.981023
H	 -0.866442	 2.580560	 -0.112671
O	 1.937864	 2.583015	 -2.788629
H	 0.380802	 3.469533	 -1.937471

	symmetry c1
}
set optking {
	frozen_dihedral = ("
		4 3 2 1
	")
}

ee = optimize('scf')
oeprop('DIPOLE', 'QUADRUPOLE', 'MULLIKEN_CHARGES')
f=open( 'psi4out.xyz', 'w' )
f.write( "15  " )
f.write( str(ee) + "\n" )
f.write( MOL.save_string_xyz() )
f.close()
--------------------------------------------------------------------------

    Molecular point group: c1
  Charge       = 0
  Multiplicity = 1
  Basis Set: 6-31G*
  Basis Set:
  @DF-RHF Final Energy:  -418.28309839345206
    Total Energy =                       -418.2830983934520646
    Molecular point group: c1
  Basis Set: 6-31G*
  Basis Set:
  Basis Set: 6-31G*
  Basis Set:
  @DF-RHF Final Energy:  -418.28456639300038
    Total Energy =                       -418.2845663930000910
  Basis Set: 6-31G*
  Basis Set:
  Basis Set: 6-31G*
  Basis Set:
  @DF-RHF Final Energy:  -418.28326820317068
    Total Energy =                       -418.2832682031704508
  Basis Set: 6-31G*
  Basis Set:
  Basis Set: 6-31G*
  Basis Set:
  @DF-RHF Final Energy:  -418.28469217082943
    Total Energy =                       -418.2846921708298851
  Basis Set: 6-31G*
  Basis Set:
  Basis Set: 6-31G*
  Basis Set:
  @DF-RHF Final Energy:  -418.28470625344022
    Total Energy =                       -418.2847062534403904
  Basis Set: 6-31G*
  Basis Set:
  Charge       = 0
  Multiplicity = 1
  Basis Set: 6-31G*
  Basis Set:

    Orbital Energies (a.u.)
    -----------------------

    Doubly Occupied:

       1A    -20.592520     2A    -20.566347     3A    -11.334947
       4A    -11.307008     5A    -11.252902     6A    -11.251445
       7A    -11.250305     8A    -11.246637     9A    -11.245021
      10A     -1.410133    11A     -1.406874    12A     -1.170206
      13A     -1.049298    14A     -1.026162    15A     -0.899168
      16A     -0.849720    17A     -0.797461    18A     -0.749209
      19A     -0.699493    20A     -0.671250    21A     -0.658842
      22A     -0.630231    23A     -0.617692    24A     -0.607146
      25A     -0.558868    26A     -0.548185    27A     -0.532301
      28A     -0.509257    29A     -0.486105    30A     -0.425460
      31A     -0.352600    32A     -0.335498

  @DF-RHF Final Energy:  -418.28470884583993

   => Energetics <=

    Nuclear Repulsion Energy =            402.9019821167976829
    One-Electron Energy =               -1368.2967996930278787
    Two-Electron Energy =                 547.1101087303898112
    DFT Exchange-Correlation Energy =       0.0000000000000000
    Empirical Dispersion Energy =           0.0000000000000000
    PCM Polarization Energy =               0.0000000000000000
    EFP Energy =                            0.0000000000000000
    Total Energy =                       -418.2847088458404414
    Molecular point group: c1
  Basis Set: 6-31G*
  Basis Set:

  -Total Gradient:
     Atom            X                  Y                   Z
    ------   -----------------  -----------------  -----------------
       1       -0.000052232479     0.000099601067     0.002727566465
       2        0.000755293913     0.000269757391    -0.002791142584
       3       -0.002117489503    -0.001233849099    -0.001122232439
       4        0.001304332291     0.000809249815     0.001241253016
       5        0.000092406575    -0.000062461615    -0.000056608954
       6        0.000035031227    -0.000034020830    -0.000008101583
       7       -0.000001719932     0.000170706980    -0.000013258735
       8       -0.000032049906     0.000033355843     0.000021476494
       9        0.000080866921     0.000012987007    -0.000006154930
      10        0.000016642102    -0.000016439166    -0.000007444619
      11       -0.000076949395    -0.000109263311     0.000064756285
      12       -0.000047744956     0.000033402061     0.000034231358
      13        0.000023282166     0.000021936937    -0.000051190159
      14        0.000016536268    -0.000001110716    -0.000018489862
      15        0.000003794706     0.000006147637    -0.000014659752

  **** Optimization is complete! (in 6 steps) ****
    Final optimized geometry and variables:
    Molecular point group: c1

    Geometry (in Angstrom), charge = 0, multiplicity = 1:

    H            2.056317104145    -2.212716161521     0.646069515963
    O            1.134953144510    -2.433118233957     0.631102423411
    C            0.373959502906    -1.305300755417     0.571424405865
    C           -0.668736089792    -1.169409581673     1.480490896192
    C            0.609326155589    -0.320744203841    -0.366178148910
    H           -0.826688965713    -1.947559198630     2.203939166662
    C           -1.483697260884    -0.053911172643     1.437789715864
    H            1.407804991192    -0.417401855398    -1.078497678884
    C           -0.203508987866     0.808040015970    -0.395795564045
    H           -2.291521350216     0.043047142195     2.139992819360
    C           -1.252050088201     0.941669663147     0.500209857848
    C            0.049733711318     1.873750560757    -1.398091700469
    H           -1.881205023672     1.813953457075     0.469344142870
    O            0.934428484734     1.852652053234    -2.193983321554
    H           -0.647531871074     2.716085228622    -1.364498022829

  Mulliken Charges: (a.u.)
   Center  Symbol    Alpha    Beta     Spin     Total
       1     H     0.26960  0.26960  0.00000  0.46081
       2     O     4.38382  4.38382  0.00000 -0.76765
       3     C     2.80787  2.80787  0.00000  0.38426
       4     C     3.10919  3.10919  0.00000 -0.21838
       5     C     3.12156  3.12156  0.00000 -0.24313
       6     H     0.38613  0.38613  0.00000  0.22775
       7     C     3.09959  3.09959  0.00000 -0.19919
       8     H     0.37685  0.37685  0.00000  0.24631
       9     C     3.04931  3.04931  0.00000 -0.09861
      10     H     0.39255  0.39255  0.00000  0.21491
      11     C     3.11036  3.11036  0.00000 -0.22073
      12     C     2.83208  2.83208  0.00000  0.33585
      13     H     0.39239  0.39239  0.00000  0.21522
      14     O     4.24766  4.24766  0.00000 -0.49532
      15     H     0.42104  0.42104  0.00000  0.15791

   Total alpha = 32.00000, Total beta = 32.00000, Total charge =  0.00000
