  ==> Input File <==

--------------------------------------------------------------------------
set {
	reference rhf
	basis 6-31G*
}

set_num_threads( 1 )
memory 2 gb

molecule MOL {
0 1

H	 -3.367136	 -0.525202	 -0.995304
O	 -3.517110	 -0.026191	 -0.205115
C	 -2.306886	 0.532354	 0.237577
C	 -1.177863	 -0.397191	 -0.171080
H	 -2.156308	 1.517575	 -0.201710
H	 -2.315015	 0.655684	 1.319734
C	 0.198102	 0.111031	 0.262842
H	 -1.208843	 -0.518759	 -1.250427
H	 -1.368741	 -1.376554	 0.258909
C	 1.331804	 -0.827780	 -0.158768
H	 0.361943	 1.100838	 -0.156218
H	 0.217265	 0.229072	 1.345532
C	 2.723619	 -0.410569	 0.329459
H	 1.342964	 -0.912588	 -1.244120
H	 1.116806	 -1.824343	 0.220779
C	 3.243875	 0.895854	 -0.272975
H	 3.424222	 -1.207124	 0.091250
H	 2.714788	 -0.329854	 1.414619
H	 3.251977	 0.848779	 -1.358681
H	 2.637085	 1.747371	 0.016682
H	 4.259473	 1.094070	 0.055697

	symmetry c1
}
set optking {
	frozen_dihedral = ("
		2 3 4 8,
		8 4 7 10,
		4 7 10 14,
		16 13 10 14
	")
}

ee = energy('scf')
oeprop('DIPOLE', 'QUADRUPOLE', 'MULLIKEN_CHARGES')
f=open( 'psi4out.xyz', 'w' )
f.write( "21  " )
f.write( str(ee) + "\n" )
f.write( MOL.save_string_xyz() )
f.close()
--------------------------------------------------------------------------

    Molecular point group: c1

    Geometry (in Angstrom), charge = 0, multiplicity = 1:

       Center              X                  Y                   Z               Mass
    ------------   -----------------  -----------------  -----------------  -----------------
           H         -3.375716845447    -0.514706225981    -0.985087243849     1.007825032070
           O         -3.525690845447    -0.015695225981    -0.194898243849    15.994914619560
           C         -2.315466845447     0.542849774019     0.247793756151    12.000000000000
           C         -1.186443845447    -0.386695225981    -0.160863243849    12.000000000000
           H         -2.164888845447     1.528070774019    -0.191493243849     1.007825032070
           H         -2.323595845447     0.666179774019     1.329950756151     1.007825032070
           C          0.189521154553     0.121526774019     0.273058756151    12.000000000000
           H         -1.217423845447    -0.508263225981    -1.240210243849     1.007825032070
           H         -1.377321845447    -1.366058225981     0.269125756151     1.007825032070
           C          1.323223154553    -0.817284225981    -0.148551243849    12.000000000000
           H          0.353362154553     1.111333774019    -0.146001243849     1.007825032070
           H          0.208684154553     0.239567774019     1.355748756151     1.007825032070
           C          2.715038154553    -0.400073225981     0.339675756151    12.000000000000
           H          1.334383154553    -0.902092225981    -1.233903243849     1.007825032070
           H          1.108225154553    -1.813847225981     0.230995756151     1.007825032070
           C          3.235294154553     0.906349774019    -0.262758243849    12.000000000000
           H          3.415641154553    -1.196628225981     0.101466756151     1.007825032070
           H          2.706207154553    -0.319358225981     1.424835756151     1.007825032070
           H          3.243396154553     0.859274774019    -1.348464243849     1.007825032070
           H          2.628504154553     1.757866774019     0.026898756151     1.007825032070
           H          4.250892154553     1.104565774019     0.065913756151     1.007825032070

  Charge       = 0
  Multiplicity = 1
  Basis Set: 6-31G*
  Basis Set:

    Orbital Energies (a.u.)
    -----------------------

    Doubly Occupied:

       1A    -20.548911     2A    -11.267476     3A    -11.221546
       4A    -11.220682     5A    -11.218996     6A    -11.218408
       7A    -11.211257     8A     -1.358441     9A     -1.091478
      10A     -1.037047    11A     -0.956588    12A     -0.880558
      13A     -0.825786    14A     -0.783348    15A     -0.680376
      16A     -0.649853    17A     -0.626619    18A     -0.622011
      19A     -0.593317    20A     -0.573280    21A     -0.550045
      22A     -0.528269    23A     -0.505851    24A     -0.500840
      25A     -0.484960    26A     -0.466372    27A     -0.460628
      28A     -0.448182    29A     -0.425535

  @DF-RHF Final Energy:  -310.20958261702145

   => Energetics <=

    Nuclear Repulsion Energy =            313.3266422996093183
    One-Electron Energy =               -1041.1592414006290710
    Two-Electron Energy =                 417.6230164839976169
    DFT Exchange-Correlation Energy =       0.0000000000000000
    Empirical Dispersion Energy =           0.0000000000000000
    PCM Polarization Energy =               0.0000000000000000
    EFP Energy =                            0.0000000000000000
    Total Energy =                       -310.2095826170220789

  Mulliken Charges: (a.u.)
   Center  Symbol    Alpha    Beta     Spin     Total
       1     H     0.28028  0.28028  0.00000  0.43944
       2     O     4.37552  4.37552  0.00000 -0.75104
       3     C     2.97503  2.97503  0.00000  0.04994
       4     C     3.18191  3.18191  0.00000 -0.36382
       5     H     0.43010  0.43010  0.00000  0.13979
       6     H     0.41956  0.41956  0.00000  0.16088
       7     C     3.16081  3.16081  0.00000 -0.32162
       8     H     0.42687  0.42687  0.00000  0.14626
       9     H     0.41403  0.41403  0.00000  0.17193
      10     C     3.15221  3.15221  0.00000 -0.30443
      11     H     0.41952  0.41952  0.00000  0.16095
      12     H     0.42120  0.42120  0.00000  0.15760
      13     C     3.15278  3.15278  0.00000 -0.30556
      14     H     0.42394  0.42394  0.00000  0.15211
      15     H     0.42116  0.42116  0.00000  0.15767
      16     C     3.24150  3.24150  0.00000 -0.48299
      17     H     0.42020  0.42020  0.00000  0.15960
      18     H     0.42272  0.42272  0.00000  0.15457
      19     H     0.42212  0.42212  0.00000  0.15576
      20     H     0.42015  0.42015  0.00000  0.15971
      21     H     0.41838  0.41838  0.00000  0.16324

   Total alpha = 29.00000, Total beta = 29.00000, Total charge = -0.00000
