  ==> Input File <==

--------------------------------------------------------------------------
set {
	reference rhf
	basis cc-pvtz
}

set_num_threads( 4 )
memory 2 gb

molecule MOL {
0 1

H	 -0.000105	 1.988529	 0.748933
O	 -0.000098	 1.879786	 -0.188206
C	 -0.000014	 0.545691	 -0.532416
C	 0.575056	 0.362932	 -1.938002
C	 -1.395196	 -0.050227	 -0.337167
H	 0.660716	 0.027643	 0.147086
F	 1.801563	 0.823015	 -1.967401
F	 0.608373	 -0.893927	 -2.302565
F	 -0.123138	 1.030494	 -2.831457
F	 -1.749397	 0.078366	 0.917769
F	 -1.439299	 -1.323317	 -0.638845
F	 -2.290241	 0.576067	 -1.070670

	symmetry c1
}
set optking {
	frozen_dihedral = ("
		6 3 2 1
	")
}

ee = optimize('scf')
oeprop('DIPOLE', 'QUADRUPOLE', 'MULLIKEN_CHARGES')
f=open( 'psi4out.xyz', 'w' )
f.write( "12  " )
f.write( str(ee) + "\n" )
f.write( MOL.save_string_xyz() )
f.close()
--------------------------------------------------------------------------

    Molecular point group: c1
  Charge       = 0
  Multiplicity = 1
  Basis Set: CC-PVTZ
  Basis Set:
  @DF-RHF Final Energy:  -786.58597134457045
    Total Energy =                       -786.5859713445697707
    Molecular point group: c1
  Basis Set: CC-PVTZ
  Basis Set:
  Basis Set: CC-PVTZ
  Basis Set:
  @DF-RHF Final Energy:  -786.58765981325757
    Total Energy =                       -786.5876598132583695
  Basis Set: CC-PVTZ
  Basis Set:
  Basis Set: CC-PVTZ
  Basis Set:
  @DF-RHF Final Energy:  -786.58803574943749
    Total Energy =                       -786.5880357494377222
  Basis Set: CC-PVTZ
  Basis Set:
  Basis Set: CC-PVTZ
  Basis Set:
  @DF-RHF Final Energy:  -786.58807978052187
    Total Energy =                       -786.5880797805217526
  Basis Set: CC-PVTZ
  Basis Set:
  Basis Set: CC-PVTZ
  Basis Set:
  @DF-RHF Final Energy:  -786.58808639198514
    Total Energy =                       -786.5880863919857120
  Basis Set: CC-PVTZ
  Basis Set:
  Basis Set: CC-PVTZ
  Basis Set:
  @DF-RHF Final Energy:  -786.58808785982183
    Total Energy =                       -786.5880878598214849
  Basis Set: CC-PVTZ
  Basis Set:
  Charge       = 0
  Multiplicity = 1
  Basis Set: CC-PVTZ
  Basis Set:

    Orbital Energies (a.u.)
    -----------------------

    Doubly Occupied:

       1A    -26.355807     2A    -26.354397     3A    -26.352396
       4A    -26.351751     5A    -26.348697     6A    -26.348081
       7A    -20.609626     8A    -11.516788     9A    -11.516028
      10A    -11.351665    11A     -1.768097    12A     -1.761683
      13A     -1.662659    14A     -1.661440    15A     -1.657181
      16A     -1.655986    17A     -1.439747    18A     -1.103659
      19A     -0.998521    20A     -0.939970    21A     -0.870384
      22A     -0.862388    23A     -0.858229    24A     -0.847406
      25A     -0.836765    26A     -0.787408    27A     -0.766460
      28A     -0.734031    29A     -0.727726    30A     -0.723439
      31A     -0.721030    32A     -0.687444    33A     -0.683580
      34A     -0.673962    35A     -0.673598    36A     -0.664774
      37A     -0.658501    38A     -0.633014    39A     -0.622806
      40A     -0.555623    41A     -0.509607

  @DF-RHF Final Energy:  -786.58808836141975

   => Energetics <=

    Nuclear Repulsion Energy =            670.5505890394272228
    One-Electron Energy =               -2428.5726468121379185
    Two-Electron Energy =                 971.4339694112904908
    DFT Exchange-Correlation Energy =       0.0000000000000000
    Empirical Dispersion Energy =           0.0000000000000000
    PCM Polarization Energy =               0.0000000000000000
    EFP Energy =                            0.0000000000000000
    Total Energy =                       -786.5880883614202048
    Molecular point group: c1
  Basis Set: CC-PVTZ
  Basis Set:

  -Total Gradient:
     Atom            X                  Y                   Z
    ------   -----------------  -----------------  -----------------
       1        0.000584790694     0.000017936395     0.000008870353
       2       -0.000864278638     0.000009100590     0.000134306940
       3        0.000657777538     0.000092919338    -0.000470333315
       4       -0.000024828148     0.000004968117    -0.000003893333
       5        0.000003654794     0.000047154652    -0.000048019174
       6       -0.000403652726    -0.000084470130     0.000311762486
       7        0.000019461970    -0.000014225434     0.000007987313
       8        0.000007957119    -0.000019018194     0.000002652221
       9       -0.000006020747    -0.000002222256     0.000022847652
      10        0.000028172786    -0.000027850522     0.000028024691
      11       -0.000017903889    -0.000002985182     0.000019307769
      12        0.000014869257    -0.000021307375    -0.000013513602

  **** Optimization is complete! (in 7 steps) ****
    Final optimized geometry and variables:
    Molecular point group: c1

    Geometry (in Angstrom), charge = 0, multiplicity = 1:

    H            0.439304368332     1.697579110407     1.833393944961
    O            0.424592699933     1.572440551335     0.901393461075
    C            0.424795401012     0.231021372668     0.582030487506
    C            0.980439079634     0.110880969258    -0.834947688257
    C           -0.977152721112    -0.354351809410     0.760713410271
    H            1.079781429563    -0.352606897156     1.218538879859
    F            2.229681845359     0.510259292487    -0.843320572190
    F            0.956373324387    -1.136345573833    -1.244384437196
    F            0.316495689033     0.835937642208    -1.694844006114
    F           -1.372274914499    -0.106632052827     1.994513592172
    F           -0.981739737466    -1.655330209736     0.599445137348
    F           -1.856978786551     0.164775602711    -0.052939330047

  Mulliken Charges: (a.u.)
   Center  Symbol    Alpha    Beta     Spin     Total
       1     H     0.38263  0.38263  0.00000  0.23473
       2     O     4.18523  4.18523  0.00000 -0.37047
       3     C     3.00040  3.00040  0.00000 -0.00080
       4     C     2.67658  2.67658  0.00000  0.64685
       5     C     2.68154  2.68154  0.00000  0.63692
       6     H     0.44449  0.44449  0.00000  0.11102
       7     F     4.60460  4.60460  0.00000 -0.20920
       8     F     4.60558  4.60558  0.00000 -0.21115
       9     F     4.60121  4.60121  0.00000 -0.20242
      10     F     4.61271  4.61271  0.00000 -0.22543
      11     F     4.60474  4.60474  0.00000 -0.20949
      12     F     4.60029  4.60029  0.00000 -0.20057

   Total alpha = 41.00000, Total beta = 41.00000, Total charge = -0.00000
