  ==> Input File <==

--------------------------------------------------------------------------
set {
	reference rhf
	basis 6-31G*
}

set_num_threads( 1 )
memory 2 gb

molecule MOL {
0 1

H	 -2.435962	 1.646975	 -1.593494
C	 -1.699077	 1.011791	 -1.141605
C	 -2.076860	 -0.007332	 -0.404944
H	 -0.661113	 1.231059	 -1.307324
O	 -1.180634	 -0.819263	 0.215062
H	 -3.111031	 -0.248160	 -0.232644
C	 0.051604	 -1.018856	 -0.387932
C	 1.043764	 0.054862	 -0.001873
H	 -0.017620	 -1.041351	 -1.469781
H	 0.437898	 -1.966374	 -0.042284
F	 2.212596	 -0.199467	 -0.571921
F	 0.652529	 1.252447	 -0.405055
F	 1.230877	 0.110694	 1.300533

	symmetry c1
}
set optking {
	frozen_dihedral = ("
		11 8 7 9,
		3 5 7 9,
		6 3 2 1
	")
}

ee = energy('scf')
oeprop('DIPOLE', 'QUADRUPOLE', 'MULLIKEN_CHARGES')
f=open( 'psi4out.xyz', 'w' )
f.write( "13  " )
f.write( str(ee) + "\n" )
f.write( MOL.save_string_xyz() )
f.close()
--------------------------------------------------------------------------

    Molecular point group: c1

    Geometry (in Angstrom), charge = 0, multiplicity = 1:

       Center              X                  Y                   Z               Mass
    ------------   -----------------  -----------------  -----------------  -----------------
           H         -2.602061629464     1.574700678914    -1.448042354468     1.007825032070
           C         -1.865176629464     0.939516678914    -0.996153354468    12.000000000000
           C         -2.242959629464    -0.079606321086    -0.259492354468    12.000000000000
           H         -0.827212629464     1.158784678914    -1.161872354468     1.007825032070
           O         -1.346733629464    -0.891537321086     0.360513645532    15.994914619560
           H         -3.277130629464    -0.320434321086    -0.087192354468     1.007825032070
           C         -0.114495629464    -1.091130321086    -0.242480354468    12.000000000000
           C          0.877664370536    -0.017412321086     0.143578645532    12.000000000000
           H         -0.183719629464    -1.113625321086    -1.324329354468     1.007825032070
           H          0.271798370536    -2.038648321086     0.103167645532     1.007825032070
           F          2.046496370536    -0.271741321086    -0.426469354468    18.998403224000
           F          0.486429370536     1.180172678914    -0.259603354468    18.998403224000
           F          1.064777370536     0.038419678914     1.445984645532    18.998403224000

  Charge       = 0
  Multiplicity = 1
  Basis Set: 6-31G*
  Basis Set:

    Orbital Energies (a.u.)
    -----------------------

    Doubly Occupied:

       1A    -26.351184     2A    -26.346974     3A    -26.343044
       4A    -20.602764     5A    -11.506468     6A    -11.315599
       7A    -11.291035     8A    -11.202982     9A     -1.748413
      10A     -1.650546    11A     -1.641253    12A     -1.434106
      13A     -1.077531    14A     -1.019472    15A     -0.943695
      16A     -0.839445    17A     -0.837515    18A     -0.818418
      19A     -0.787799    20A     -0.736035    21A     -0.713609
      22A     -0.700484    23A     -0.682930    24A     -0.666904
      25A     -0.648782    26A     -0.648202    27A     -0.630690
      28A     -0.601060    29A     -0.530844    30A     -0.521234
      31A     -0.495305    32A     -0.353140

  @DF-RHF Final Energy:  -527.50747741310875

   => Energetics <=

    Nuclear Repulsion Energy =            427.8043322160851289
    One-Electron Energy =               -1579.2486561231200994
    Two-Electron Energy =                 623.9368464939261685
    DFT Exchange-Correlation Energy =       0.0000000000000000
    Empirical Dispersion Energy =           0.0000000000000000
    PCM Polarization Energy =               0.0000000000000000
    EFP Energy =                            0.0000000000000000
    Total Energy =                       -527.5074774131087452

  Mulliken Charges: (a.u.)
   Center  Symbol    Alpha    Beta     Spin     Total
       1     H     0.41046  0.41046  0.00000  0.17907
       2     C     3.25335  3.25335  0.00000 -0.50671
       3     C     2.91246  2.91246  0.00000  0.17508
       4     H     0.37699  0.37699  0.00000  0.24602
       5     O     4.30562  4.30562  0.00000 -0.61124
       6     H     0.39686  0.39686  0.00000  0.20628
       7     C     3.06701  3.06701  0.00000 -0.13402
       8     C     2.45343  2.45343  0.00000  1.09315
       9     H     0.40085  0.40085  0.00000  0.19830
      10     H     0.39034  0.39034  0.00000  0.21932
      11     F     4.68247  4.68247  0.00000 -0.36494
      12     F     4.67643  4.67643  0.00000 -0.35285
      13     F     4.67373  4.67373  0.00000 -0.34747

   Total alpha = 32.00000, Total beta = 32.00000, Total charge =  0.00000
