                              Psi4 1.0.54 Driver

  ==> Input File <==

--------------------------------------------------------------------------
set {
	reference rhf
	basis cc-pvtz
}

set_num_threads( 4 )
memory 2 gb

molecule MOL {
0 1

H	 -2.976877	 -1.340910	 0.156700
O	 -2.321472	 -0.864941	 -0.318626
C	 -2.021813	 0.336996	 0.342658
C	 -0.669613	 0.837286	 -0.127252
H	 -2.780861	 1.084746	 0.127159
H	 -2.006390	 0.184138	 1.420053
C	 0.490865	 -0.082543	 0.241244
H	 -0.708709	 0.967192	 -1.204587
H	 -0.507562	 1.822272	 0.303070
C	 1.839800	 0.429565	 -0.255472
H	 0.305636	 -1.070211	 -0.165276
H	 0.527397	 -0.195943	 1.322876
C	 3.001144	 -0.485193	 0.119072
H	 1.804373	 0.541073	 -1.335756
H	 2.020437	 1.423114	 0.146921
H	 2.866892	 -1.477297	 -0.298806
H	 3.943543	 -0.095749	 -0.249061
H	 3.085064	 -0.590459	 1.195790

	symmetry c1
}
set optking {
	frozen_dihedral = ("
		1 2 3 4
	")
}

ee,wfn = optimize('scf', return_wfn=True)
oeprop( wfn, 'DIPOLE', 'QUADRUPOLE', 'MULLIKEN_CHARGES')
f=open( 'psi4out.xyz', 'w' )
f.write( "18  " )
f.write( str(ee) + "\n" )
f.write( MOL.save_string_xyz() )
f.close()
--------------------------------------------------------------------------

    Molecular point group: c1
  Charge       = 0
  Multiplicity = 1
  Basis Set: CC-PVTZ
  Basis Set:
  @DF-RHF Final Energy:  -271.28658224529647
    Total Energy =                       -271.2865822452961879
    Molecular point group: c1
  Basis Set: CC-PVTZ
  Basis Set:
  Basis Set: CC-PVTZ
  Basis Set:
  @DF-RHF Final Energy:  -271.28659491750352
    Total Energy =                       -271.2865949175034075
  Basis Set: CC-PVTZ
  Basis Set:
  Basis Set: CC-PVTZ
  Basis Set:
  @DF-RHF Final Energy:  -271.28659990923438
    Total Energy =                       -271.2865999092343827
  Basis Set: CC-PVTZ
  Basis Set:
  Charge       = 0
  Multiplicity = 1
  Basis Set: CC-PVTZ
  Basis Set:

    Orbital Energies (a.u.)
    -----------------------

    Doubly Occupied:

       1A    -20.546067     2A    -11.266082     3A    -11.210414
       4A    -11.209608     5A    -11.205674     6A    -11.203320
       7A     -1.363837     8A     -1.077010     9A     -1.010521
      10A     -0.915065    11A     -0.819068    12A     -0.785010
      13A     -0.709150    14A     -0.638812    15A     -0.631483
      16A     -0.582535    17A     -0.570944    18A     -0.562878
      19A     -0.525586    20A     -0.497714    21A     -0.487271
      22A     -0.470974    23A     -0.459950    24A     -0.455131
      25A     -0.428498

  @DF-RHF Final Energy:  -271.28659999004810

   => Energetics <=

    Nuclear Repulsion Energy =            249.2498459105330824
    One-Electron Energy =                -861.8076914194305118
    Two-Electron Energy =                 341.2712455188493550
    DFT Exchange-Correlation Energy =       0.0000000000000000
    Empirical Dispersion Energy =           0.0000000000000000
    PCM Polarization Energy =               0.0000000000000000
    EFP Energy =                            0.0000000000000000
    Total Energy =                       -271.2865999900481029
    Molecular point group: c1
  Basis Set: CC-PVTZ
  Basis Set:

  -Total Gradient:
     Atom            X                  Y                   Z
    ------   -----------------  -----------------  -----------------
       1        0.000827024816    -0.000535135614     0.000582036641
       2       -0.000897352471     0.000554931442    -0.000540461963
       3       -0.000232496892     0.000364961486    -0.000526294970
       4        0.000308370751    -0.000385170724     0.000483827304
       5        0.000011816612    -0.000006424371    -0.000001995927
       6       -0.000005193552     0.000000138610     0.000004594370
       7       -0.000010802783    -0.000004651593    -0.000000637885
       8        0.000008328623     0.000003827214    -0.000010693569
       9       -0.000005413049    -0.000006826373    -0.000001754308
      10        0.000000883797     0.000015085173     0.000015133624
      11       -0.000005925940     0.000000082646    -0.000004841354
      12        0.000003679640     0.000000187889     0.000000995298
      13       -0.000001119194    -0.000002520193    -0.000003401986
      14       -0.000002879042    -0.000004089038     0.000005905358
      15        0.000003064004     0.000005578817    -0.000000717513
      16        0.000000078871    -0.000001836019     0.000001688099
      17       -0.000002161934    -0.000000782845    -0.000002050116
      18        0.000000097740     0.000002643493    -0.000001331106

  **** Optimization is complete! (in 4 steps) ****
    Final optimized geometry and variables:
    Molecular point group: c1

    Geometry (in Angstrom), charge = 0, multiplicity = 1:

    H           -2.989550587836    -1.336247510534     0.139453184540
    O           -2.334780533407    -0.856790293998    -0.332187779684
    C           -2.021472605014     0.334723091285     0.343159114700
    C           -0.669473263266     0.836441152447    -0.126771487477
    H           -2.781368075084     1.086007106912     0.145186063925
    H           -1.997359205743     0.167387898964     1.417753634429
    C            0.492291747126    -0.079859756212     0.244981041934
    H           -0.708003619330     0.963020255177    -1.204699128546
    H           -0.509897142313     1.823718680296     0.299263829834
    C            1.840219977165     0.429313991902    -0.257367176197
    H            0.306650683559    -1.069905713601    -0.155647646191
    H            0.531597294081    -0.186370392158     1.327347413120
    C            3.002225222053    -0.483591588450     0.119465616831
    H            1.802226862931     0.534828181480    -1.338086959536
    H            2.021846269177     1.424962737421     0.139186401912
    H            2.865997974613    -1.478417834627    -0.291239620835
    H            3.943571407206    -0.097277974127    -0.254506948953
    H            3.089782070389    -0.581523243255     1.196583441540

  Mulliken Charges: (a.u.)
   Center  Symbol    Alpha    Beta     Spin     Total
       1     H     0.39443  0.39443  0.00000  0.21114
       2     O     4.20112  4.20112  0.00000 -0.40224
       3     C     2.97534  2.97534  0.00000  0.04933
       4     C     3.08976  3.08976  0.00000 -0.17953
       5     H     0.46344  0.46344  0.00000  0.07312
       6     H     0.47331  0.47331  0.00000  0.05339
       7     C     3.08770  3.08770  0.00000 -0.17540
       8     H     0.45146  0.45146  0.00000  0.09708
       9     H     0.45405  0.45405  0.00000  0.09191
      10     C     3.08359  3.08359  0.00000 -0.16719
      11     H     0.44537  0.44537  0.00000  0.10926
      12     H     0.45996  0.45996  0.00000  0.08007
      13     C     3.14991  3.14991  0.00000 -0.29982
      14     H     0.45399  0.45399  0.00000  0.09201
      15     H     0.45676  0.45676  0.00000  0.08649
      16     H     0.45451  0.45451  0.00000  0.09098
      17     H     0.44917  0.44917  0.00000  0.10167
      18     H     0.45613  0.45613  0.00000  0.08774

   Total alpha = 25.00000, Total beta = 25.00000, Total charge =  0.00000

*** Psi4 exiting successfully. Buy a developer a beer!
