  ==> Input File <==

--------------------------------------------------------------------------
set {
	reference rhf
	basis 6-31G*
}

set_num_threads( 4 )
memory 2 gb

molecule MOL {
0 1

H	 1.741172	 -0.976163	 0.891017
O	 1.586534	 -0.678666	 -0.000226
C	 0.489431	 0.077273	 0.000046
C	 -0.764129	 -0.759190	 0.000191
O	 0.537743	 1.263962	 0.000257
C	 -2.038368	 0.075731	 -0.000248
H	 -0.717284	 -1.412404	 -0.866059
H	 -0.717458	 -1.411724	 0.866967
H	 -2.086483	 0.712501	 -0.875098
H	 -2.908485	 -0.571682	 -0.000042
H	 -2.086576	 0.713280	 0.874068

	symmetry c1
}
set optking {
	frozen_dihedral = ("
		1 2 3 5
	")
}

ee = optimize('scf')
oeprop('DIPOLE', 'QUADRUPOLE', 'MULLIKEN_CHARGES')
f=open( 'psi4out.xyz', 'w' )
f.write( "11  " )
f.write( str(ee) + "\n" )
f.write( MOL.save_string_xyz() )
f.close()
--------------------------------------------------------------------------

    Molecular point group: c1
  Charge       = 0
  Multiplicity = 1
  Basis Set: 6-31G*
  Basis Set:
  @DF-RHF Final Energy:  -266.82270917766272
    Total Energy =                       -266.8227091776625457
    Molecular point group: c1
  Basis Set: 6-31G*
  Basis Set:
  Basis Set: 6-31G*
  Basis Set:
  @DF-RHF Final Energy:  -266.82387677015254
    Total Energy =                       -266.8238767701526513
  Basis Set: 6-31G*
  Basis Set:
  Basis Set: 6-31G*
  Basis Set:
  @DF-RHF Final Energy:  -266.82437714709613
    Total Energy =                       -266.8243771470962429
  Basis Set: 6-31G*
  Basis Set:
  Basis Set: 6-31G*
  Basis Set:
  @DF-RHF Final Energy:  -266.82446517646667
    Total Energy =                       -266.8244651764666742
  Basis Set: 6-31G*
  Basis Set:
  Basis Set: 6-31G*
  Basis Set:
  @DF-RHF Final Energy:  -266.82446679517261
    Total Energy =                       -266.8244667951727251
  Basis Set: 6-31G*
  Basis Set:
  Charge       = 0
  Multiplicity = 1
  Basis Set: 6-31G*
  Basis Set:

    Orbital Energies (a.u.)
    -----------------------

    Doubly Occupied:

       1A    -20.595402     2A    -20.563485     3A    -11.382324
       4A    -11.247707     5A    -11.222694     6A     -1.461025
       7A     -1.368860     8A     -1.064884     9A     -0.909361
      10A     -0.809118    11A     -0.713211    12A     -0.672670
      13A     -0.658750    14A     -0.614701    15A     -0.569183
      16A     -0.530132    17A     -0.520390    18A     -0.498997
      19A     -0.493378    20A     -0.446191

  @DF-RHF Final Energy:  -266.82446702921061

   => Energetics <=

    Nuclear Repulsion Energy =            178.9623039786073662
    One-Electron Energy =                -718.8886162112912643
    Two-Electron Energy =                 273.1018452034730899
    DFT Exchange-Correlation Energy =       0.0000000000000000
    Empirical Dispersion Energy =           0.0000000000000000
    PCM Polarization Energy =               0.0000000000000000
    EFP Energy =                            0.0000000000000000
    Total Energy =                       -266.8244670292108367
    Molecular point group: c1
  Basis Set: 6-31G*
  Basis Set:

  -Total Gradient:
     Atom            X                  Y                   Z
    ------   -----------------  -----------------  -----------------
       1        0.000314149621     0.000472956123     0.000082016502
       2       -0.000415683937    -0.000616553701     0.000111735398
       3        0.000058133149     0.000146494976    -0.000688589293
       4        0.000020552483    -0.000005471800    -0.000047497342
       5       -0.000011322147     0.000004653820     0.000497629191
       6        0.000020220883     0.000007012893     0.000013681683
       7        0.000004746903     0.000005292052     0.000016332367
       8       -0.000007929592    -0.000013817711     0.000021307865
       9        0.000003435661     0.000001050843    -0.000007584055
      10        0.000015816494    -0.000006080344    -0.000003320919
      11       -0.000002119516     0.000004462847     0.000004288604

  **** Optimization is complete! (in 6 steps) ****
    Final optimized geometry and variables:
    Molecular point group: c1

    Geometry (in Angstrom), charge = 0, multiplicity = 1:

    H            1.855812939390    -0.958425702237     0.878365265612
    O            1.629741088425    -0.666279401849     0.003712304866
    C            0.493445854956     0.085056172738     0.001838214755
    C           -0.771324583009    -0.739457569339    -0.008886780678
    O            0.534571353029     1.262648221448    -0.038455902670
    C           -2.044214431435     0.097075212951    -0.014051834133
    H           -0.717473298346    -1.387364938117    -0.879177318621
    H           -0.741572390728    -1.404967848635     0.851233589910
    H           -2.079759061519     0.741398524890    -0.883761384853
    H           -2.916532257738    -0.547253863247    -0.029110886808
    H           -2.100919542177     0.727795275785     0.865095693331

  Mulliken Charges: (a.u.)
   Center  Symbol    Alpha    Beta     Spin     Total
       1     H     0.26676  0.26676  0.00000  0.46649
       2     O     4.36848  4.36848  0.00000 -0.73695
       3     C     2.63102  2.63102  0.00000  0.73797
       4     C     3.20907  3.20907  0.00000 -0.41814
       5     O     4.24394  4.24394  0.00000 -0.48788
       6     C     3.23942  3.23942  0.00000 -0.47885
       7     H     0.39601  0.39601  0.00000  0.20798
       8     H     0.41088  0.41088  0.00000  0.17824
       9     H     0.40686  0.40686  0.00000  0.18628
      10     H     0.41678  0.41678  0.00000  0.16644
      11     H     0.41078  0.41078  0.00000  0.17843

   Total alpha = 20.00000, Total beta = 20.00000, Total charge = -0.00000
