  ==> Input File <==

--------------------------------------------------------------------------
set {
	reference rhf
	basis cc-pvtz
}

set_num_threads( 4 )
memory 2 gb

molecule MOL {
0 1

H	 -3.162190	 0.493205	 -0.000107
C	 -2.363908	 -0.234727	 0.000005
O	 -1.158738	 0.454634	 -0.000087
H	 -2.464314	 -0.863616	 -0.882153
H	 -2.464327	 -0.863359	 0.882345
C	 -0.028611	 -0.359694	 0.000037
C	 0.506388	 -0.470897	 1.413474
H	 0.733364	 0.058152	 -0.658322
H	 -0.279939	 -1.348073	 -0.385430
C	 1.749128	 -1.349967	 1.498231
H	 0.728334	 0.525909	 1.778223
H	 -0.276892	 -0.869182	 2.048922
H	 2.554723	 -0.955669	 0.887795
H	 2.109724	 -1.411807	 2.517626
H	 1.542710	 -2.360145	 1.160592

	symmetry c1
}
set optking {
	frozen_dihedral = ("
		8 6 3 2
	")
}

ee = optimize('scf')
oeprop('DIPOLE', 'QUADRUPOLE', 'MULLIKEN_CHARGES')
f=open( 'psi4out.xyz', 'w' )
f.write( "15  " )
f.write( str(ee) + "\n" )
f.write( MOL.save_string_xyz() )
f.close()
--------------------------------------------------------------------------

    Molecular point group: c1
  Charge       = 0
  Multiplicity = 1
  Basis Set: CC-PVTZ
  Basis Set:
  @DF-RHF Final Energy:  -232.22397613614311
    Total Energy =                       -232.2239761361431647
    Molecular point group: c1
  Basis Set: CC-PVTZ
  Basis Set:
  Basis Set: CC-PVTZ
  Basis Set:
  @DF-RHF Final Energy:  -232.22474942707663
    Total Energy =                       -232.2247494270765742
  Basis Set: CC-PVTZ
  Basis Set:
  Basis Set: CC-PVTZ
  Basis Set:
  @DF-RHF Final Energy:  -232.22489295792332
    Total Energy =                       -232.2248929579232595
  Basis Set: CC-PVTZ
  Basis Set:
  Charge       = 0
  Multiplicity = 1
  Basis Set: CC-PVTZ
  Basis Set:

    Orbital Energies (a.u.)
    -----------------------

    Doubly Occupied:

       1A    -20.544800     2A    -11.264065     3A    -11.262123
       4A    -11.213723     5A    -11.211771     6A     -1.377367
       7A     -1.057189     8A     -0.958242     9A     -0.881033
      10A     -0.808020    11A     -0.670240    12A     -0.656097
      13A     -0.638415    14A     -0.599884    15A     -0.568789
      16A     -0.535300    17A     -0.512967    18A     -0.496711
      19A     -0.483690    20A     -0.461315    21A     -0.407385

  @DF-RHF Final Energy:  -232.22489495632161

   => Energetics <=

    Nuclear Repulsion Energy =            190.9979470260583128
    One-Electron Energy =                -693.2274325621873459
    Two-Electron Energy =                 270.0045905798073704
    DFT Exchange-Correlation Energy =       0.0000000000000000
    Empirical Dispersion Energy =           0.0000000000000000
    PCM Polarization Energy =               0.0000000000000000
    EFP Energy =                            0.0000000000000000
    Total Energy =                       -232.2248949563216343
    Molecular point group: c1
  Basis Set: CC-PVTZ
  Basis Set:

  -Total Gradient:
     Atom            X                  Y                   Z
    ------   -----------------  -----------------  -----------------
       1       -0.000002113208     0.000005095896     0.000004610877
       2       -0.000009098394    -0.000023253549    -0.000981413070
       3       -0.000154673165    -0.000053935658     0.001204258492
       4        0.000019396162    -0.000001902473     0.000001833839
       5        0.000030455494     0.000013420042    -0.000010151933
       6        0.000409714107     0.000710075475     0.000691005758
       7        0.000118247830    -0.000001560100    -0.000042156007
       8       -0.000420491278    -0.000649318988    -0.000826128412
       9        0.000038280935    -0.000033290800    -0.000022099241
      10       -0.000035347567     0.000008062751     0.000010864698
      11       -0.000010902459     0.000028756800     0.000007456288
      12       -0.000009208005     0.000005469846    -0.000054191717
      13        0.000000217822    -0.000013409858     0.000002653480
      14        0.000010516160    -0.000006821838     0.000017096300
      15        0.000015005565     0.000012612455    -0.000003639352

  **** Optimization is complete! (in 4 steps) ****
    Final optimized geometry and variables:
    Molecular point group: c1

    Geometry (in Angstrom), charge = 0, multiplicity = 1:

    H           -2.884576213422     0.934772839772    -0.611941611685
    C           -2.108022921950     0.183401438678    -0.601282160519
    O           -0.883882900232     0.841478222879    -0.595019312357
    H           -2.217684765626    -0.443210080812    -1.483265159358
    H           -2.242633786687    -0.437950936304     0.280947001737
    C            0.248274380317     0.022409971469    -0.540428836886
    C            0.809346306452    -0.085727103413     0.868571061005
    H            0.989123821094     0.454221514235    -1.204134312687
    H            0.017895544032    -0.968098430557    -0.928214011677
    C            2.068010329288    -0.944429360541     0.928380222633
    H            1.021838345620     0.914656095292     1.229593781719
    H            0.050278624475    -0.498846585458     1.525549860390
    H            2.851338955518    -0.538305172300     0.296997026473
    H            2.455001447254    -0.997946689200     1.938689410113
    H            1.870795828763    -1.958827265507     0.597332462135

  Mulliken Charges: (a.u.)
   Center  Symbol    Alpha    Beta     Spin     Total
       1     H     0.44811  0.44811  0.00000  0.10378
       2     C     3.03186  3.03186  0.00000 -0.06371
       3     O     4.17992  4.17992  0.00000 -0.35985
       4     H     0.46934  0.46934  0.00000  0.06132
       5     H     0.47301  0.47301  0.00000  0.05398
       6     C     2.97443  2.97443  0.00000  0.05114
       7     C     3.08013  3.08013  0.00000 -0.16027
       8     H     0.45058  0.45058  0.00000  0.09884
       9     H     0.47417  0.47417  0.00000  0.05166
      10     C     3.15406  3.15406  0.00000 -0.30813
      11     H     0.45094  0.45094  0.00000  0.09812
      12     H     0.45667  0.45667  0.00000  0.08665
      13     H     0.45442  0.45442  0.00000  0.09115
      14     H     0.44670  0.44670  0.00000  0.10661
      15     H     0.45564  0.45564  0.00000  0.08872

   Total alpha = 21.00000, Total beta = 21.00000, Total charge =  0.00000
