  ==> Input File <==

--------------------------------------------------------------------------
set {
	reference rhf
	basis 6-31G*
}

set_num_threads( 4 )
memory 2 gb

molecule MOL {
0 1

H	 -0.024935	 2.599320	 -0.008573
C	 0.857781	 1.958153	 -0.010564
N	 0.538815	 0.649616	 0.000000
O	 1.965626	 2.407351	 -0.021078
C	 1.521968	 -0.411503	 0.000000
H	 -0.425569	 0.408409	 0.008195
H	 2.150599	 -0.357004	 -0.881901
H	 0.999455	 -1.354525	 0.000000
H	 2.150599	 -0.357004	 0.881901

	symmetry c1
}
set optking {
	frozen_dihedral = ("
		6 3 5 7
	")
}

ee = optimize('scf')
oeprop('DIPOLE', 'QUADRUPOLE', 'MULLIKEN_CHARGES')
f=open( 'psi4out.xyz', 'w' )
f.write( "9  " )
f.write( str(ee) + "\n" )
f.write( MOL.save_string_xyz() )
f.close()
--------------------------------------------------------------------------

    Molecular point group: c1
  Charge       = 0
  Multiplicity = 1
  Basis Set: 6-31G*
  Basis Set:
  @DF-RHF Final Energy:  -207.96082954199431
    Total Energy =                       -207.9608295419943715
    Molecular point group: c1
  Basis Set: 6-31G*
  Basis Set:
  Basis Set: 6-31G*
  Basis Set:
  @DF-RHF Final Energy:  -207.96101974135772
    Total Energy =                       -207.9610197413577453
  Basis Set: 6-31G*
  Basis Set:
  Basis Set: 6-31G*
  Basis Set:
  @DF-RHF Final Energy:  -207.96103430604984
    Total Energy =                       -207.9610343060498963
  Basis Set: 6-31G*
  Basis Set:
  Basis Set: 6-31G*
  Basis Set:
  @DF-RHF Final Energy:  -207.96103287930856
    Total Energy =                       -207.9610328793084477
  Basis Set: 6-31G*
  Basis Set:
  Charge       = 0
  Multiplicity = 1
  Basis Set: 6-31G*
  Basis Set:

    Orbital Energies (a.u.)
    -----------------------

    Doubly Occupied:

       1A    -20.525757     2A    -15.590293     3A    -11.342450
       4A    -11.261420     5A     -1.389110     6A     -1.235754
       7A     -0.967752     8A     -0.808226     9A     -0.746721
      10A     -0.640769    11A     -0.626673    12A     -0.592441
      13A     -0.558543    14A     -0.531845    15A     -0.423437
      16A     -0.391067

  @DF-RHF Final Energy:  -207.96103531232671

   => Energetics <=

    Nuclear Repulsion Energy =            122.7270907201972676
    One-Electron Energy =                -526.1117342088665509
    Two-Electron Energy =                 195.4236081763425261
    DFT Exchange-Correlation Energy =       0.0000000000000000
    Empirical Dispersion Energy =           0.0000000000000000
    PCM Polarization Energy =               0.0000000000000000
    EFP Energy =                            0.0000000000000000
    Total Energy =                       -207.9610353123267430
    Molecular point group: c1
  Basis Set: 6-31G*
  Basis Set:

  -Total Gradient:
     Atom            X                  Y                   Z
    ------   -----------------  -----------------  -----------------
       1        0.000017416179     0.000039048898     0.000008263603
       2       -0.000033339305     0.000041118596    -0.000025263981
       3       -0.000045900537    -0.000059642691     0.000025302771
       4        0.000006432632     0.000012424579     0.000004905142
       5       -0.000048579553    -0.000050115207    -0.000006342663
       6        0.000020878482     0.000012494771    -0.000008133056
       7        0.000023278061    -0.000011158650    -0.000035728464
       8        0.000041655886     0.000029362434     0.000001981875
       9        0.000018158153    -0.000013532728     0.000035014771

  **** Optimization is complete! (in 5 steps) ****
    Final optimized geometry and variables:
    Molecular point group: c1

    Geometry (in Angstrom), charge = 0, multiplicity = 1:

    H           -1.234380686837     1.487900275369    -0.001784018029
    C           -0.368968395693     0.823267786858    -0.002601663141
    N           -0.705903899971    -0.478600139156     0.006160888805
    O            0.752858454505     1.236992550893    -0.010480323627
    C            0.294943838481    -1.524731182264     0.006755052718
    H           -1.668728075675    -0.721750742965     0.012433669289
    H            0.922521142983    -1.458560509915    -0.872911678036
    H           -0.205190009494    -2.483510827307     0.010513398427
    H            0.926841383202    -1.454005192338     0.883023724513

  Mulliken Charges: (a.u.)
   Center  Symbol    Alpha    Beta     Spin     Total
       1     H     0.42692  0.42692  0.00000  0.14616
       2     C     2.74736  2.74736  0.00000  0.50528
       3     N     3.87542  3.87542  0.00000 -0.75084
       4     O     4.28315  4.28315  0.00000 -0.56630
       5     C     3.13572  3.13572  0.00000 -0.27144
       6     H     0.30728  0.30728  0.00000  0.38545
       7     H     0.40396  0.40396  0.00000  0.19209
       8     H     0.41609  0.41609  0.00000  0.16782
       9     H     0.40411  0.40411  0.00000  0.19179

   Total alpha = 16.00000, Total beta = 16.00000, Total charge =  0.00000
