  ==> Input File <==

--------------------------------------------------------------------------
set {
	reference rhf
	basis cc-pvtz
}

set_num_threads( 4 )
memory 2 gb

molecule MOL {
0 1

H	 3.047520	 1.543029	 -1.296361
N	 2.283564	 0.901803	 -1.324948
C	 1.860978	 0.530248	 0.016256
H	 2.590331	 0.100882	 -1.836580
C	 0.644130	 -0.381765	 -0.031064
H	 1.604919	 1.440996	 0.547179
H	 2.651058	 0.044801	 0.590773
C	 -0.678115	 0.376691	 0.025731
H	 0.693998	 -0.977147	 -0.936845
H	 0.693309	 -1.082142	 0.800523
C	 -1.900706	 -0.535531	 -0.022488
H	 -0.725296	 1.079516	 -0.802982
H	 -0.715474	 0.974884	 0.933278
C	 -3.220513	 0.226854	 0.028039
H	 -1.865036	 -1.134397	 -0.928236
H	 -1.857948	 -1.236381	 0.806820
H	 -3.309098	 0.911849	 -0.808725
H	 -4.066838	 -0.449485	 -0.008086
H	 -3.301685	 0.809374	 0.939860

	symmetry c1
}
set optking {
	frozen_dihedral = ("
		6 3 5 9
	")
}

ee = optimize('scf')
oeprop('DIPOLE', 'QUADRUPOLE', 'MULLIKEN_CHARGES')
f=open( 'psi4out.xyz', 'w' )
f.write( "19  " )
f.write( str(ee) + "\n" )
f.write( MOL.save_string_xyz() )
f.close()
--------------------------------------------------------------------------

    Molecular point group: c1
  Charge       = 0
  Multiplicity = 1
  Basis Set: CC-PVTZ
  Basis Set:
  @DF-RHF Final Energy:  -251.44482372139734
    Total Energy =                       -251.4448237213972561
    Molecular point group: c1
  Basis Set: CC-PVTZ
  Basis Set:
  Basis Set: CC-PVTZ
  Basis Set:
  @DF-RHF Final Energy:  -251.44532342494406
    Total Energy =                       -251.4453234249443767
  Basis Set: CC-PVTZ
  Basis Set:
  Basis Set: CC-PVTZ
  Basis Set:
  @DF-RHF Final Energy:  -251.44541450295154
    Total Energy =                       -251.4454145029517917
  Basis Set: CC-PVTZ
  Basis Set:
  Basis Set: CC-PVTZ
  Basis Set:
  @DF-RHF Final Energy:  -251.44541825631313
    Total Energy =                       -251.4454182563133031
  Basis Set: CC-PVTZ
  Basis Set:
  Charge       = 0
  Multiplicity = 1
  Basis Set: CC-PVTZ
  Basis Set:

    Orbital Energies (a.u.)
    -----------------------

    Doubly Occupied:

       1A    -15.527070     2A    -11.238561     3A    -11.208054
       4A    -11.207873     5A    -11.203903     6A    -11.202210
       7A     -1.178100     8A     -1.069448     9A     -0.996168
      10A     -0.900213    11A     -0.812658    12A     -0.785088
      13A     -0.664034    14A     -0.643691    15A     -0.615323
      16A     -0.587503    17A     -0.558094    18A     -0.546018
      19A     -0.535895    20A     -0.487971    21A     -0.485278
      22A     -0.459147    23A     -0.458602    24A     -0.452245
      25A     -0.382014

  @DF-RHF Final Energy:  -251.44541888095088

   => Energetics <=

    Nuclear Repulsion Energy =            248.4689972582323492
    One-Electron Energy =                -831.4185100725102302
    Two-Electron Energy =                 331.5040939333271695
    DFT Exchange-Correlation Energy =       0.0000000000000000
    Empirical Dispersion Energy =           0.0000000000000000
    PCM Polarization Energy =               0.0000000000000000
    EFP Energy =                            0.0000000000000000
    Total Energy =                       -251.4454188809507400
    Molecular point group: c1
  Basis Set: CC-PVTZ
  Basis Set:

  -Total Gradient:
     Atom            X                  Y                   Z
    ------   -----------------  -----------------  -----------------
       1        0.000003706786     0.000001154028    -0.000025028498
       2        0.000049964501     0.000016432842     0.000006650262
       3        0.001113045027    -0.001454868522     0.003996646050
       4       -0.000002589969     0.000009000807     0.000014973029
       5        0.002431522718    -0.003211435010     0.001622181887
       6       -0.001339860896     0.001688002325    -0.003621177192
       7       -0.000020057414     0.000000775213    -0.000018274835
       8       -0.000000404152     0.000036349734     0.000039815180
       9       -0.002204630110     0.002913191448    -0.002017243577
      10       -0.000001985747     0.000014003713     0.000001075223
      11       -0.000001590391     0.000000706681    -0.000016571058
      12        0.000003839274    -0.000009880584     0.000016305045
      13       -0.000007913435     0.000004294695     0.000008205573
      14       -0.000012948645    -0.000009876035     0.000000238395
      15       -0.000003204547    -0.000012976706     0.000000160049
      16       -0.000001606057     0.000011086394    -0.000004171034
      17       -0.000000694531    -0.000000267493    -0.000003100787
      18       -0.000005968098     0.000004651900     0.000000893195
      19        0.000001375684    -0.000000345431    -0.000001576909

  **** Optimization is complete! (in 5 steps) ****
    Final optimized geometry and variables:
    Molecular point group: c1

    Geometry (in Angstrom), charge = 0, multiplicity = 1:

    H            3.068126531436     1.396652175339    -1.137376055641
    N            2.353384466797     0.700601204552    -1.118295433687
    C            2.021710333546     0.323219285262     0.250519942563
    H            2.692497485120    -0.085290151788    -1.632497637335
    C            0.797254593572    -0.594506696904     0.270923274302
    H            1.789352865761     1.244873737875     0.772159154045
    H            2.853577162231    -0.149519538813     0.769313240690
    C           -0.523477799348     0.173084541221     0.292215703943
    H            0.812097455415    -1.208161386651    -0.625644326449
    H            0.845598324497    -1.262565066854     1.125062704893
    C           -1.750630355534    -0.727294177510     0.187929967169
    H           -0.526314161747     0.886481619921    -0.526160897628
    H           -0.584101013121     0.754060873593     1.209915518310
    C           -3.065227911401     0.045030832045     0.225687120104
    H           -1.697238142955    -1.300243900632    -0.733875179531
    H           -1.736297637723    -1.452450038163     0.997673567059
    H           -3.123705634341     0.755940840400    -0.591740177977
    H           -3.916354653267    -0.621721845629     0.145856135440
    H           -3.166359305680     0.600421672909     1.152337237424

  Mulliken Charges: (a.u.)
   Center  Symbol    Alpha    Beta     Spin     Total
       1     H     0.42863  0.42863  0.00000  0.14274
       2     N     3.69350  3.69350  0.00000 -0.38700
       3     C     3.03668  3.03668  0.00000 -0.07335
       4     H     0.43086  0.43086  0.00000  0.13829
       5     C     3.08465  3.08465  0.00000 -0.16929
       6     H     0.45789  0.45789  0.00000  0.08421
       7     H     0.45839  0.45839  0.00000  0.08323
       8     C     3.08507  3.08507  0.00000 -0.17015
       9     H     0.46013  0.46013  0.00000  0.07974
      10     H     0.45093  0.45093  0.00000  0.09813
      11     C     3.08520  3.08520  0.00000 -0.17040
      12     H     0.44863  0.44863  0.00000  0.10273
      13     H     0.45815  0.45815  0.00000  0.08370
      14     C     3.14991  3.14991  0.00000 -0.29981
      15     H     0.45468  0.45468  0.00000  0.09063
      16     H     0.45673  0.45673  0.00000  0.08654
      17     H     0.45457  0.45457  0.00000  0.09087
      18     H     0.44946  0.44946  0.00000  0.10109
      19     H     0.45595  0.45595  0.00000  0.08810

   Total alpha = 25.00000, Total beta = 25.00000, Total charge = -0.00000
