                              Psi4 1.0.54 Driver

  ==> Input File <==

--------------------------------------------------------------------------
set {
	reference rhf
	basis cc-pvtz
}

set_num_threads( 4 )
memory 2 gb

molecule MOL {
0 1

H	 1.998484	 -1.081498	 -0.806434
C	 1.144643	 -1.691194	 -1.130284
C	 -0.161890	 -0.954652	 -1.236466
O	 1.293274	 -2.840763	 -1.362739
C	 -0.554654	 -0.292621	 0.086567
H	 -0.921211	 -1.649545	 -1.570221
H	 -0.043210	 -0.189998	 -2.001383
C	 -1.846385	 0.513195	 -0.016346
H	 -0.666508	 -1.057968	 0.849241
H	 0.249264	 0.358962	 0.419475
C	 -3.089953	 -0.365049	 -0.098564
H	 -1.798267	 1.154820	 -0.891143
H	 -1.925398	 1.173265	 0.842889
H	 -3.055079	 -1.012299	 -0.968245
H	 -3.988403	 0.236438	 -0.170014
H	 -3.183055	 -0.995885	 0.779079

	symmetry c1
}
set optking {
	frozen_dihedral = ("
		9 5 8 12
	")
}

ee,wfn = optimize('scf', return_wfn=True)
oeprop( wfn, 'DIPOLE', 'QUADRUPOLE', 'MULLIKEN_CHARGES')
f=open( 'psi4out.xyz', 'w' )
f.write( "16  " )
f.write( str(ee) + "\n" )
f.write( MOL.save_string_xyz() )
f.close()
--------------------------------------------------------------------------

    Molecular point group: c1
  Charge       = 0
  Multiplicity = 1
  Basis Set: CC-PVTZ
  Basis Set:
  @DF-RHF Final Energy:  -270.11718201821895
    Total Energy =                       -270.1171820182189549
    Molecular point group: c1
  Basis Set: CC-PVTZ
  Basis Set:
  Basis Set: CC-PVTZ
  Basis Set:
  @DF-RHF Final Energy:  -270.11734514382783
    Total Energy =                       -270.1173451438277766
  Basis Set: CC-PVTZ
  Basis Set:
  Basis Set: CC-PVTZ
  Basis Set:
  @DF-RHF Final Energy:  -270.11738357872633
    Total Energy =                       -270.1173835787262192
  Basis Set: CC-PVTZ
  Basis Set:
  Basis Set: CC-PVTZ
  Basis Set:
  @DF-RHF Final Energy:  -270.11738203930122
    Total Energy =                       -270.1173820393011624
  Basis Set: CC-PVTZ
  Basis Set:
  Basis Set: CC-PVTZ
  Basis Set:
  @DF-RHF Final Energy:  -270.11739382057510
    Total Energy =                       -270.1173938205751028
  Basis Set: CC-PVTZ
  Basis Set:
  Charge       = 0
  Multiplicity = 1
  Basis Set: CC-PVTZ
  Basis Set:

    Orbital Energies (a.u.)
    -----------------------

    Doubly Occupied:

       1A    -20.552187     2A    -11.321278     3A    -11.234877
       4A    -11.233667     5A    -11.227734     6A    -11.215794
       7A     -1.406905     8A     -1.097370     9A     -1.016920
      10A     -0.911929    11A     -0.810587    12A     -0.791904
      13A     -0.680998    14A     -0.648632    15A     -0.627107
      16A     -0.611743    17A     -0.581755    18A     -0.550784
      19A     -0.540579    20A     -0.507630    21A     -0.487783
      22A     -0.481572    23A     -0.474908    24A     -0.412032

  @DF-RHF Final Energy:  -270.11739454098404

   => Energetics <=

    Nuclear Repulsion Energy =            232.1108630442197693
    One-Electron Energy =                -825.6031628215170031
    Two-Electron Energy =                 323.3749052363132250
    DFT Exchange-Correlation Energy =       0.0000000000000000
    Empirical Dispersion Energy =           0.0000000000000000
    PCM Polarization Energy =               0.0000000000000000
    EFP Energy =                            0.0000000000000000
    Total Energy =                       -270.1173945409840371
    Molecular point group: c1
  Basis Set: CC-PVTZ
  Basis Set:

  -Total Gradient:
     Atom            X                  Y                   Z
    ------   -----------------  -----------------  -----------------
       1        0.000001487594     0.000001647291    -0.000005081525
       2       -0.000022321059    -0.000009276599     0.000047194117
       3        0.000014059250     0.000002593333     0.000012152211
       4        0.000018571443    -0.000025726099    -0.000033778909
       5        0.000600074881     0.001058013049     0.001180022473
       6       -0.000010790061     0.000002206164    -0.000014459181
       7        0.000001303858    -0.000000138397     0.000010935603
       8        0.000702374748     0.001245984350     0.000898417032
       9       -0.000584585197    -0.001078261905    -0.001162730482
      10        0.000003758513     0.000014139369    -0.000001735242
      11        0.000003724042     0.000014881464    -0.000007072102
      12       -0.000711410909    -0.001238958905    -0.000917845668
      13       -0.000007359963     0.000016160477     0.000009203554
      14       -0.000002450592    -0.000018121181    -0.000011500088
      15       -0.000013947779     0.000004180725    -0.000003536691
      16        0.000007511232     0.000010676866    -0.000000185102

  **** Optimization is complete! (in 6 steps) ****
    Final optimized geometry and variables:
    Molecular point group: c1

    Geometry (in Angstrom), charge = 0, multiplicity = 1:

    H            2.544481279340    -0.113511353475    -0.192118033091
    C            1.698147000950    -0.740958969702    -0.501451350225
    C            0.381553455874    -0.024006726890    -0.620765770509
    O            1.861525068549    -1.893120534694    -0.710078354290
    C           -0.011917484821     0.657400029636     0.694887166028
    H           -0.362555281140    -0.737124620952    -0.946200056979
    H            0.491764525087     0.730906888015    -1.396577498204
    C           -1.306788812026     1.468203557547     0.602978349978
    H           -0.117460153489    -0.103869746090     1.462556221649
    H            0.796505367897     1.311101942644     1.007924172808
    C           -2.571939747370     0.615335346192     0.542857798311
    H           -1.267783570673     2.106055687779    -0.275554326672
    H           -1.367915328045     2.126075687604     1.463177686730
    H           -2.586505571719    -0.026658085720    -0.329937014832
    H           -3.455253120189     1.241727596507     0.500958117924
    H           -2.656412995824    -0.017082120939     1.420099349258

  Mulliken Charges: (a.u.)
   Center  Symbol    Alpha    Beta     Spin     Total
       1     H     0.46403  0.46403  0.00000  0.07194
       2     C     2.90992  2.90992  0.00000  0.18015
       3     C     3.07909  3.07909  0.00000 -0.15818
       4     O     4.16362  4.16362  0.00000 -0.32724
       5     C     3.10839  3.10839  0.00000 -0.21677
       6     H     0.44276  0.44276  0.00000  0.11449
       7     H     0.44998  0.44998  0.00000  0.10004
       8     C     3.09022  3.09022  0.00000 -0.18044
       9     H     0.44612  0.44612  0.00000  0.10776
      10     H     0.44553  0.44553  0.00000  0.10894
      11     C     3.14894  3.14894  0.00000 -0.29789
      12     H     0.45438  0.45438  0.00000  0.09123
      13     H     0.44540  0.44540  0.00000  0.10920
      14     H     0.45259  0.45259  0.00000  0.09482
      15     H     0.44584  0.44584  0.00000  0.10833
      16     H     0.45318  0.45318  0.00000  0.09363

   Total alpha = 24.00000, Total beta = 24.00000, Total charge = -0.00000

*** Psi4 exiting successfully. Buy a developer a beer!
