                              Psi4 1.0.54 Driver

  ==> Input File <==

--------------------------------------------------------------------------
set {
	reference rhf
	basis cc-pvtz
}

set_num_threads( 4 )
memory 2 gb

molecule MOL {
0 1

H	 -3.688148	 1.145737	 0.918301
O	 -2.836784	 1.438238	 0.650607
C	 -2.021813	 0.336996	 0.342658
C	 -0.669613	 0.837286	 -0.127252
H	 -1.891797	 -0.292175	 1.219564
H	 -2.482235	 -0.270953	 -0.433739
C	 0.490865	 -0.082543	 0.241244
H	 -0.708709	 0.967192	 -1.204587
H	 -0.507562	 1.822272	 0.303070
C	 1.839800	 0.429565	 -0.255472
H	 0.305636	 -1.070211	 -0.165276
H	 0.527397	 -0.195943	 1.322876
C	 3.001144	 -0.485193	 0.119072
H	 1.804373	 0.541073	 -1.335756
H	 2.020437	 1.423114	 0.146921
H	 2.866892	 -1.477297	 -0.298806
H	 3.943543	 -0.095749	 -0.249061
H	 3.085064	 -0.590459	 1.195790

	symmetry c1
}
set optking {
	frozen_dihedral = ("
		2 3 4 8
	")
}

ee,wfn = optimize('scf', return_wfn=True)
oeprop( wfn, 'DIPOLE', 'QUADRUPOLE', 'MULLIKEN_CHARGES')
f=open( 'psi4out.xyz', 'w' )
f.write( "18  " )
f.write( str(ee) + "\n" )
f.write( MOL.save_string_xyz() )
f.close()
--------------------------------------------------------------------------

    Molecular point group: c1
  Charge       = 0
  Multiplicity = 1
  Basis Set: CC-PVTZ
  Basis Set:
  @DF-RHF Final Energy:  -271.28358997958856
    Total Energy =                       -271.2835899795885553
    Molecular point group: c1
  Basis Set: CC-PVTZ
  Basis Set:
  Basis Set: CC-PVTZ
  Basis Set:
  @DF-RHF Final Energy:  -271.28333550451873
    Total Energy =                       -271.2833355045186181
  Basis Set: CC-PVTZ
  Basis Set:
  Basis Set: CC-PVTZ
  Basis Set:
  @DF-RHF Final Energy:  -271.28392090024960
    Total Energy =                       -271.2839209002495409
  Basis Set: CC-PVTZ
  Basis Set:
  Basis Set: CC-PVTZ
  Basis Set:
  @DF-RHF Final Energy:  -271.28393415460255
    Total Energy =                       -271.2839341546026617
  Basis Set: CC-PVTZ
  Basis Set:
  Basis Set: CC-PVTZ
  Basis Set:
  @DF-RHF Final Energy:  -271.28393587710917
    Total Energy =                       -271.2839358771092861
  Basis Set: CC-PVTZ
  Basis Set:
  Charge       = 0
  Multiplicity = 1
  Basis Set: CC-PVTZ
  Basis Set:

    Orbital Energies (a.u.)
    -----------------------

    Doubly Occupied:

       1A    -20.545388     2A    -11.265384     3A    -11.213401
       4A    -11.212771     5A    -11.209301     6A    -11.206470
       7A     -1.362764     8A     -1.080927     9A     -1.011231
      10A     -0.913608    11A     -0.820910    12A     -0.792190
      13A     -0.700709    14A     -0.655622    15A     -0.624479
      16A     -0.586831    17A     -0.572495    18A     -0.560043
      19A     -0.530692    20A     -0.497302    21A     -0.490671
      22A     -0.468634    23A     -0.464338    24A     -0.452049
      25A     -0.434086

  @DF-RHF Final Energy:  -271.28393653326805

   => Energetics <=

    Nuclear Repulsion Energy =            245.6557299623305255
    One-Electron Energy =                -854.5347366952477159
    Two-Electron Energy =                 337.5950701996490579
    DFT Exchange-Correlation Energy =       0.0000000000000000
    Empirical Dispersion Energy =           0.0000000000000000
    PCM Polarization Energy =               0.0000000000000000
    EFP Energy =                            0.0000000000000000
    Total Energy =                       -271.2839365332681609
    Molecular point group: c1
  Basis Set: CC-PVTZ
  Basis Set:

  -Total Gradient:
     Atom            X                  Y                   Z
    ------   -----------------  -----------------  -----------------
       1       -0.000009255908     0.000002670034     0.000006581163
       2        0.001015380649    -0.000453936452     0.003263232352
       3       -0.001016121317    -0.000432860203    -0.004481236495
       4       -0.001220076039     0.005083689957     0.002145106398
       5       -0.000000293068     0.000010354589    -0.000000872174
       6       -0.000014739209     0.000014317575    -0.000002257713
       7       -0.000003574619     0.000004213063     0.000000582135
       8        0.001226381105    -0.004225543755    -0.000936122821
       9        0.000000628021    -0.000000371910     0.000004513768
      10        0.000018452162    -0.000006804355    -0.000014593855
      11       -0.000011018216     0.000004352702    -0.000001551149
      12        0.000006146480    -0.000010477057     0.000007470939
      13       -0.000000773578     0.000007923781     0.000016970741
      14       -0.000005353030     0.000001445040    -0.000008261197
      15        0.000007667634     0.000004964383     0.000000067573
      16       -0.000001251789    -0.000000545314    -0.000006035666
      17        0.000003905549     0.000003173371     0.000001490746
      18        0.000003895174    -0.000006565450     0.000004915256

  **** Optimization is complete! (in 6 steps) ****
    Final optimized geometry and variables:
    Molecular point group: c1

    Geometry (in Angstrom), charge = 0, multiplicity = 1:

    H           -3.588417063201     0.841475316168     0.678733008086
    O           -2.705567445994     1.116839578585     0.513870253897
    C           -1.922638380186     0.017824894934     0.124470713353
    C           -0.528977030023     0.510733246627    -0.245263921969
    H           -1.853580293884    -0.690474054017     0.947035708089
    H           -2.376613147020    -0.502147222570    -0.714941862648
    C            0.555446440099    -0.528224308295     0.034056371030
    H           -0.499818938799     0.755898913582    -1.302068912798
    H           -0.329623563540     1.417340926965     0.312799745067
    C            1.945512157982    -0.080780034612    -0.407926566317
    H            0.304940719361    -1.460133203984    -0.469387235632
    H            0.572580069872    -0.753045875445     1.097591931788
    C            3.029697818997    -1.111318876178    -0.111177090777
    H            1.932465014621     0.131609122313    -1.473362944761
    H            2.192879741875     0.855178264382     0.085310309183
    H            2.827793690818    -2.049148568243    -0.618231235483
    H            4.002856016306    -0.762638997845    -0.437250763287
    H            3.092242724574    -1.318826594674     0.951917396406

  Mulliken Charges: (a.u.)
   Center  Symbol    Alpha    Beta     Spin     Total
       1     H     0.39601  0.39601  0.00000  0.20799
       2     O     4.19633  4.19633  0.00000 -0.39266
       3     C     2.96328  2.96328  0.00000  0.07344
       4     C     3.08614  3.08614  0.00000 -0.17227
       5     H     0.47685  0.47685  0.00000  0.04629
       6     H     0.47249  0.47249  0.00000  0.05502
       7     C     3.09594  3.09594  0.00000 -0.19187
       8     H     0.45538  0.45538  0.00000  0.08925
       9     H     0.44587  0.44587  0.00000  0.10827
      10     C     3.08477  3.08477  0.00000 -0.16953
      11     H     0.45650  0.45650  0.00000  0.08700
      12     H     0.45428  0.45428  0.00000  0.09144
      13     C     3.14949  3.14949  0.00000 -0.29899
      14     H     0.45431  0.45431  0.00000  0.09137
      15     H     0.45326  0.45326  0.00000  0.09349
      16     H     0.45573  0.45573  0.00000  0.08854
      17     H     0.44832  0.44832  0.00000  0.10337
      18     H     0.45508  0.45508  0.00000  0.08985

   Total alpha = 25.00000, Total beta = 25.00000, Total charge = -0.00000

*** Psi4 exiting successfully. Buy a developer a beer!
