  ==> Input File <==

--------------------------------------------------------------------------
set {
	reference rhf
	basis cc-pvtz
}

set_num_threads( 4 )
memory 2 gb

molecule MOL {
0 1

H	 1.498732	 -1.323122	 -0.686686
O	 1.583947	 -0.677544	 -0.001533
C	 0.489979	 0.078084	 0.002623
C	 -0.763662	 -0.754014	 0.000816
O	 0.539051	 1.259395	 -0.000088
C	 -2.038001	 0.074705	 -0.000833
H	 -0.712945	 -1.405886	 -0.864342
H	 -0.715137	 -1.405770	 0.866182
H	 -2.087267	 0.710831	 -0.874232
H	 -2.903419	 -0.576199	 -0.001922
H	 -2.089467	 0.710909	 0.872389

	symmetry c1
}
set optking {
	frozen_dihedral = ("
		1 2 3 5
	")
}

ee = optimize('scf')
oeprop('DIPOLE', 'QUADRUPOLE', 'MULLIKEN_CHARGES')
f=open( 'psi4out.xyz', 'w' )
f.write( "11  " )
f.write( str(ee) + "\n" )
f.write( MOL.save_string_xyz() )
f.close()
--------------------------------------------------------------------------

    Molecular point group: c1
  Charge       = 0
  Multiplicity = 1
  Basis Set: CC-PVTZ
  Basis Set:
  @DF-RHF Final Energy:  -266.93574189757601
    Total Energy =                       -266.9357418975761789
    Molecular point group: c1
  Basis Set: CC-PVTZ
  Basis Set:
  Basis Set: CC-PVTZ
  Basis Set:
  @DF-RHF Final Energy:  -266.93707867725868
    Total Energy =                       -266.9370786772586825
  Basis Set: CC-PVTZ
  Basis Set:
  Basis Set: CC-PVTZ
  Basis Set:
  @DF-RHF Final Energy:  -266.93705763338255
    Total Energy =                       -266.9370576333823806
  Basis Set: CC-PVTZ
  Basis Set:
  Basis Set: CC-PVTZ
  Basis Set:
  @DF-RHF Final Energy:  -266.93718733276296
    Total Energy =                       -266.9371873327631874
  Basis Set: CC-PVTZ
  Basis Set:
  Basis Set: CC-PVTZ
  Basis Set:
  @DF-RHF Final Energy:  -266.93721256048082
    Total Energy =                       -266.9372125604807025
  Basis Set: CC-PVTZ
  Basis Set:
  Charge       = 0
  Multiplicity = 1
  Basis Set: CC-PVTZ
  Basis Set:

    Orbital Energies (a.u.)
    -----------------------

    Doubly Occupied:

       1A    -20.594991     2A    -20.545846     3A    -11.374437
       4A    -11.250371     5A    -11.222911     6A     -1.467304
       7A     -1.374135     8A     -1.067919     9A     -0.909605
      10A     -0.822460    11A     -0.718376    12A     -0.672408
      13A     -0.662332    14A     -0.617875    15A     -0.581200
      16A     -0.533590    17A     -0.524287    18A     -0.509971
      19A     -0.489910    20A     -0.448030

  @DF-RHF Final Energy:  -266.93721329707483

   => Energetics <=

    Nuclear Repulsion Energy =            179.6891210185927434
    One-Electron Energy =                -720.4767480287835042
    Two-Electron Energy =                 273.8504137131158132
    DFT Exchange-Correlation Energy =       0.0000000000000000
    Empirical Dispersion Energy =           0.0000000000000000
    PCM Polarization Energy =               0.0000000000000000
    EFP Energy =                            0.0000000000000000
    Total Energy =                       -266.9372132970750044
    Molecular point group: c1
  Basis Set: CC-PVTZ
  Basis Set:

  -Total Gradient:
     Atom            X                  Y                   Z
    ------   -----------------  -----------------  -----------------
       1        0.002779505862     0.004414698066    -0.004268792336
       2       -0.003567711952    -0.005528101768     0.002796290259
       3        0.000882911805     0.000928332903     0.007284834838
       4        0.000014526902     0.000022412238     0.000082618239
       5       -0.000091301715     0.000156351519    -0.005837619489
       6       -0.000017820348     0.000000127697    -0.000023580427
       7        0.000006439329     0.000011211006    -0.000027100096
       8       -0.000005085726    -0.000001503404    -0.000022353803
       9        0.000004420421    -0.000003433243     0.000006530372
      10       -0.000008390990     0.000002420708     0.000005359474
      11        0.000002506412    -0.000002515722     0.000003812968

  **** Optimization is complete! (in 6 steps) ****
    Final optimized geometry and variables:
    Molecular point group: c1

    Geometry (in Angstrom), charge = 0, multiplicity = 1:

    H            1.620313899558    -1.295595495807    -0.694355941490
    O            1.632253560400    -0.645741556879    -0.012532725370
    C            0.497425491442     0.083204348199     0.009040215203
    C           -0.771123362961    -0.736156347815     0.013275057285
    O            0.539070584335     1.256321329127     0.031228430801
    C           -2.038882344388     0.102560837499     0.006632321267
    H           -0.742486455352    -1.399050423395    -0.848095466938
    H           -0.728778980451    -1.381409029401     0.884349912439
    H           -2.083494574177     0.732647712930    -0.871459271824
    H           -2.911102407963    -0.539386142464     0.013375590364
    H           -2.079444901549     0.745862582065     0.874796725480

  Mulliken Charges: (a.u.)
   Center  Symbol    Alpha    Beta     Spin     Total
       1     H     0.38854  0.38854  0.00000  0.22292
       2     O     4.15982  4.15982  0.00000 -0.31964
       3     C     2.80606  2.80606  0.00000  0.38789
       4     C     3.10861  3.10861  0.00000 -0.21722
       5     O     4.16469  4.16469  0.00000 -0.32938
       6     C     3.13972  3.13972  0.00000 -0.27945
       7     H     0.45325  0.45325  0.00000  0.09351
       8     H     0.43688  0.43688  0.00000  0.12624
       9     H     0.44757  0.44757  0.00000  0.10486
      10     H     0.45026  0.45026  0.00000  0.09948
      11     H     0.44460  0.44460  0.00000  0.11080

   Total alpha = 20.00000, Total beta = 20.00000, Total charge = -0.00000
