                              Psi4 1.0.54 Driver

  ==> Input File <==

--------------------------------------------------------------------------
set {
	reference rhf
	basis cc-pvtz
}

set_num_threads( 4 )
memory 2 gb

molecule MOL {
0 1

H	 -1.367681	 2.090777	 2.772594
O	 -1.108848	 1.451831	 2.134779
C	 -0.368163	 2.063811	 1.110629
C	 0.027642	 1.012027	 0.090274
H	 0.531044	 2.521136	 1.515659
H	 -0.949843	 2.852328	 0.641215
C	 -1.138737	 0.285728	 -0.581921
H	 0.657014	 0.282052	 0.588806
H	 0.643338	 1.494473	 -0.664961
C	 -1.933983	 -0.631436	 0.343653
H	 -0.763151	 -0.285569	 -1.422081
H	 -1.808359	 1.035291	 -0.992333
H	 -2.789188	 -1.049673	 -0.174718
H	 -1.335629	 -1.461368	 0.700418
H	 -2.305435	 -0.092167	 1.209725

	symmetry c1
}
set optking {
	frozen_dihedral = ("
		8 4 7 11
	")
}

ee,wfn = optimize('scf', return_wfn=True)
oeprop( wfn, 'DIPOLE', 'QUADRUPOLE', 'MULLIKEN_CHARGES')
f=open( 'psi4out.xyz', 'w' )
f.write( "15  " )
f.write( str(ee) + "\n" )
f.write( MOL.save_string_xyz() )
f.close()
--------------------------------------------------------------------------

    Molecular point group: c1
  Charge       = 0
  Multiplicity = 1
  Basis Set: CC-PVTZ
  Basis Set:
  @DF-RHF Final Energy:  -232.23294770933887
    Total Energy =                       -232.2329477093388164
    Molecular point group: c1
  Basis Set: CC-PVTZ
  Basis Set:
  Basis Set: CC-PVTZ
  Basis Set:
  @DF-RHF Final Energy:  -232.23508353887317
    Total Energy =                       -232.2350835388733117
  Basis Set: CC-PVTZ
  Basis Set:
  Basis Set: CC-PVTZ
  Basis Set:
  @DF-RHF Final Energy:  -232.23600497169141
    Total Energy =                       -232.2360049716915000
  Basis Set: CC-PVTZ
  Basis Set:
  Basis Set: CC-PVTZ
  Basis Set:
  @DF-RHF Final Energy:  -232.23610186412139
    Total Energy =                       -232.2361018641215082
  Basis Set: CC-PVTZ
  Basis Set:
  Basis Set: CC-PVTZ
  Basis Set:
  @DF-RHF Final Energy:  -232.23611413528698
    Total Energy =                       -232.2361141352868685
  Basis Set: CC-PVTZ
  Basis Set:
  Charge       = 0
  Multiplicity = 1
  Basis Set: CC-PVTZ
  Basis Set:

    Orbital Energies (a.u.)
    -----------------------

    Doubly Occupied:

       1A    -20.547078     2A    -11.266943     3A    -11.211965
       4A    -11.210026     5A    -11.193822     6A     -1.365081
       7A     -1.063630     8A     -0.971792     9A     -0.863103
      10A     -0.779185    11A     -0.707169    12A     -0.647705
      13A     -0.605267    14A     -0.580085    15A     -0.552696
      16A     -0.539412    17A     -0.509761    18A     -0.471222
      19A     -0.468309    20A     -0.452622    21A     -0.430480

  @DF-RHF Final Energy:  -232.23611503149988

   => Energetics <=

    Nuclear Repulsion Energy =            192.3563055881627974
    One-Electron Energy =                -696.3101363558884032
    Two-Electron Energy =                 271.7177157362258981
    DFT Exchange-Correlation Energy =       0.0000000000000000
    Empirical Dispersion Energy =           0.0000000000000000
    PCM Polarization Energy =               0.0000000000000000
    EFP Energy =                            0.0000000000000000
    Total Energy =                       -232.2361150314997076
    Molecular point group: c1
  Basis Set: CC-PVTZ
  Basis Set:

  -Total Gradient:
     Atom            X                  Y                   Z
    ------   -----------------  -----------------  -----------------
       1        0.000021671023     0.000009184468    -0.000014376088
       2       -0.000007935841    -0.000040207235    -0.000030808175
       3       -0.000025491778     0.000013819515     0.000061993161
       4       -0.000071966287    -0.000063980885     0.000178914033
       5        0.000011352944    -0.000000000327    -0.000023372996
       6       -0.000006300186     0.000008019314    -0.000029105167
       7       -0.000045954779     0.000134400578    -0.000133109257
       8        0.000084601567    -0.000003947722    -0.000093216449
       9       -0.000010894990     0.000010751274     0.000008996055
      10        0.000031805790    -0.000021407886    -0.000058360089
      11        0.000032371636    -0.000101939990     0.000077560218
      12       -0.000025200853     0.000006173671    -0.000006893376
      13        0.000017488787     0.000023011314     0.000012764077
      14        0.000008930754    -0.000008513084     0.000014642862
      15       -0.000014477789     0.000034636997     0.000034371192

  **** Optimization is complete! (in 6 steps) ****
    Final optimized geometry and variables:
    Molecular point group: c1

    Geometry (in Angstrom), charge = 0, multiplicity = 1:

    H           -0.365230267602     1.212028784586     2.239742396098
    O           -0.096251590418     0.582711649759     1.596431204400
    C            0.421061468267     1.240928850985     0.468928035600
    C            0.889133768205     0.230111910832    -0.563250924008
    H            1.263782648871     1.864033369027     0.757867916183
    H           -0.332365522386     1.892445625290     0.029982031656
    C           -0.207453686003    -0.543800687941    -1.300663477107
    H            1.574192883913    -0.461980401196    -0.082575860176
    H            1.469396925596     0.780783736232    -1.298553981799
    C           -0.938443670982    -1.602231071768    -0.477914354148
    H            0.250299491975    -1.029615255772    -2.157282645977
    H           -0.927865724214     0.162398681663    -1.706289482742
    H           -1.643037472291    -2.142940552967    -1.100612735689
    H           -0.239077843648    -2.323094293979    -0.067444030644
    H           -1.478779236359    -1.165114263053     0.348952688280

  Mulliken Charges: (a.u.)
   Center  Symbol    Alpha    Beta     Spin     Total
       1     H     0.39613  0.39613  0.00000  0.20774
       2     O     4.19695  4.19695  0.00000 -0.39390
       3     C     2.97329  2.97329  0.00000  0.05341
       4     C     3.09527  3.09527  0.00000 -0.19053
       5     H     0.46400  0.46400  0.00000  0.07201
       6     H     0.47408  0.47408  0.00000  0.05185
       7     C     3.08806  3.08806  0.00000 -0.17611
       8     H     0.45190  0.45190  0.00000  0.09620
       9     H     0.44947  0.44947  0.00000  0.10106
      10     C     3.14330  3.14330  0.00000 -0.28660
      11     H     0.45090  0.45090  0.00000  0.09820
      12     H     0.45802  0.45802  0.00000  0.08397
      13     H     0.45330  0.45330  0.00000  0.09340
      14     H     0.45725  0.45725  0.00000  0.08551
      15     H     0.44810  0.44810  0.00000  0.10380

   Total alpha = 21.00000, Total beta = 21.00000, Total charge =  0.00000

*** Psi4 exiting successfully. Buy a developer a beer!
