  ==> Input File <==

--------------------------------------------------------------------------
set {
	reference rhf
	basis cc-pvtz
}

set_num_threads( 4 )
memory 2 gb

molecule MOL {
0 1

H	 1.128311	 0.207724	 1.465118
C	 1.134565	 0.093781	 0.372499
C	 0.062554	 0.862911	 -0.350953
O	 1.948932	 -0.587720	 -0.146651
C	 -1.345994	 0.515580	 0.140951
H	 0.167646	 0.684419	 -1.413304
H	 0.255961	 1.917292	 -0.166699
C	 -1.770224	 -0.912061	 -0.191496
H	 -2.045883	 1.213504	 -0.303605
H	 -1.401605	 0.673974	 1.214387
H	 -1.758555	 -1.081011	 -1.262419
H	 -2.773647	 -1.108718	 0.166427
H	 -1.109421	 -1.642957	 0.261456

	symmetry c1
}
set optking {
	frozen_dihedral = ("
		6 3 2 4
	")
}

ee = optimize('scf')
oeprop('DIPOLE', 'QUADRUPOLE', 'MULLIKEN_CHARGES')
f=open( 'psi4out.xyz', 'w' )
f.write( "13  " )
f.write( str(ee) + "\n" )
f.write( MOL.save_string_xyz() )
f.close()
--------------------------------------------------------------------------

    Molecular point group: c1
  Charge       = 0
  Multiplicity = 1
  Basis Set: CC-PVTZ
  Basis Set:
  @DF-RHF Final Energy:  -231.07073780396922
    Total Energy =                       -231.0707378039691093
    Molecular point group: c1
  Basis Set: CC-PVTZ
  Basis Set:
  Basis Set: CC-PVTZ
  Basis Set:
  @DF-RHF Final Energy:  -231.07066991818323
    Total Energy =                       -231.0706699181833415
  Basis Set: CC-PVTZ
  Basis Set:
  Basis Set: CC-PVTZ
  Basis Set:
  @DF-RHF Final Energy:  -231.07074047957738
    Total Energy =                       -231.0707404795774949
  Basis Set: CC-PVTZ
  Basis Set:
  Basis Set: CC-PVTZ
  Basis Set:
  @DF-RHF Final Energy:  -231.07073851390655
    Total Energy =                       -231.0707385139066332
  Basis Set: CC-PVTZ
  Basis Set:
  Charge       = 0
  Multiplicity = 1
  Basis Set: CC-PVTZ
  Basis Set:

    Orbital Energies (a.u.)
    -----------------------

    Doubly Occupied:

       1A    -20.552647     2A    -11.321900     3A    -11.237088
       4A    -11.234778     5A    -11.219035     6A     -1.407554
       7A     -1.087819     8A     -0.974110     9A     -0.848081
      10A     -0.789400    11A     -0.669419    12A     -0.652184
      13A     -0.628062    14A     -0.596096    15A     -0.559734
      16A     -0.537125    17A     -0.507494    18A     -0.493792
      19A     -0.483827    20A     -0.413018

  @DF-RHF Final Energy:  -231.07074112470019

   => Energetics <=

    Nuclear Repulsion Energy =            174.2278776529445281
    One-Electron Energy =                -658.1709111529809206
    Two-Electron Energy =                 252.8722923753360590
    DFT Exchange-Correlation Energy =       0.0000000000000000
    Empirical Dispersion Energy =           0.0000000000000000
    PCM Polarization Energy =               0.0000000000000000
    EFP Energy =                            0.0000000000000000
    Total Energy =                       -231.0707411247003336
    Molecular point group: c1
  Basis Set: CC-PVTZ
  Basis Set:

  -Total Gradient:
     Atom            X                  Y                   Z
    ------   -----------------  -----------------  -----------------
       1       -0.000000850578     0.000000365856    -0.000000151744
       2        0.000286430416     0.000370162740    -0.000032385794
       3       -0.000267851716    -0.000354806249     0.000060949378
       4       -0.000165328170    -0.000223266945     0.000015768098
       5        0.000000240044     0.000004137493    -0.000019584487
       6        0.000157950583     0.000207886015    -0.000017793308
       7        0.000004734719     0.000003310358    -0.000005717766
       8       -0.000011295624    -0.000008216830     0.000002957918
       9       -0.000011375104    -0.000000025632     0.000003105342
      10        0.000007216839    -0.000000214619    -0.000007100811
      11       -0.000001721347    -0.000000135133    -0.000000134047
      12        0.000001920779    -0.000002585057     0.000000976220
      13       -0.000000070834     0.000003387999    -0.000000888999

  **** Optimization is complete! (in 5 steps) ****
    Final optimized geometry and variables:
    Molecular point group: c1

    Geometry (in Angstrom), charge = 0, multiplicity = 1:

    H            1.115787590822     0.231611548786     1.503163625484
    C            1.126443606411     0.120257541811     0.410354545651
    C            0.055587488466     0.888780832163    -0.314890966298
    O            1.940333475307    -0.563448974591    -0.106740898008
    C           -1.352442390079     0.539947161540     0.179098303436
    H            0.160025507204     0.708206255153    -1.376940180094
    H            0.246393023156     1.943810281521    -0.132392908911
    C           -1.777487705621    -0.887204208776    -0.154114373952
    H           -2.052807249279     1.238592759184    -0.263562889456
    H           -1.406132550641     0.697296960654     1.252787795547
    H           -1.767094598663    -1.055086657081    -1.225186265039
    H           -2.780758437029    -1.083083491399     0.204704155423
    H           -1.116613908071    -1.618720428742     0.297334325290

  Mulliken Charges: (a.u.)
   Center  Symbol    Alpha    Beta     Spin     Total
       1     H     0.46482  0.46482  0.00000  0.07035
       2     C     2.90551  2.90551  0.00000  0.18899
       3     C     3.08705  3.08705  0.00000 -0.17411
       4     O     4.16476  4.16476  0.00000 -0.32953
       5     C     3.10319  3.10319  0.00000 -0.20639
       6     H     0.44336  0.44336  0.00000  0.11328
       7     H     0.44304  0.44304  0.00000  0.11392
       8     C     3.14354  3.14354  0.00000 -0.28708
       9     H     0.44370  0.44370  0.00000  0.11260
      10     H     0.45133  0.45133  0.00000  0.09734
      11     H     0.45116  0.45116  0.00000  0.09768
      12     H     0.44694  0.44694  0.00000  0.10613
      13     H     0.45159  0.45159  0.00000  0.09682

   Total alpha = 20.00000, Total beta = 20.00000, Total charge = -0.00000
