  ==> Input File <==

--------------------------------------------------------------------------
set {
	reference rhf
	basis 6-31G*
}

set_num_threads( 1 )
memory 2 gb

molecule MOL {
0 1

H	 -2.698709	 -0.000305	 0.034435
C	 -1.693833	 0.000034	 0.434417
O	 -0.828952	 -0.000968	 -0.659236
H	 -1.574200	 0.882896	 1.055746
H	 -1.574147	 -0.881698	 1.057355
C	 0.212903	 0.946508	 -0.695736
C	 -0.303769	 2.381903	 -0.770626
C	 1.221972	 0.750930	 0.434081
H	 0.714379	 0.725242	 -1.630399
H	 -1.053584	 2.471666	 -1.549259
H	 0.512393	 3.058333	 -1.004202
H	 -0.741489	 2.710588	 0.166673
H	 1.527633	 -0.288266	 0.489767
H	 2.104626	 1.356158	 0.252183
H	 0.820081	 1.042487	 1.399129

	symmetry c1
}
set optking {
	frozen_dihedral = ("
		9 6 3 2
	")
}

ee = energy('scf')
oeprop('DIPOLE', 'QUADRUPOLE', 'MULLIKEN_CHARGES')
f=open( 'psi4out.xyz', 'w' )
f.write( "15  " )
f.write( str(ee) + "\n" )
f.write( MOL.save_string_xyz() )
f.close()
--------------------------------------------------------------------------

    Molecular point group: c1

    Geometry (in Angstrom), charge = 0, multiplicity = 1:

       Center              X                  Y                   Z               Mass
    ------------   -----------------  -----------------  -----------------  -----------------
           H         -2.401838761602    -0.811675712210     0.269948625149     1.007825032070
           C         -1.396962761602    -0.811336712210     0.669930625149    12.000000000000
           O         -0.532081761602    -0.812338712210    -0.423722374851    15.994914619560
           H         -1.277329761602     0.071525287790     1.291259625149     1.007825032070
           H         -1.277276761602    -1.693068712210     1.292868625149     1.007825032070
           C          0.509773238398     0.135137287790    -0.460222374851    12.000000000000
           C         -0.006898761602     1.570532287790    -0.535112374851    12.000000000000
           C          1.518842238398    -0.060440712210     0.669594625149    12.000000000000
           H          1.011249238398    -0.086128712210    -1.394885374851     1.007825032070
           H         -0.756713761602     1.660295287790    -1.313745374851     1.007825032070
           H          0.809263238398     2.246962287790    -0.768688374851     1.007825032070
           H         -0.444618761602     1.899217287790     0.402186625149     1.007825032070
           H          1.824503238398    -1.099636712210     0.725280625149     1.007825032070
           H          2.401496238398     0.544787287790     0.487696625149     1.007825032070
           H          1.116951238398     0.231116287790     1.634642625149     1.007825032070

  Charge       = 0
  Multiplicity = 1
  Basis Set: 6-31G*
  Basis Set:

    Orbital Energies (a.u.)
    -----------------------

    Doubly Occupied:

       1A    -20.546208     2A    -11.274982     3A    -11.260764
       4A    -11.210838     5A    -11.210540     6A     -1.369602
       7A     -1.050604     8A     -0.939664     9A     -0.931199
      10A     -0.781530    11A     -0.676751    12A     -0.639132
      13A     -0.632065    14A     -0.570537    15A     -0.563088
      16A     -0.552398    17A     -0.538143    18A     -0.500323
      19A     -0.497455    20A     -0.442759    21A     -0.402984

  @DF-RHF Final Energy:  -232.13497409915848

   => Energetics <=

    Nuclear Repulsion Energy =            198.8031945566883962
    One-Electron Energy =                -708.6931164001274510
    Two-Electron Energy =                 277.7549477442804005
    DFT Exchange-Correlation Energy =       0.0000000000000000
    Empirical Dispersion Energy =           0.0000000000000000
    PCM Polarization Energy =               0.0000000000000000
    EFP Energy =                            0.0000000000000000
    Total Energy =                       -232.1349740991586827

  Mulliken Charges: (a.u.)
   Center  Symbol    Alpha    Beta     Spin     Total
       1     H     0.41831  0.41831  0.00000  0.16337
       2     C     3.07875  3.07875  0.00000 -0.15749
       3     O     4.31404  4.31404  0.00000 -0.62809
       4     H     0.43050  0.43050  0.00000  0.13900
       5     H     0.42291  0.42291  0.00000  0.15418
       6     C     2.91069  2.91069  0.00000  0.17862
       7     C     3.25203  3.25203  0.00000 -0.50407
       8     C     3.25157  3.25157  0.00000 -0.50314
       9     H     0.41536  0.41536  0.00000  0.16928
      10     H     0.41134  0.41134  0.00000  0.17733
      11     H     0.41941  0.41941  0.00000  0.16119
      12     H     0.42180  0.42180  0.00000  0.15640
      13     H     0.41131  0.41131  0.00000  0.17739
      14     H     0.41977  0.41977  0.00000  0.16046
      15     H     0.42222  0.42222  0.00000  0.15557

   Total alpha = 21.00000, Total beta = 21.00000, Total charge =  0.00000
