  ==> Input File <==

--------------------------------------------------------------------------
set {
	reference rhf
	basis 6-31G*
}

set_num_threads( 1 )
memory 2 gb

molecule MOL {
0 1

H	 -3.161837	 0.500524	 -0.000234
C	 -2.367097	 -0.232926	 -0.000000
O	 -1.158440	 0.455814	 -0.000122
H	 -2.468853	 -0.861886	 -0.882833
H	 -2.468942	 -0.861421	 0.883154
C	 -0.029776	 -0.365156	 0.000148
C	 0.921856	 0.109439	 -1.084204
H	 -0.319500	 -1.401698	 -0.177444
H	 0.459196	 -0.330759	 0.974638
C	 2.192542	 -0.736047	 -1.157630
H	 0.399507	 0.084584	 -2.035621
H	 1.172836	 1.148006	 -0.891623
H	 1.964743	 -1.776084	 -1.374087
H	 2.853123	 -0.375195	 -1.938825
H	 2.743312	 -0.705699	 -0.221609

	symmetry c1
}
set optking {
	frozen_dihedral = ("
		6 3 2 4,
		11 7 6 8
	")
}

ee = energy('scf')
oeprop('DIPOLE', 'QUADRUPOLE', 'MULLIKEN_CHARGES')
f=open( 'psi4out.xyz', 'w' )
f.write( "15  " )
f.write( str(ee) + "\n" )
f.write( MOL.save_string_xyz() )
f.close()
--------------------------------------------------------------------------

    Molecular point group: c1

    Geometry (in Angstrom), charge = 0, multiplicity = 1:

       Center              X                  Y                   Z               Mass
    ------------   -----------------  -----------------  -----------------  -----------------
           H         -3.043898465057     0.662810001054     0.440019797375     1.007825032070
           C         -2.249158465057    -0.070639998946     0.440253797375    12.000000000000
           O         -1.040501465057     0.618100001054     0.440131797375    15.994914619560
           H         -2.350914465057    -0.699599998946    -0.442579202625     1.007825032070
           H         -2.351003465057    -0.699134998946     1.323407797375     1.007825032070
           C          0.088162534943    -0.202869998946     0.440401797375    12.000000000000
           C          1.039794534943     0.271725001054    -0.643950202625    12.000000000000
           H         -0.201561465057    -1.239411998946     0.262809797375     1.007825032070
           H          0.577134534943    -0.168472998946     1.414891797375     1.007825032070
           C          2.310480534943    -0.573760998946    -0.717376202625    12.000000000000
           H          0.517445534943     0.246870001054    -1.595367202625     1.007825032070
           H          1.290774534943     1.310292001054    -0.451369202625     1.007825032070
           H          2.082681534943    -1.613797998946    -0.933833202625     1.007825032070
           H          2.971061534943    -0.212908998946    -1.498571202625     1.007825032070
           H          2.861250534943    -0.543412998946     0.218644797375     1.007825032070

  Charge       = 0
  Multiplicity = 1
  Basis Set: 6-31G*
  Basis Set:

    Orbital Energies (a.u.)
    -----------------------

    Doubly Occupied:

       1A    -20.551268     2A    -11.265620     3A    -11.265003
       4A    -11.213119     5A    -11.212188     6A     -1.377925
       7A     -1.056241     8A     -0.955596     9A     -0.879013
      10A     -0.808846    11A     -0.672626    12A     -0.652978
      13A     -0.635028    14A     -0.602071    15A     -0.568016
      16A     -0.538271    17A     -0.503697    18A     -0.491894
      19A     -0.481425    20A     -0.463933    21A     -0.405871

  @DF-RHF Final Energy:  -232.13558514306581

   => Energetics <=

    Nuclear Repulsion Energy =            190.4901967309453710
    One-Electron Energy =                -692.0503448185406796
    Two-Electron Energy =                 269.4245629445292707
    DFT Exchange-Correlation Energy =       0.0000000000000000
    Empirical Dispersion Energy =           0.0000000000000000
    PCM Polarization Energy =               0.0000000000000000
    EFP Energy =                            0.0000000000000000
    Total Energy =                       -232.1355851430660096

  Mulliken Charges: (a.u.)
   Center  Symbol    Alpha    Beta     Spin     Total
       1     H     0.41300  0.41300  0.00000  0.17400
       2     C     3.08093  3.08093  0.00000 -0.16187
       3     O     4.30547  4.30547  0.00000 -0.61094
       4     H     0.43014  0.43014  0.00000  0.13972
       5     H     0.42964  0.42964  0.00000  0.14071
       6     C     2.98580  2.98580  0.00000  0.02840
       7     C     3.15673  3.15673  0.00000 -0.31347
       8     H     0.43262  0.43262  0.00000  0.13476
       9     H     0.42604  0.42604  0.00000  0.14792
      10     C     3.24895  3.24895  0.00000 -0.49789
      11     H     0.41868  0.41868  0.00000  0.16265
      12     H     0.41383  0.41383  0.00000  0.17234
      13     H     0.42179  0.42179  0.00000  0.15641
      14     H     0.41585  0.41585  0.00000  0.16830
      15     H     0.42051  0.42051  0.00000  0.15898

   Total alpha = 21.00000, Total beta = 21.00000, Total charge = -0.00000
