                              Psi4 1.0.54 Driver

  ==> Input File <==

--------------------------------------------------------------------------
set {
	reference rhf
	basis cc-pvtz
}

set_num_threads( 4 )
memory 2 gb

molecule MOL {
0 1

H	 2.475235	 2.561476	 -1.450991
O	 1.539868	 2.505355	 -1.524237
C	 1.047619	 1.509630	 -0.761550
C	 1.862240	 0.699372	 0.014694
C	 -0.317513	 1.308712	 -0.769757
H	 2.925474	 0.857284	 0.019902
C	 1.310927	 -0.308402	 0.779809
H	 -0.949336	 1.932806	 -1.368212
C	 -0.861704	 0.296439	 0.000000
H	 1.951002	 -0.929018	 1.376436
C	 -0.053743	 -0.515975	 0.777179
C	 -2.330689	 0.069587	 0.000000
H	 -0.485322	 -1.298835	 1.371113
O	 -2.848621	 -0.993976	 0.000000
H	 -2.934306	 0.982410	 0.000000

	symmetry c1
}
set optking {
	frozen_dihedral = ("
		11 9 12 14
	")
}

ee,wfn = optimize('scf', return_wfn=True)
oeprop( wfn, 'DIPOLE', 'QUADRUPOLE', 'MULLIKEN_CHARGES')
f=open( 'psi4out.xyz', 'w' )
f.write( "15  " )
f.write( str(ee) + "\n" )
f.write( MOL.save_string_xyz() )
f.close()
--------------------------------------------------------------------------

    Molecular point group: c1
  Charge       = 0
  Multiplicity = 1
  Basis Set: CC-PVTZ
  Basis Set:
  @DF-RHF Final Energy:  -418.43419904659157
    Total Energy =                       -418.4341990465916297
    Molecular point group: c1
  Basis Set: CC-PVTZ
  Basis Set:
  Basis Set: CC-PVTZ
  Basis Set:
  @DF-RHF Final Energy:  -418.43307949048966
    Total Energy =                       -418.4330794904893764
  Basis Set: CC-PVTZ
  Basis Set:
  Basis Set: CC-PVTZ
  Basis Set:
  @DF-RHF Final Energy:  -418.43443012581344
    Total Energy =                       -418.4344301258136056
  Basis Set: CC-PVTZ
  Basis Set:
  Basis Set: CC-PVTZ
  Basis Set:
  @DF-RHF Final Energy:  -418.43481529878676
    Total Energy =                       -418.4348152987868161
  Basis Set: CC-PVTZ
  Basis Set:
  Basis Set: CC-PVTZ
  Basis Set:
  @DF-RHF Final Energy:  -418.43482035488165
    Total Energy =                       -418.4348203548814809
  Basis Set: CC-PVTZ
  Basis Set:
  Charge       = 0
  Multiplicity = 1
  Basis Set: CC-PVTZ
  Basis Set:

    Orbital Energies (a.u.)
    -----------------------

    Doubly Occupied:

       1A    -20.598097     2A    -20.558140     3A    -11.329609
       4A    -11.313270     5A    -11.253071     6A    -11.249009
       7A    -11.243968     8A    -11.242221     9A    -11.236598
      10A     -1.429617    11A     -1.413297    12A     -1.173589
      13A     -1.053430    14A     -1.027983    15A     -0.903631
      16A     -0.848507    17A     -0.818768    18A     -0.742323
      19A     -0.704444    20A     -0.678290    21A     -0.668487
      22A     -0.636162    23A     -0.615592    24A     -0.609914
      25A     -0.585644    26A     -0.547689    27A     -0.542507
      28A     -0.518368    29A     -0.494043    30A     -0.427262
      31A     -0.359487    32A     -0.329175

  @DF-RHF Final Energy:  -418.43482160411344

   => Energetics <=

    Nuclear Repulsion Energy =            403.0634527784343959
    One-Electron Energy =               -1368.6921610765894002
    Two-Electron Energy =                 547.1938866940416801
    DFT Exchange-Correlation Energy =       0.0000000000000000
    Empirical Dispersion Energy =           0.0000000000000000
    PCM Polarization Energy =               0.0000000000000000
    EFP Energy =                            0.0000000000000000
    Total Energy =                       -418.4348216041133810
    Molecular point group: c1
  Basis Set: CC-PVTZ
  Basis Set:

  -Total Gradient:
     Atom            X                  Y                   Z
    ------   -----------------  -----------------  -----------------
       1       -0.000003988437    -0.000004428287     0.000001157109
       2        0.000008958482    -0.000001914651     0.000011392040
       3       -0.000146415149     0.000056606392    -0.000069990488
       4        0.000017307760    -0.000116571029     0.000120386120
       5        0.000063956063     0.000014789582    -0.000026037829
       6       -0.000003148765     0.000003641322     0.000004532503
       7        0.000105279146     0.000071826233    -0.000108986259
       8        0.000009915766     0.000005965418     0.000007491616
       9        0.000679776243    -0.005169027097    -0.007861006824
      10       -0.000007801202    -0.000004113544     0.000014197038
      11       -0.000517729760     0.003402235957     0.003547858504
      12       -0.000278136822     0.001938140815     0.010380841760
      13       -0.000003346010     0.000000852369     0.000008015145
      14        0.000084003415    -0.000203440156    -0.006025487496
      15       -0.000008630740     0.000005436684    -0.000004362941

  **** Optimization is complete! (in 6 steps) ****
    Final optimized geometry and variables:
    Molecular point group: c1

    Geometry (in Angstrom), charge = 0, multiplicity = 1:

    H            2.549026769871     2.013694032914    -1.297760169035
    O            1.613556012617     1.949336145620    -1.366014139170
    C            1.135013261310     0.963693902160    -0.581847564651
    C            1.949291045618     0.181299720564     0.214639414897
    C           -0.233230727353     0.755160515947    -0.580207650700
    H            3.010672570441     0.350368671863     0.227397961417
    C            1.395744002514    -0.812866630906     1.002551107370
    H           -0.856489666709     1.387366198165    -1.183581485686
    C           -0.770534153362    -0.263394991282     0.180790473951
    H            2.036268279633    -1.405021439142     1.627362393101
    C            0.038065668990    -1.044724859811     0.992055565078
    C           -2.248929730725    -0.453274215354     0.186931772333
    H           -0.396894818005    -1.820012350492     1.589998309497
    O           -2.783923083015    -1.506128818081     0.238096731430
    H           -2.835140029362     0.466054279791     0.090322659380

  Mulliken Charges: (a.u.)
   Center  Symbol    Alpha    Beta     Spin     Total
       1     H     0.38624  0.38624  0.00000  0.22752
       2     O     4.17189  4.17189  0.00000 -0.34378
       3     C     2.84046  2.84046  0.00000  0.31908
       4     C     3.13349  3.13349  0.00000 -0.26698
       5     C     3.13211  3.13211  0.00000 -0.26423
       6     H     0.43183  0.43183  0.00000  0.13633
       7     C     3.05741  3.05741  0.00000 -0.11481
       8     H     0.41910  0.41910  0.00000  0.16180
       9     C     2.94200  2.94200  0.00000  0.11601
      10     H     0.41905  0.41905  0.00000  0.16190
      11     C     3.11124  3.11124  0.00000 -0.22249
      12     C     2.91934  2.91934  0.00000  0.16132
      13     H     0.41331  0.41331  0.00000  0.17338
      14     O     4.16470  4.16470  0.00000 -0.32941
      15     H     0.45783  0.45783  0.00000  0.08435

   Total alpha = 32.00000, Total beta = 32.00000, Total charge =  0.00000

*** Psi4 exiting successfully. Buy a developer a beer!
