  ==> Input File <==

--------------------------------------------------------------------------
set {
	reference rhf
	basis 6-31G*
}

set_num_threads( 4 )
memory 2 gb

molecule MOL {
0 1

H	 2.591676	 2.013956	 0.335017
O	 3.341076	 1.666752	 -0.126416
C	 3.569581	 0.339145	 0.272707
C	 2.539767	 -0.640285	 -0.279495
H	 4.553106	 0.084646	 -0.100901
H	 3.608576	 0.269204	 1.359154
C	 1.109633	 -0.373782	 0.196487
H	 2.575977	 -0.603073	 -1.365161
H	 2.836991	 -1.645833	 0.013589
C	 0.108795	 -1.405514	 -0.331406
H	 0.807178	 0.620365	 -0.120624
H	 1.084268	 -0.376717	 1.286298
C	 -1.324712	 -1.234612	 0.184530
H	 0.105422	 -1.376812	 -1.419529
H	 0.457681	 -2.398536	 -0.055928
C	 -2.031917	 0.038867	 -0.287268
H	 -1.908422	 -2.094667	 -0.137035
H	 -1.320640	 -1.262801	 1.273119
C	 -3.491580	 0.112881	 0.165878
H	 -1.991236	 0.090353	 -1.374376
H	 -1.505629	 0.916931	 0.079238
C	 -4.198006	 1.386127	 -0.298311
H	 -4.029397	 -0.755082	 -0.209463
H	 -3.534866	 0.051797	 1.251364
H	 -4.200327	 1.460280	 -1.382156
H	 -5.230463	 1.408035	 0.036636
H	 -3.705382	 2.272608	 0.091351

	symmetry c1
}
set optking {
	frozen_dihedral = ("
		8 4 3 2
	")
}

ee = optimize('scf')
oeprop('DIPOLE', 'QUADRUPOLE', 'MULLIKEN_CHARGES')
f=open( 'psi4out.xyz', 'w' )
f.write( "27  " )
f.write( str(ee) + "\n" )
f.write( MOL.save_string_xyz() )
f.close()
--------------------------------------------------------------------------

    Molecular point group: c1
  Charge       = 0
  Multiplicity = 1
  Basis Set: 6-31G*
  Basis Set:
  @DF-RHF Final Energy:  -388.28174398663549
    Total Energy =                       -388.2817439866353197
    Molecular point group: c1
  Basis Set: 6-31G*
  Basis Set:
  Charge       = 0
  Multiplicity = 1
  Basis Set: 6-31G*
  Basis Set:

    Orbital Energies (a.u.)
    -----------------------

    Doubly Occupied:

       1A    -20.552267     2A    -11.267106     3A    -11.219763
       4A    -11.217317     5A    -11.216118     6A    -11.215712
       7A    -11.215255     8A    -11.214309     9A    -11.209380
      10A     -1.359079    11A     -1.095225    12A     -1.061534
      13A     -1.011535    14A     -0.948550    15A     -0.888123
      16A     -0.819944    17A     -0.801528    18A     -0.778256
      19A     -0.693866    20A     -0.651629    21A     -0.638063
      22A     -0.614896    23A     -0.600303    24A     -0.583237
      25A     -0.580047    26A     -0.552519    27A     -0.541537
      28A     -0.531315    29A     -0.505318    30A     -0.493528
      31A     -0.485376    32A     -0.474347    33A     -0.469295
      34A     -0.461279    35A     -0.451896    36A     -0.441860
      37A     -0.422889

  @DF-RHF Final Energy:  -388.28174409250818

   => Energetics <=

    Nuclear Repulsion Energy =            459.7417065542760497
    One-Electron Energy =               -1437.4785006348770366
    Two-Electron Energy =                 589.4550499880930374
    DFT Exchange-Correlation Energy =       0.0000000000000000
    Empirical Dispersion Energy =           0.0000000000000000
    PCM Polarization Energy =               0.0000000000000000
    EFP Energy =                            0.0000000000000000
    Total Energy =                       -388.2817440925078927
    Molecular point group: c1
  Basis Set: 6-31G*
  Basis Set:

  -Total Gradient:
     Atom            X                  Y                   Z
    ------   -----------------  -----------------  -----------------
       1        0.000045280660     0.000009086115    -0.000001045010
       2       -0.000189342037    -0.000002438960     0.000321694394
       3        0.000407462783    -0.000163842107    -0.000319651643
       4       -0.000472420116     0.000417088223    -0.000092209798
       5        0.000022994377    -0.000009430422     0.000035294307
       6        0.000003124351     0.000099306899     0.000001388266
       7       -0.000032944320    -0.000066584317     0.000107158634
       8        0.000306181492    -0.000306512155    -0.000026475961
       9       -0.000077812242     0.000079842755    -0.000022540944
      10        0.000003211680    -0.000003566613     0.000016446613
      11       -0.000013224428    -0.000075991894    -0.000050822835
      12       -0.000010503330     0.000035826471     0.000019061244
      13        0.000008143878    -0.000001088551     0.000007584190
      14        0.000011792286     0.000017270837     0.000011459034
      15       -0.000018888470    -0.000027162690    -0.000008537937
      16       -0.000002904161    -0.000004980876    -0.000009400699
      17        0.000004652912    -0.000006038334     0.000004867855
      18        0.000005070388     0.000013028310    -0.000004221756
      19        0.000000243040     0.000000584159     0.000006470508
      20        0.000007927944     0.000009317624    -0.000004052926
      21       -0.000007092920    -0.000008742122     0.000011232537
      22       -0.000001968853    -0.000008164250    -0.000008698268
      23        0.000002239413    -0.000001791251     0.000004112551
      24       -0.000001699536     0.000005418759     0.000001743113
      25        0.000000123768     0.000002207097    -0.000000763563
      26        0.000000289813    -0.000001529360    -0.000002452192
      27        0.000000061613    -0.000001113353     0.000002360286

  **** Optimization is complete! (in 2 steps) ****
    Final optimized geometry and variables:
    Molecular point group: c1

    Geometry (in Angstrom), charge = 0, multiplicity = 1:

    H            2.607833903576     1.982094525231     0.409331849121
    O            3.354085100577     1.635076852949    -0.057250697881
    C            3.573322830930     0.301483489878     0.326494219487
    C            2.537453908979    -0.665432778524    -0.236957627118
    H            4.555857344498     0.044231903833    -0.047746806373
    H            3.609620197450     0.219987483704     1.412241455348
    C            1.109520176013    -0.400742966023     0.246219512883
    H            2.572569035344    -0.617893763156    -1.322292533312
    H            2.831829343494    -1.675347891225     0.043650317259
    C            0.107595523858    -1.433889425779    -0.276848974008
    H            0.804628746613     0.592849974489    -0.069669829357
    H            1.089300726025    -0.403985792830     1.336263703312
    C           -1.324675489479    -1.261847281243     0.242088258305
    H            0.101624336562    -1.407534201267    -1.365025312293
    H            0.457036375766    -2.426348787642    -0.000047801573
    C           -2.034884209977     0.007925710368    -0.235082168930
    H           -1.908094699060    -2.124494901251    -0.072952837971
    H           -1.317618303444    -1.283821882466     1.330803176467
    C           -3.493808917683     0.081892652885     0.220475829245
    H           -1.996287322507     0.053738238414    -1.322520258393
    H           -1.509378671628     0.888783546108     0.125767908038
    C           -4.204140660708     1.349984840020    -0.251750412209
    H           -4.030297349194    -0.790077329016    -0.147402583695
    H           -3.534872604012     0.028740664856     1.306476164741
    H           -4.208528837793     1.416191080345    -1.336089807085
    H           -5.236060836491     1.371788723250     0.084827192717
    H           -3.713017184238     2.240486945647     0.130559799829

  Mulliken Charges: (a.u.)
   Center  Symbol    Alpha    Beta     Spin     Total
       1     H     0.27986  0.27986  0.00000  0.44027
       2     O     4.37091  4.37091  0.00000 -0.74182
       3     C     2.99738  2.99738  0.00000  0.00524
       4     C     3.16077  3.16077  0.00000 -0.32154
       5     H     0.41445  0.41445  0.00000  0.17110
       6     H     0.43208  0.43208  0.00000  0.13585
       7     C     3.16373  3.16373  0.00000 -0.32746
       8     H     0.41511  0.41511  0.00000  0.16978
       9     H     0.42446  0.42446  0.00000  0.15108
      10     C     3.15208  3.15208  0.00000 -0.30417
      11     H     0.42201  0.42201  0.00000  0.15598
      12     H     0.42573  0.42573  0.00000  0.14854
      13     C     3.15356  3.15356  0.00000 -0.30712
      14     H     0.42161  0.42161  0.00000  0.15677
      15     H     0.42151  0.42151  0.00000  0.15698
      16     C     3.15232  3.15232  0.00000 -0.30463
      17     H     0.42122  0.42122  0.00000  0.15756
      18     H     0.42431  0.42431  0.00000  0.15138
      19     C     3.15125  3.15125  0.00000 -0.30249
      20     H     0.42355  0.42355  0.00000  0.15291
      21     H     0.42387  0.42387  0.00000  0.15226
      22     C     3.23916  3.23916  0.00000 -0.47832
      23     H     0.42285  0.42285  0.00000  0.15431
      24     H     0.42333  0.42333  0.00000  0.15335
      25     H     0.42142  0.42142  0.00000  0.15716
      26     H     0.41922  0.41922  0.00000  0.16156
      27     H     0.42226  0.42226  0.00000  0.15547

   Total alpha = 37.00000, Total beta = 37.00000, Total charge = -0.00000
