                              Psi4 1.0.54 Driver

  ==> Input File <==

--------------------------------------------------------------------------
set {
	reference rhf
	basis cc-pvtz
}

set_num_threads( 4 )
memory 2 gb

molecule MOL {
0 1

H	 -1.994877	 0.067677	 -0.725693
C	 -1.135054	 -0.484948	 -0.412897
C	 -1.127913	 -1.865048	 -0.410330
C	 0.000000	 0.179985	 0.000046
H	 -2.000659	 -2.400786	 -0.727842
C	 0.000001	 -2.552036	 -0.000013
N	 0.000000	 1.644631	 0.000076
C	 1.135053	 -0.484965	 0.412963
H	 0.000000	 -3.625035	 -0.000032
C	 1.127914	 -1.865065	 0.410336
O	 1.050559	 2.194174	 -0.000073
O	 -1.050559	 2.194174	 -0.000074
H	 1.994880	 0.067648	 0.725773
H	 2.000659	 -2.400815	 0.727830

	symmetry c1
}
set optking {
	frozen_dihedral = ("
		2 4 7 11
	")
}

ee,wfn = optimize('scf', return_wfn=True)
oeprop( wfn, 'DIPOLE', 'QUADRUPOLE', 'MULLIKEN_CHARGES')
f=open( 'psi4out.xyz', 'w' )
f.write( "14  " )
f.write( str(ee) + "\n" )
f.write( MOL.save_string_xyz() )
f.close()
--------------------------------------------------------------------------

    Molecular point group: c1
  Charge       = 0
  Multiplicity = 1
  Basis Set: CC-PVTZ
  Basis Set:
  @DF-RHF Final Energy:  -434.32936079897291
    Total Energy =                       -434.3293607989733118
    Molecular point group: c1
  Basis Set: CC-PVTZ
  Basis Set:
  Basis Set: CC-PVTZ
  Basis Set:
  @DF-RHF Final Energy:  -434.32351197818906
    Total Energy =                       -434.3235119781893445
  Basis Set: CC-PVTZ
  Basis Set:
  Basis Set: CC-PVTZ
  Basis Set:
  @DF-RHF Final Energy:  -434.32874440008283
    Total Energy =                       -434.3287444000827691
  Basis Set: CC-PVTZ
  Basis Set:
  Basis Set: CC-PVTZ
  Basis Set:
  @DF-RHF Final Energy:  -434.32942316081426
    Total Energy =                       -434.3294231608142582
  Basis Set: CC-PVTZ
  Basis Set:
  Basis Set: CC-PVTZ
  Basis Set:
  @DF-RHF Final Energy:  -434.32942877686077
    Total Energy =                       -434.3294287768608228
  Basis Set: CC-PVTZ
  Basis Set:
  Basis Set: CC-PVTZ
  Basis Set:
  @DF-RHF Final Energy:  -434.32943632514423
    Total Energy =                       -434.3294363251440018
  Basis Set: CC-PVTZ
  Basis Set:
  Charge       = 0
  Multiplicity = 1
  Basis Set: CC-PVTZ
  Basis Set:

    Orbital Energies (a.u.)
    -----------------------

    Doubly Occupied:

       1A    -20.592354     2A    -20.592256     3A    -15.847629
       4A    -11.302804     5A    -11.267448     6A    -11.267369
       7A    -11.264369     8A    -11.258519     9A    -11.258368
      10A     -1.641350    11A     -1.423927    12A     -1.204895
      13A     -1.095996    14A     -1.055362    15A     -0.959504
      16A     -0.868102    17A     -0.829138    18A     -0.788892
      19A     -0.740625    20A     -0.735391    21A     -0.712439
      22A     -0.658971    23A     -0.651877    24A     -0.626432
      25A     -0.556153    26A     -0.542159    27A     -0.531659
      28A     -0.493304    29A     -0.491325    30A     -0.457286
      31A     -0.377011    32A     -0.369548

  @DF-RHF Final Energy:  -434.32943653398479

   => Energetics <=

    Nuclear Repulsion Energy =            418.2208501914863064
    One-Electron Energy =               -1420.1756469887852745
    Two-Electron Energy =                 567.6253602633140645
    DFT Exchange-Correlation Energy =       0.0000000000000000
    Empirical Dispersion Energy =           0.0000000000000000
    PCM Polarization Energy =               0.0000000000000000
    EFP Energy =                            0.0000000000000000
    Total Energy =                       -434.3294365339849037
    Molecular point group: c1
  Basis Set: CC-PVTZ
  Basis Set:

  -Total Gradient:
     Atom            X                  Y                   Z
    ------   -----------------  -----------------  -----------------
       1        0.000005687271    -0.000004930557     0.000001320029
       2        0.000626622987    -0.000053710216    -0.001665222158
       3       -0.000009359863     0.000009417727     0.000009560295
       4       -0.000852097024     0.000060253873     0.001612343709
       5       -0.000000496338     0.000001910743     0.000002605171
       6        0.000005741656     0.000001662316     0.000009065553
       7        0.000199864787     0.000158612520     0.002075178732
       8       -0.000014778915     0.000018052680     0.000001507539
       9        0.000001099990     0.000000267901    -0.000002082276
      10        0.000004194715    -0.000002075976    -0.000009836708
      11        0.000111204892    -0.000179185259    -0.002027449440
      12       -0.000084416604    -0.000020724257    -0.000010723231
      13        0.000005763209     0.000007338947     0.000003647194
      14        0.000000969238     0.000003109563     0.000000085592

  **** Optimization is complete! (in 7 steps) ****
    Final optimized geometry and variables:
    Molecular point group: c1

    Geometry (in Angstrom), charge = 0, multiplicity = 1:

    H           -1.988959377076     0.070449504589    -0.739423945571
    C           -1.134799826268    -0.482977674399    -0.411568289506
    C           -1.131215175576    -1.863182355002    -0.398599006313
    C           -0.003667120452     0.180313109682     0.011891969186
    H           -1.998487396954    -2.399429363235    -0.729927940091
    C           -0.013924273313    -2.549515432948     0.040582379325
    N            0.009546277693     1.642897297644    -0.025322147154
    C            1.126249058909    -0.482642802444     0.439451218953
    H           -0.018445145652    -3.622371451611     0.053196911188
    C            1.110253821110    -1.862475161749     0.461204652903
    O            1.065986309954     2.181212866683    -0.013931581253
    O           -1.036280104344     2.199149379490    -0.079421329832
    H            1.988047928166     0.070972788533     0.746423609045
    H            1.974599115713    -2.398210026523     0.800909540270

  Mulliken Charges: (a.u.)
   Center  Symbol    Alpha    Beta     Spin     Total
       1     H     0.40082  0.40082  0.00000  0.19836
       2     C     3.07958  3.07958  0.00000 -0.15915
       3     C     3.07198  3.07198  0.00000 -0.14396
       4     C     2.97018  2.97018  0.00000  0.05964
       5     H     0.41695  0.41695  0.00000  0.16610
       6     C     3.06528  3.06528  0.00000 -0.13056
       7     N     3.25845  3.25845  0.00000  0.48309
       8     C     3.07876  3.07876  0.00000 -0.15751
       9     H     0.41714  0.41714  0.00000  0.16572
      10     C     3.07187  3.07187  0.00000 -0.14373
      11     O     4.17518  4.17518  0.00000 -0.35035
      12     O     4.17562  4.17562  0.00000 -0.35125
      13     H     0.40122  0.40122  0.00000  0.19757
      14     H     0.41698  0.41698  0.00000  0.16604

   Total alpha = 32.00000, Total beta = 32.00000, Total charge =  0.00000

*** Psi4 exiting successfully. Buy a developer a beer!
