  ==> Input File <==

--------------------------------------------------------------------------
set {
	reference rhf
	basis cc-pvtz
}

set_num_threads( 4 )
memory 2 gb

molecule MOL {
0 1

H	 1.131676	 -0.441495	 0.588373
C	 0.848385	 0.440008	 0.000011
C	 -0.623497	 0.751021	 0.000090
O	 1.674365	 1.063329	 -0.571366
C	 -1.523725	 -0.474323	 -0.000013
H	 -0.813143	 1.382932	 -0.864897
H	 -0.813071	 1.382716	 0.865253
H	 -1.342980	 -1.087348	 -0.873016
H	 -2.565269	 -0.177464	 0.000070
H	 -1.342898	 -1.087564	 0.872820

	symmetry c1
}
set optking {
	frozen_dihedral = ("
		4 2 3 6
	")
}

ee = optimize('scf')
oeprop('DIPOLE', 'QUADRUPOLE', 'MULLIKEN_CHARGES')
f=open( 'psi4out.xyz', 'w' )
f.write( "10  " )
f.write( str(ee) + "\n" )
f.write( MOL.save_string_xyz() )
f.close()
--------------------------------------------------------------------------

    Molecular point group: c1
  Charge       = 0
  Multiplicity = 1
  Basis Set: CC-PVTZ
  Basis Set:
  @DF-RHF Final Energy:  -192.02256693990859
    Total Energy =                       -192.0225669399085859
    Molecular point group: c1
  Basis Set: CC-PVTZ
  Basis Set:
  Basis Set: CC-PVTZ
  Basis Set:
  @DF-RHF Final Energy:  -192.02249280865780
    Total Energy =                       -192.0224928086577449
  Basis Set: CC-PVTZ
  Basis Set:
  Basis Set: CC-PVTZ
  Basis Set:
  @DF-RHF Final Energy:  -192.02235740957207
    Total Energy =                       -192.0223574095720664
  Basis Set: CC-PVTZ
  Basis Set:
  Basis Set: CC-PVTZ
  Basis Set:
  @DF-RHF Final Energy:  -192.02299029429830
    Total Energy =                       -192.0229902942984097
  Basis Set: CC-PVTZ
  Basis Set:
  Charge       = 0
  Multiplicity = 1
  Basis Set: CC-PVTZ
  Basis Set:

    Orbital Energies (a.u.)
    -----------------------

    Doubly Occupied:

       1A    -20.553205     2A    -11.323167     3A    -11.238440
       4A    -11.231450     5A     -1.408502     6A     -1.068334
       7A     -0.904189     8A     -0.796777     9A     -0.671250
      10A     -0.643951    11A     -0.627260    12A     -0.561996
      13A     -0.546079    14A     -0.521211    15A     -0.496316
      16A     -0.415139

  @DF-RHF Final Energy:  -192.02299318091360

   => Energetics <=

    Nuclear Repulsion Energy =            117.3193410640396905
    One-Electron Energy =                -492.6701378019320146
    Two-Electron Energy =                 183.3278035569786084
    DFT Exchange-Correlation Energy =       0.0000000000000000
    Empirical Dispersion Energy =           0.0000000000000000
    PCM Polarization Energy =               0.0000000000000000
    EFP Energy =                            0.0000000000000000
    Total Energy =                       -192.0229931809137156
    Molecular point group: c1
  Basis Set: CC-PVTZ
  Basis Set:

  -Total Gradient:
     Atom            X                  Y                   Z
    ------   -----------------  -----------------  -----------------
       1       -0.000029557977    -0.000007745740    -0.000009671158
       2       -0.000238114618    -0.001060010516    -0.001179091915
       3        0.000209711916     0.000997535717     0.000904246989
       4        0.000103975657     0.000675175123     0.000755753294
       5        0.000085585730     0.000152069129    -0.000023535796
       6       -0.000140599582    -0.000788566424    -0.000504802456
       7        0.000035638688     0.000046728757     0.000048956475
       8       -0.000014820648    -0.000019960500    -0.000005501915
       9       -0.000017332341    -0.000001423470     0.000003624064
      10        0.000005513176     0.000006197924     0.000010022415

  **** Optimization is complete! (in 5 steps) ****
    Final optimized geometry and variables:
    Molecular point group: c1

    Geometry (in Angstrom), charge = 0, multiplicity = 1:

    H            1.029029051751    -0.868548920307     0.770687693354
    C            0.750043478546    -0.004964283194     0.152363800134
    C           -0.718777216608     0.329856016107     0.136024144857
    O            1.582550603763     0.605530509896    -0.422806998842
    C           -1.610281718822    -0.908900800686     0.147618066992
    H           -0.913377841931     0.952287412358    -0.726972328710
    H           -0.909708319249     0.929675927648     1.022932609937
    H           -1.452234303783    -1.515092530944    -0.737116321687
    H           -2.654655687945    -0.626533590231     0.173476946935
    H           -1.414212875224    -1.528300993521     1.015796405531

  Mulliken Charges: (a.u.)
   Center  Symbol    Alpha    Beta     Spin     Total
       1     H     0.46655  0.46655  0.00000  0.06690
       2     C     2.90124  2.90124  0.00000  0.19753
       3     C     3.08134  3.08134  0.00000 -0.16267
       4     O     4.16357  4.16357  0.00000 -0.32715
       5     C     3.15225  3.15225  0.00000 -0.30451
       6     H     0.44049  0.44049  0.00000  0.11901
       7     H     0.44769  0.44769  0.00000  0.10461
       8     H     0.44906  0.44906  0.00000  0.10189
       9     H     0.44410  0.44410  0.00000  0.11180
      10     H     0.45371  0.45371  0.00000  0.09259

   Total alpha = 16.00000, Total beta = 16.00000, Total charge =  0.00000
