  ==> Input File <==

--------------------------------------------------------------------------
set {
	reference rhf
	basis 6-31G*
}

set_num_threads( 1 )
memory 2 gb

molecule MOL {
0 1

O	 2.862325	 1.357334	 0.000267
C	 2.843464	 0.164689	 -0.000222
C	 1.546494	 -0.624492	 -0.000609
C	 4.124123	 -0.644674	 -0.000428
C	 0.291004	 0.242674	 0.000989
H	 1.557904	 -1.283758	 -0.867573
H	 1.558622	 -1.285963	 0.864672
C	 -0.994322	 -0.586602	 0.000262
H	 0.309117	 0.896430	 -0.865270
H	 0.309661	 0.894078	 0.869017
C	 -2.259874	 0.272531	 0.000494
H	 -1.004862	 -1.240012	 -0.870939
H	 -1.005220	 -1.241071	 0.870675
C	 -3.413265	 -0.348856	 0.790165
H	 -2.578561	 0.443306	 -1.026294
H	 -2.028771	 1.252754	 0.413713
C	 -4.673944	 0.515060	 0.785567
H	 -3.645978	 -1.328238	 0.377274
H	 -3.096399	 -0.518645	 1.817115
H	 -5.035742	 0.675087	 -0.226185
H	 -5.473420	 0.048100	 1.352566
H	 -4.482589	 1.489999	 1.224909
H	 4.165367	 -1.288615	 -0.874074
H	 4.976217	 0.020734	 -0.001915
H	 4.166763	 -1.286207	 0.874930

	symmetry c1
}
set optking {
	frozen_dihedral = ("
		9 5 8 12,
		15 11 14 18,
		1 2 3 6,
		9 5 3 6
	")
}

ee = energy('scf')
oeprop('DIPOLE', 'QUADRUPOLE', 'MULLIKEN_CHARGES')
f=open( 'psi4out.xyz', 'w' )
f.write( "25  " )
f.write( str(ee) + "\n" )
f.write( MOL.save_string_xyz() )
f.close()
--------------------------------------------------------------------------

    Molecular point group: c1

    Geometry (in Angstrom), charge = 0, multiplicity = 1:

       Center              X                  Y                   Z               Mass
    ------------   -----------------  -----------------  -----------------  -----------------
           O          2.831491212701     1.311962352078    -0.178333218271    15.994914619560
           C          2.812630212701     0.119317352078    -0.178822218271    12.000000000000
           C          1.515660212701    -0.669863647922    -0.179209218271    12.000000000000
           C          4.093289212701    -0.690045647922    -0.179028218271    12.000000000000
           C          0.260170212701     0.197302352078    -0.177611218271    12.000000000000
           H          1.527070212701    -1.329129647922    -1.046173218271     1.007825032070
           H          1.527788212701    -1.331334647922     0.686071781729     1.007825032070
           C         -1.025155787299    -0.631973647922    -0.178338218271    12.000000000000
           H          0.278283212701     0.851058352078    -1.043870218271     1.007825032070
           H          0.278827212701     0.848706352078     0.690416781729     1.007825032070
           C         -2.290707787299     0.227159352078    -0.178106218271    12.000000000000
           H         -1.035695787299    -1.285383647922    -1.049539218271     1.007825032070
           H         -1.036053787299    -1.286442647922     0.692074781729     1.007825032070
           C         -3.444098787299    -0.394227647922     0.611564781729    12.000000000000
           H         -2.609394787299     0.397934352078    -1.204894218271     1.007825032070
           H         -2.059604787299     1.207382352078     0.235112781729     1.007825032070
           C         -4.704777787299     0.469688352078     0.606966781729    12.000000000000
           H         -3.676811787299    -1.373609647922     0.198673781729     1.007825032070
           H         -3.127232787299    -0.564016647922     1.638514781729     1.007825032070
           H         -5.066575787299     0.629715352078    -0.404785218271     1.007825032070
           H         -5.504253787299     0.002728352078     1.173965781729     1.007825032070
           H         -4.513422787299     1.444627352078     1.046308781729     1.007825032070
           H          4.134533212701    -1.333986647922    -1.052674218271     1.007825032070
           H          4.945383212701    -0.024637647922    -0.180515218271     1.007825032070
           H          4.135929212701    -1.331578647922     0.696329781729     1.007825032070

  Charge       = 0
  Multiplicity = 1
  Basis Set: 6-31G*
  Basis Set:

    Orbital Energies (a.u.)
    -----------------------

    Doubly Occupied:

       1A    -20.550441     2A    -11.326274     3A    -11.231622
       4A    -11.228318     5A    -11.217099     6A    -11.215745
       7A    -11.215514     8A    -11.212510     9A    -11.207930
      10A     -1.395747    11A     -1.093650    12A     -1.056102
      13A     -1.014340    14A     -0.969096    15A     -0.890369
      16A     -0.815328    17A     -0.790413    18A     -0.730030
      19A     -0.658699    20A     -0.651889    21A     -0.633001
      22A     -0.622634    23A     -0.598084    24A     -0.583238
      25A     -0.566220    26A     -0.561832    27A     -0.538946
      28A     -0.528862    29A     -0.510246    30A     -0.489042
      31A     -0.487595    32A     -0.476574    33A     -0.464081
      34A     -0.457959    35A     -0.449369    36A     -0.399328

  @DF-RHF Final Energy:  -387.13315706668641

   => Energetics <=

    Nuclear Repulsion Energy =            439.1146687201267014
    One-Electron Energy =               -1394.8193876103305229
    Two-Electron Energy =                 568.5715618235194597
    DFT Exchange-Correlation Energy =       0.0000000000000000
    Empirical Dispersion Energy =           0.0000000000000000
    PCM Polarization Energy =               0.0000000000000000
    EFP Energy =                            0.0000000000000000
    Total Energy =                       -387.1331570666843618

  Mulliken Charges: (a.u.)
   Center  Symbol    Alpha    Beta     Spin     Total
       1     O     4.26124  4.26124  0.00000 -0.52249
       2     C     2.73570  2.73570  0.00000  0.52861
       3     C     3.21117  3.21117  0.00000 -0.42233
       4     C     3.28665  3.28665  0.00000 -0.57329
       5     C     3.14987  3.14987  0.00000 -0.29975
       6     H     0.41002  0.41002  0.00000  0.17995
       7     H     0.40996  0.40996  0.00000  0.18008
       8     C     3.15517  3.15517  0.00000 -0.31033
       9     H     0.41177  0.41177  0.00000  0.17646
      10     H     0.41197  0.41197  0.00000  0.17606
      11     C     3.15240  3.15240  0.00000 -0.30481
      12     H     0.42312  0.42312  0.00000  0.15377
      13     H     0.42371  0.42371  0.00000  0.15258
      14     C     3.15307  3.15307  0.00000 -0.30614
      15     H     0.42161  0.42161  0.00000  0.15679
      16     H     0.42009  0.42009  0.00000  0.15981
      17     C     3.23980  3.23980  0.00000 -0.47960
      18     H     0.42337  0.42337  0.00000  0.15325
      19     H     0.42308  0.42308  0.00000  0.15384
      20     H     0.42169  0.42169  0.00000  0.15662
      21     H     0.41962  0.41962  0.00000  0.16076
      22     H     0.42099  0.42099  0.00000  0.15802
      23     H     0.40874  0.40874  0.00000  0.18252
      24     H     0.39649  0.39649  0.00000  0.20703
      25     H     0.40870  0.40870  0.00000  0.18259

   Total alpha = 36.00000, Total beta = 36.00000, Total charge =  0.00000
