  ==> Input File <==

--------------------------------------------------------------------------
set {
	reference rhf
	basis 6-31G*
}

set_num_threads( 4 )
memory 2 gb

molecule MOL {
0 1

H	 -1.836216	 1.387520	 -0.000064
C	 -1.301823	 0.443321	 -0.000031
O	 -0.003969	 0.658512	 0.000451
O	 -1.829879	 -0.616434	 -0.000857
C	 0.850537	 -0.484732	 0.000380
C	 -0.020607	 -1.702652	 0.219697
H	 1.585997	 -0.370246	 0.784797
H	 1.373546	 -0.529529	 -0.945003
H	 -0.542732	 -1.636740	 1.167365
H	 0.592939	 -2.597494	 0.226893
H	 -0.756279	 -1.796935	 -0.570737

	symmetry c1
}
set optking {
	frozen_dihedral = ("
		7 5 3 2
	")
}

ee = optimize('scf')
oeprop('DIPOLE', 'QUADRUPOLE', 'MULLIKEN_CHARGES')
f=open( 'psi4out.xyz', 'w' )
f.write( "11  " )
f.write( str(ee) + "\n" )
f.write( MOL.save_string_xyz() )
f.close()
--------------------------------------------------------------------------

    Molecular point group: c1
  Charge       = 0
  Multiplicity = 1
  Basis Set: 6-31G*
  Basis Set:
  @DF-RHF Final Energy:  -266.75838063978625
    Total Energy =                       -266.7583806397863100
    Molecular point group: c1
  Basis Set: 6-31G*
  Basis Set:
  Basis Set: 6-31G*
  Basis Set:
  @DF-RHF Final Energy:  -266.80096936624483
    Total Energy =                       -266.8009693662447148
  Basis Set: 6-31G*
  Basis Set:
  Basis Set: 6-31G*
  Basis Set:
  @DF-RHF Final Energy:  -266.80533583581825
    Total Energy =                       -266.8053358358184823
  Basis Set: 6-31G*
  Basis Set:
  Basis Set: 6-31G*
  Basis Set:
  @DF-RHF Final Energy:  -266.81155869838938
    Total Energy =                       -266.8115586983893763
  Basis Set: 6-31G*
  Basis Set:
  @DF-RHF Final Energy:  -266.81646319761313
    Total Energy =                       -266.8164631976129613
  @DF-RHF Final Energy:  -266.81733207390585
    Total Energy =                       -266.8173320739056180
  @DF-RHF Final Energy:  -266.81755887907627
    Total Energy =                       -266.8175588790761594
  Basis Set: 6-31G*
  Basis Set:
  @DF-RHF Final Energy:  -266.81761107491349
    Total Energy =                       -266.8176110749133727
  Basis Set: 6-31G*
  Basis Set:
  Basis Set: 6-31G*
  Basis Set:
  @DF-RHF Final Energy:  -266.81762081561885
    Total Energy =                       -266.8176208156186249
  Basis Set: 6-31G*
  Basis Set:
  Basis Set: 6-31G*
  Basis Set:
  @DF-RHF Final Energy:  -266.81762192827978
    Total Energy =                       -266.8176219282797774
  Basis Set: 6-31G*
  Basis Set:
  Charge       = 0
  Multiplicity = 1
  Basis Set: 6-31G*
  Basis Set:

    Orbital Energies (a.u.)
    -----------------------

    Doubly Occupied:

       1A    -20.609771     2A    -20.551900     3A    -11.379119
       4A    -11.298140     5A    -11.220963     6A     -1.467690
       7A     -1.372858     8A     -1.050292     9A     -0.919221
      10A     -0.795731    11A     -0.716138    12A     -0.686244
      13A     -0.672490    14A     -0.604639    15A     -0.585639
      16A     -0.546484    17A     -0.528921    18A     -0.502870
      19A     -0.448583    20A     -0.444281

  @DF-RHF Final Energy:  -266.81762200850056

   => Energetics <=

    Nuclear Repulsion Energy =            182.1132890467251855
    One-Electron Energy =                -725.0578711036243931
    Two-Electron Energy =                 276.1269600483985869
    DFT Exchange-Correlation Energy =       0.0000000000000000
    Empirical Dispersion Energy =           0.0000000000000000
    PCM Polarization Energy =               0.0000000000000000
    EFP Energy =                            0.0000000000000000
    Total Energy =                       -266.8176220085006207
    Molecular point group: c1
  Basis Set: 6-31G*
  Basis Set:

  -Total Gradient:
     Atom            X                  Y                   Z
    ------   -----------------  -----------------  -----------------
       1       -0.000000923796    -0.000000281242    -0.000003928420
       2        0.000009112352     0.000009261264     0.001704876438
       3       -0.000176329404    -0.000200433159    -0.002407117412
       4        0.000001051358     0.000021983965    -0.000004947928
       5        0.001249228749     0.000869827347    -0.000409207270
       6       -0.000018766924    -0.000007627875    -0.000006065378
       7       -0.001059364602    -0.000693647987     0.001123541364
       8       -0.000002666563     0.000010962045    -0.000000052224
       9        0.000002759494    -0.000004731318    -0.000004086901
      10        0.000001445281     0.000005763496     0.000003639793
      11       -0.000005545941    -0.000011076539     0.000003347936

  **** Optimization is complete! (in 11 steps) ****
    Final optimized geometry and variables:
    Molecular point group: c1

    Geometry (in Angstrom), charge = 0, multiplicity = 1:

    H           -1.154265102917     1.984178244253    -0.013802085372
    C           -0.835694737692     0.946632325946    -0.043163984607
    O            0.477902430505     0.914365976096    -0.057494712048
    O           -1.593784527925     0.038184814360    -0.065739345112
    C            1.308158063196    -0.254873704644    -0.036568849262
    C            0.657004246920    -1.609266883309     0.198326388522
    H            2.019110942843    -0.058189985798     0.753723216689
    H            1.838751283185    -0.249546560984    -0.978957215850
    H            0.112388423293    -1.640928139776     1.132044060587
    H            1.461467438528    -2.338262426982     0.247968184760
    H           -0.015971211834    -1.890309732740    -0.597235383171

  Mulliken Charges: (a.u.)
   Center  Symbol    Alpha    Beta     Spin     Total
       1     H     0.41399  0.41399  0.00000  0.17202
       2     C     2.72624  2.72624  0.00000  0.54752
       3     O     4.30160  4.30160  0.00000 -0.60320
       4     O     4.26277  4.26277  0.00000 -0.52554
       5     C     2.99345  2.99345  0.00000  0.01310
       6     C     3.25422  3.25422  0.00000 -0.50843
       7     H     0.41015  0.41015  0.00000  0.17970
       8     H     0.41085  0.41085  0.00000  0.17829
       9     H     0.40653  0.40653  0.00000  0.18693
      10     H     0.42047  0.42047  0.00000  0.15906
      11     H     0.39973  0.39973  0.00000  0.20054

   Total alpha = 20.00000, Total beta = 20.00000, Total charge = -0.00000
