  ==> Input File <==

--------------------------------------------------------------------------
set {
	reference rhf
	basis cc-pvtz
}

set_num_threads( 4 )
memory 2 gb

molecule MOL {
0 1

H	 1.709000	 -2.951000	 -0.140000
C	 1.453000	 -1.946000	 -0.464000
C	 0.408000	 -1.338000	 0.466000
H	 1.067000	 -1.998000	 -1.476000
H	 2.370000	 -1.367000	 -0.487000
N	 -0.000000	 -0.000000	 0.058000
H	 -0.464000	 -1.979000	 0.456000
H	 0.775000	 -1.341000	 1.497000
C	 -1.363000	 0.315000	 0.466000
C	 0.954000	 1.023000	 0.466000
C	 -2.412000	 -0.285000	 -0.464000
H	 -1.482000	 1.391000	 0.456000
H	 -1.549000	 -0.001000	 1.497000
C	 0.959000	 2.232000	 -0.464000
H	 1.946000	 0.588000	 0.456000
H	 0.774000	 1.342000	 1.497000
H	 -2.263000	 0.075000	 -1.476000
H	 -2.369000	 -1.369000	 -0.487000
H	 -3.410000	 -0.005000	 -0.140000
H	 1.197000	 1.922000	 -1.476000
H	 -0.001000	 2.736000	 -0.487000
H	 1.701000	 2.956000	 -0.140000

	symmetry c1
}
ee = optimize('scf')
oeprop('DIPOLE', 'QUADRUPOLE', 'MULLIKEN_CHARGES')
f=open( 'psi4out.xyz', 'w' )
f.write( "22  " )
f.write( str(ee) + "\n" )
f.write( MOL.save_string_xyz() )
f.close()
--------------------------------------------------------------------------

    Molecular point group: c1
  Charge       = 0
  Multiplicity = 1
  Basis Set: CC-PVTZ
  Basis Set:
  @DF-RHF Final Energy:  -290.47661118653298
    Total Energy =                       -290.4766111865330345
    Molecular point group: c1
  Basis Set: CC-PVTZ
  Basis Set:
  Basis Set: CC-PVTZ
  Basis Set:
  @DF-RHF Final Energy:  -290.47668973785852
    Total Energy =                       -290.4766897378586918
  Basis Set: CC-PVTZ
  Basis Set:
  Basis Set: CC-PVTZ
  Basis Set:
  @DF-RHF Final Energy:  -290.47669497361125
    Total Energy =                       -290.4766949736116430
  Basis Set: CC-PVTZ
  Basis Set:
  Charge       = 0
  Multiplicity = 1
  Basis Set: CC-PVTZ
  Basis Set:

    Orbital Energies (a.u.)
    -----------------------

    Doubly Occupied:

       1A    -15.533108     2A    -11.238722     3A    -11.238719
       4A    -11.238697     5A    -11.203741     6A    -11.203737
       7A    -11.203733     8A     -1.226274     9A     -1.024658
      10A     -1.024633    11A     -0.956948    12A     -0.846942
      13A     -0.846921    14A     -0.772839    15A     -0.647005
      16A     -0.646955    17A     -0.621842    18A     -0.592264
      19A     -0.592230    20A     -0.550802    21A     -0.533105
      22A     -0.519230    23A     -0.519203    24A     -0.494094
      25A     -0.494073    26A     -0.491270    27A     -0.462087
      28A     -0.462074    29A     -0.343938

  @DF-RHF Final Energy:  -290.47669541276179

   => Energetics <=

    Nuclear Repulsion Energy =            337.8302391837266327
    One-Electron Energy =               -1061.5541838998638013
    Two-Electron Energy =                 433.2472493033757246
    DFT Exchange-Correlation Energy =       0.0000000000000000
    Empirical Dispersion Energy =           0.0000000000000000
    PCM Polarization Energy =               0.0000000000000000
    EFP Energy =                            0.0000000000000000
    Total Energy =                       -290.4766954127613872
    Molecular point group: c1
  Basis Set: CC-PVTZ
  Basis Set:

  -Total Gradient:
     Atom            X                  Y                   Z
    ------   -----------------  -----------------  -----------------
       1       -0.000011681295     0.000019306239    -0.000009005835
       2        0.000001284518    -0.000012021980    -0.000004210032
       3        0.000049493419    -0.000035244437     0.000009201886
       4        0.000013207817    -0.000005393256     0.000001768300
       5       -0.000010706981    -0.000012946987    -0.000006475193
       6       -0.000020972393    -0.000002982612     0.000001983126
       7       -0.000018848254     0.000012610793    -0.000002026774
       8       -0.000012461203    -0.000008735324     0.000008151501
       9       -0.000047448329     0.000000358203    -0.000003511708
      10        0.000074092037     0.000030502850    -0.000012805142
      11        0.000006876750    -0.000018908774     0.000002498005
      12        0.000020817789     0.000021634471     0.000002314272
      13        0.000003178787     0.000008391303    -0.000005775995
      14       -0.000016609971    -0.000006261544     0.000010782894
      15       -0.000015683039     0.000011750750     0.000019205836
      16        0.000000647290    -0.000003790299    -0.000013789069
      17       -0.000010384250    -0.000004776509     0.000005202836
      18        0.000007300457     0.000006479385    -0.000002361675
      19        0.000013667092     0.000004604533    -0.000005385360
      20       -0.000000979509     0.000009822409     0.000010572250
      21       -0.000017808429    -0.000002973357    -0.000004557502
      22       -0.000006982304    -0.000011425857    -0.000001776620

  **** Optimization is complete! (in 4 steps) ****
    Final optimized geometry and variables:
    Molecular point group: c1

    Geometry (in Angstrom), charge = 0, multiplicity = 1:

    H            1.709755744034    -2.949419813148    -0.121086799580
    C            1.456161643070    -1.950713497595    -0.460291475944
    C            0.406568026934    -1.334978050042     0.454982370041
    H            1.078197850652    -2.016952351244    -1.473048484876
    H            2.370894900937    -1.371534902391    -0.483742570824
    N            0.000296910213     0.000044712999     0.046089885814
    H           -0.464478817405    -1.975495414558     0.443505557613
    H            0.767931968783    -1.334693326135     1.487138525506
    C           -1.359159299325     0.315705690890     0.454403548856
    C            0.953121819406     1.019675611218     0.454747944431
    C           -2.416729155763    -0.286720294317    -0.460524949013
    H           -1.478729170299     1.390261204567     0.442008135489
    H           -1.539691502203     0.003361223667     1.486761012919
    C            0.959851433705     2.236994048059    -0.459871887608
    H            1.943643592714     0.586344515646     0.442499498624
    H            0.772553953055     1.331964280335     1.487115664393
    H           -2.285276040879     0.073129466458    -1.473515224232
    H           -2.371743145927    -1.368475706621    -0.483208748638
    H           -3.408657583470    -0.007405212689    -0.121593235065
    H            1.206448239182     1.943644414111    -1.472810278110
    H            0.000192348302     2.738292559393    -0.482918414237
    H            1.697041385443     2.956792305996    -0.120382665293

  Mulliken Charges: (a.u.)
   Center  Symbol    Alpha    Beta     Spin     Total
       1     H     0.45320  0.45320  0.00000  0.09360
       2     C     3.14105  3.14105  0.00000 -0.28210
       3     C     3.04472  3.04472  0.00000 -0.08943
       4     H     0.45169  0.45169  0.00000  0.09663
       5     H     0.45626  0.45626  0.00000  0.08748
       6     N     3.62378  3.62378  0.00000 -0.24756
       7     H     0.44920  0.44920  0.00000  0.10160
       8     H     0.46262  0.46262  0.00000  0.07475
       9     C     3.04469  3.04469  0.00000 -0.08939
      10     C     3.04467  3.04467  0.00000 -0.08934
      11     C     3.14108  3.14108  0.00000 -0.28215
      12     H     0.44919  0.44919  0.00000  0.10162
      13     H     0.46264  0.46264  0.00000  0.07471
      14     C     3.14107  3.14107  0.00000 -0.28214
      15     H     0.44918  0.44918  0.00000  0.10163
      16     H     0.46266  0.46266  0.00000  0.07468
      17     H     0.45169  0.45169  0.00000  0.09663
      18     H     0.45626  0.45626  0.00000  0.08748
      19     H     0.45319  0.45319  0.00000  0.09361
      20     H     0.45169  0.45169  0.00000  0.09662
      21     H     0.45627  0.45627  0.00000  0.08746
      22     H     0.45320  0.45320  0.00000  0.09360

   Total alpha = 29.00000, Total beta = 29.00000, Total charge = -0.00000
