  ==> Input File <==

--------------------------------------------------------------------------
set {
	reference rhf
	basis 6-31G*
}

set_num_threads( 1 )
memory 2 gb

molecule MOL {
0 1

H	 2.591676	 2.013956	 0.335017
O	 3.341076	 1.666752	 -0.126416
C	 3.569581	 0.339145	 0.272707
C	 4.944370	 0.127299	 0.897051
H	 2.799532	 0.113554	 0.999211
H	 3.430502	 -0.340569	 -0.567189
C	 6.109364	 0.374704	 -0.064431
H	 5.036621	 0.783413	 1.758660
H	 4.993720	 -0.894517	 1.269641
C	 7.473065	 0.101400	 0.576227
H	 6.072027	 1.402847	 -0.413564
H	 5.994231	 -0.259513	 -0.943553
C	 8.670436	 0.251619	 -0.369329
H	 7.605276	 0.761116	 1.431880
H	 7.472416	 -0.911833	 0.972532
C	 8.926561	 1.678120	 -0.863264
H	 9.560428	 -0.101249	 0.147599
H	 8.537336	 -0.408125	 -1.225401
C	 10.190996	 1.795321	 -1.717024
H	 9.009732	 2.345216	 -0.006424
H	 8.077407	 2.031511	 -1.443226
C	 10.445510	 3.217017	 -2.216692
H	 11.048305	 1.457542	 -1.138739
H	 10.113892	 1.122268	 -2.568457
H	 10.559855	 3.909445	 -1.387420
H	 11.348976	 3.267733	 -2.816535
H	 9.621476	 3.570911	 -2.829955

	symmetry c1
}
set optking {
	frozen_dihedral = ("
		14 10 7 4,
		14 10 13 16,
		10 7 4 8,
		8 4 3 2,
		10 13 16 20,
		20 16 19 22
	")
}

ee = energy('scf')
oeprop('DIPOLE', 'QUADRUPOLE', 'MULLIKEN_CHARGES')
f=open( 'psi4out.xyz', 'w' )
f.write( "27  " )
f.write( str(ee) + "\n" )
f.write( MOL.save_string_xyz() )
f.close()
--------------------------------------------------------------------------

    Molecular point group: c1

    Geometry (in Angstrom), charge = 0, multiplicity = 1:

       Center              X                  Y                   Z               Mass
    ------------   -----------------  -----------------  -----------------  -----------------
           H         -4.418847138574     0.928211463479     0.737142650586     1.007825032070
           O         -3.669447138574     0.581007463479     0.275709650586    15.994914619560
           C         -3.440942138574    -0.746599536521     0.674832650586    12.000000000000
           C         -2.066153138574    -0.958445536521     1.299176650586    12.000000000000
           H         -4.210991138574    -0.972190536521     1.401336650586     1.007825032070
           H         -3.580021138574    -1.426313536521    -0.165063349414     1.007825032070
           C         -0.901159138574    -0.711040536521     0.337694650586    12.000000000000
           H         -1.973902138574    -0.302331536521     2.160785650586     1.007825032070
           H         -2.016803138574    -1.980261536521     1.671766650586     1.007825032070
           C          0.462541861426    -0.984344536521     0.978352650586    12.000000000000
           H         -0.938496138574     0.317102463479    -0.011438349414     1.007825032070
           H         -1.016292138574    -1.345257536521    -0.541427349414     1.007825032070
           C          1.659912861426    -0.834125536521     0.032796650586    12.000000000000
           H          0.594752861426    -0.324628536521     1.834005650586     1.007825032070
           H          0.461892861426    -1.997577536521     1.374657650586     1.007825032070
           C          1.916037861426     0.592375463479    -0.461138349414    12.000000000000
           H          2.549904861426    -1.186993536521     0.549724650586     1.007825032070
           H          1.526812861426    -1.493869536521    -0.823275349414     1.007825032070
           C          3.180472861426     0.709576463479    -1.314898349414    12.000000000000
           H          1.999208861426     1.259471463479     0.395701650586     1.007825032070
           H          1.066883861426     0.945766463479    -1.041100349414     1.007825032070
           C          3.434986861426     2.131272463479    -1.814566349414    12.000000000000
           H          4.037781861426     0.371797463479    -0.736613349414     1.007825032070
           H          3.103368861426     0.036523463479    -2.166331349414     1.007825032070
           H          3.549331861426     2.823700463479    -0.985294349414     1.007825032070
           H          4.338452861426     2.181988463479    -2.414409349414     1.007825032070
           H          2.610952861426     2.485166463479    -2.427829349414     1.007825032070

  Charge       = 0
  Multiplicity = 1
  Basis Set: 6-31G*
  Basis Set:

    Orbital Energies (a.u.)
    -----------------------

    Doubly Occupied:

       1A    -20.550656     2A    -11.268237     3A    -11.213094
       4A    -11.210681     5A    -11.209762     6A    -11.209137
       7A    -11.207547     8A    -11.207493     9A    -11.204566
      10A     -1.358800    11A     -1.088164    12A     -1.055945
      13A     -1.007368    14A     -0.942724    15A     -0.879980
      16A     -0.813430    17A     -0.796040    18A     -0.771331
      19A     -0.697091    20A     -0.648459    21A     -0.639969
      22A     -0.608614    23A     -0.589559    24A     -0.584072
      25A     -0.568899    26A     -0.546766    27A     -0.537621
      28A     -0.519510    29A     -0.504906    30A     -0.495837
      31A     -0.475719    32A     -0.468616    33A     -0.460289
      34A     -0.454588    35A     -0.444474    36A     -0.433506
      37A     -0.422382

  @DF-RHF Final Energy:  -388.27874863043235

   => Energetics <=

    Nuclear Repulsion Energy =            458.4385243766314488
    One-Electron Energy =               -1435.2428100345869098
    Two-Electron Energy =                 588.5255370275228870
    DFT Exchange-Correlation Energy =       0.0000000000000000
    Empirical Dispersion Energy =           0.0000000000000000
    PCM Polarization Energy =               0.0000000000000000
    EFP Energy =                            0.0000000000000000
    Total Energy =                       -388.2787486304325739

  Mulliken Charges: (a.u.)
   Center  Symbol    Alpha    Beta     Spin     Total
       1     H     0.27864  0.27864  0.00000  0.44272
       2     O     4.37291  4.37291  0.00000 -0.74583
       3     C     2.99595  2.99595  0.00000  0.00810
       4     C     3.15725  3.15725  0.00000 -0.31450
       5     H     0.43239  0.43239  0.00000  0.13522
       6     H     0.42464  0.42464  0.00000  0.15071
       7     C     3.15715  3.15715  0.00000 -0.31429
       8     H     0.42146  0.42146  0.00000  0.15707
       9     H     0.42528  0.42528  0.00000  0.14943
      10     C     3.15305  3.15305  0.00000 -0.30610
      11     H     0.40758  0.40758  0.00000  0.18485
      12     H     0.42571  0.42571  0.00000  0.14858
      13     C     3.15274  3.15274  0.00000 -0.30549
      14     H     0.42421  0.42421  0.00000  0.15159
      15     H     0.42443  0.42443  0.00000  0.15115
      16     C     3.15303  3.15303  0.00000 -0.30606
      17     H     0.42299  0.42299  0.00000  0.15401
      18     H     0.42435  0.42435  0.00000  0.15130
      19     C     3.15101  3.15101  0.00000 -0.30202
      20     H     0.42491  0.42491  0.00000  0.15018
      21     H     0.41997  0.41997  0.00000  0.16005
      22     C     3.23908  3.23908  0.00000 -0.47816
      23     H     0.42402  0.42402  0.00000  0.15197
      24     H     0.42345  0.42345  0.00000  0.15309
      25     H     0.42217  0.42217  0.00000  0.15566
      26     H     0.42024  0.42024  0.00000  0.15952
      27     H     0.42139  0.42139  0.00000  0.15722

   Total alpha = 37.00000, Total beta = 37.00000, Total charge = -0.00000
