  ==> Input File <==

--------------------------------------------------------------------------
set {
	reference rhf
	basis cc-pvtz
}

set_num_threads( 4 )
memory 2 gb

molecule MOL {
0 1

H	 1.298518	 1.460825	 -0.940985
O	 0.495576	 0.964343	 -0.988473
C	 0.489979	 0.078084	 0.002623
C	 -0.763662	 -0.754014	 0.000816
O	 1.379594	 -0.008655	 0.776557
C	 -2.038001	 0.074705	 -0.000833
H	 -0.712945	 -1.405886	 -0.864342
H	 -0.715137	 -1.405770	 0.866182
H	 -2.087267	 0.710831	 -0.874232
H	 -2.903419	 -0.576199	 -0.001922
H	 -2.089467	 0.710909	 0.872389

	symmetry c1
}
set optking {
	frozen_dihedral = ("
		2 3 4 7
	")
}

ee = optimize('scf')
oeprop('DIPOLE', 'QUADRUPOLE', 'MULLIKEN_CHARGES')
f=open( 'psi4out.xyz', 'w' )
f.write( "11  " )
f.write( str(ee) + "\n" )
f.write( MOL.save_string_xyz() )
f.close()
--------------------------------------------------------------------------

    Molecular point group: c1
  Charge       = 0
  Multiplicity = 1
  Basis Set: CC-PVTZ
  Basis Set:
  @DF-RHF Final Energy:  -266.95125098716028
    Total Energy =                       -266.9512509871603925
    Molecular point group: c1
  Basis Set: CC-PVTZ
  Basis Set:
  Basis Set: CC-PVTZ
  Basis Set:
  @DF-RHF Final Energy:  -266.95126575413030
    Total Energy =                       -266.9512657541303042
  Basis Set: CC-PVTZ
  Basis Set:
  Basis Set: CC-PVTZ
  Basis Set:
  @DF-RHF Final Energy:  -266.95120674254844
    Total Energy =                       -266.9512067425484361
  Basis Set: CC-PVTZ
  Basis Set:
  Basis Set: CC-PVTZ
  Basis Set:
  @DF-RHF Final Energy:  -266.95153537245193
    Total Energy =                       -266.9515353724516444
  Basis Set: CC-PVTZ
  Basis Set:
  Charge       = 0
  Multiplicity = 1
  Basis Set: CC-PVTZ
  Basis Set:

    Orbital Energies (a.u.)
    -----------------------

    Doubly Occupied:

       1A    -20.605758     2A    -20.540165     3A    -11.373816
       4A    -11.242298     5A    -11.226888     6A     -1.478598
       7A     -1.369161     8A     -1.068638     9A     -0.912702
      10A     -0.822449    11A     -0.705807    12A     -0.685619
      13A     -0.649731    14A     -0.611936    15A     -0.593203
      16A     -0.550051    17A     -0.527580    18A     -0.511980
      19A     -0.482020    20A     -0.443696

  @DF-RHF Final Energy:  -266.95153674482731

   => Energetics <=

    Nuclear Repulsion Energy =            180.4026506966748400
    One-Electron Energy =                -721.9041858373527702
    Two-Electron Energy =                 274.5499983958507642
    DFT Exchange-Correlation Energy =       0.0000000000000000
    Empirical Dispersion Energy =           0.0000000000000000
    PCM Polarization Energy =               0.0000000000000000
    EFP Energy =                            0.0000000000000000
    Total Energy =                       -266.9515367448271377
    Molecular point group: c1
  Basis Set: CC-PVTZ
  Basis Set:

  -Total Gradient:
     Atom            X                  Y                   Z
    ------   -----------------  -----------------  -----------------
       1        0.000028669691     0.000054904588    -0.000031679807
       2       -0.000121705507     0.000327709219     0.000274292084
       3        0.000312704339    -0.000624374486    -0.000158770007
       4       -0.000416817122     0.000523512356    -0.000236877159
       5       -0.000064881407     0.000101189966    -0.000133598300
       6        0.000060232870    -0.000014892049     0.000003310975
       7        0.000243841171    -0.000359863272     0.000285814508
       8       -0.000021403911    -0.000013637744    -0.000003376819
       9        0.000003652427     0.000010226155     0.000008150693
      10       -0.000018790538    -0.000007804063    -0.000000779852
      11       -0.000005502011     0.000003029330    -0.000006486316

  **** Optimization is complete! (in 5 steps) ****
    Final optimized geometry and variables:
    Molecular point group: c1

    Geometry (in Angstrom), charge = 0, multiplicity = 1:

    H            1.385387317178     1.362961881829    -0.865466480106
    O            0.569265162330     0.887957951699    -0.911562285098
    C            0.556856823763    -0.020067629964     0.059962154840
    C           -0.698415344990    -0.851237715186     0.064707831565
    O            1.458925649295    -0.143409884292     0.814618108418
    C           -1.985816163583    -0.028864446190     0.053195348674
    H           -0.658324063403    -1.489592367578    -0.812019895742
    H           -0.647861400179    -1.487243212908     0.935629224326
    H           -2.056505764337     0.579674935779    -0.837260717899
    H           -2.843036509018    -0.689193926596     0.084189586190
    H           -2.038233664449     0.625042046222     0.915690644238

  Mulliken Charges: (a.u.)
   Center  Symbol    Alpha    Beta     Spin     Total
       1     H     0.38038  0.38038  0.00000  0.23924
       2     O     4.16270  4.16270  0.00000 -0.32539
       3     C     2.80330  2.80330  0.00000  0.39339
       4     C     3.09073  3.09073  0.00000 -0.18147
       5     O     4.19308  4.19308  0.00000 -0.38615
       6     C     3.14687  3.14687  0.00000 -0.29374
       7     H     0.44567  0.44567  0.00000  0.10866
       8     H     0.43475  0.43475  0.00000  0.13049
       9     H     0.44483  0.44483  0.00000  0.11034
      10     H     0.44750  0.44750  0.00000  0.10501
      11     H     0.45019  0.45019  0.00000  0.09963

   Total alpha = 20.00000, Total beta = 20.00000, Total charge =  0.00000
