  ==> Input File <==

--------------------------------------------------------------------------
set {
	reference rhf
	basis 6-31G*
}

set_num_threads( 4 )
memory 2 gb

molecule MOL {
0 1

O	 1.629362	 -0.407928	 -0.113444
C	 0.576249	 0.131685	 -0.000108
C	 -0.766779	 -0.556801	 -0.000461
O	 0.444037	 1.443957	 0.145234
C	 -1.945214	 0.412366	 0.000161
H	 -0.796911	 -1.211249	 -0.867467
H	 -0.796854	 -1.212390	 0.865687
C	 -3.287791	 -0.317055	 0.000105
H	 -1.876087	 1.060580	 -0.866812
H	 -1.875822	 1.059691	 0.867761
H	 -3.394745	 -0.949193	 -0.877058
H	 -4.111778	 0.388953	 0.000015
H	 -3.394954	 -0.949187	 0.877259
C	 1.633730	 2.211779	 0.162186
H	 2.268543	 1.910765	 0.983127
H	 1.321498	 3.236833	 0.287256
H	 2.174362	 2.095498	 -0.766095

	symmetry c1
}
set optking {
	frozen_dihedral = ("
		1 2 3 6
	")
}

ee = optimize('scf')
oeprop('DIPOLE', 'QUADRUPOLE', 'MULLIKEN_CHARGES')
f=open( 'psi4out.xyz', 'w' )
f.write( "17  " )
f.write( str(ee) + "\n" )
f.write( MOL.save_string_xyz() )
f.close()
--------------------------------------------------------------------------

    Molecular point group: c1
  Charge       = 0
  Multiplicity = 1
  Basis Set: 6-31G*
  Basis Set:
  @DF-RHF Final Energy:  -344.90285151208644
    Total Energy =                       -344.9028515120862721
    Molecular point group: c1
  Basis Set: 6-31G*
  Basis Set:
  Basis Set: 6-31G*
  Basis Set:
  @DF-RHF Final Energy:  -344.90365008516858
    Total Energy =                       -344.9036500851686924
  Basis Set: 6-31G*
  Basis Set:
  Basis Set: 6-31G*
  Basis Set:
  @DF-RHF Final Energy:  -344.90418533415288
    Total Energy =                       -344.9041853341529418
  Basis Set: 6-31G*
  Basis Set:
  Basis Set: 6-31G*
  Basis Set:
  @DF-RHF Final Energy:  -344.90420544575557
    Total Energy =                       -344.9042054457559061
  Basis Set: 6-31G*
  Basis Set:
  Basis Set: 6-31G*
  Basis Set:
  @DF-RHF Final Energy:  -344.90424150931591
    Total Energy =                       -344.9042415093164209
  Basis Set: 6-31G*
  Basis Set:
  Basis Set: 6-31G*
  Basis Set:
  @DF-RHF Final Energy:  -344.90425074409194
    Total Energy =                       -344.9042507440922236
  Basis Set: 6-31G*
  Basis Set:
  Charge       = 0
  Multiplicity = 1
  Basis Set: 6-31G*
  Basis Set:

    Orbital Energies (a.u.)
    -----------------------

    Doubly Occupied:

       1A    -20.607092     2A    -20.540532     3A    -11.372900
       4A    -11.281980     5A    -11.236353     6A    -11.225892
       7A    -11.216780     8A     -1.470717     9A     -1.361208
      10A     -1.082858    11A     -0.997273    12A     -0.943449
      13A     -0.831254    14A     -0.775243    15A     -0.696822
      16A     -0.684184    17A     -0.669785    18A     -0.638065
      19A     -0.595618    20A     -0.571708    21A     -0.559318
      22A     -0.529280    23A     -0.522356    24A     -0.517737
      25A     -0.489687    26A     -0.484171    27A     -0.451866
      28A     -0.430442

  @DF-RHF Final Energy:  -344.90425077089901

   => Energetics <=

    Nuclear Repulsion Energy =            314.3260740624531309
    One-Electron Energy =               -1092.8915119518690062
    Two-Electron Energy =                 433.6611871185165228
    DFT Exchange-Correlation Energy =       0.0000000000000000
    Empirical Dispersion Energy =           0.0000000000000000
    PCM Polarization Energy =               0.0000000000000000
    EFP Energy =                            0.0000000000000000
    Total Energy =                       -344.9042507708993526
    Molecular point group: c1
  Basis Set: 6-31G*
  Basis Set:

  -Total Gradient:
     Atom            X                  Y                   Z
    ------   -----------------  -----------------  -----------------
       1       -0.000014391116    -0.000009153503     0.000270020933
       2       -0.000011158553     0.000033789299    -0.000402303405
       3        0.000129152862    -0.000252203161     0.000314662729
       4        0.000013819157     0.000034516502    -0.000001575870
       5       -0.000010598374     0.000010866241    -0.000036969119
       6       -0.000108092765     0.000209011441    -0.000150950160
       7        0.000004657013    -0.000001746051     0.000002033511
       8        0.000003967333    -0.000009825268     0.000012090175
       9        0.000000590893     0.000000229767    -0.000003116856
      10        0.000005150014    -0.000005273105    -0.000003059368
      11       -0.000004025224     0.000005182931    -0.000003947106
      12        0.000004033033     0.000001731801     0.000007072473
      13        0.000002079496    -0.000006372430    -0.000002112631
      14       -0.000023486679    -0.000012836023    -0.000000657009
      15        0.000000629862    -0.000001111753     0.000000692617
      16        0.000004314869     0.000002884436    -0.000000072602
      17        0.000003358177     0.000000308874    -0.000001808310

  **** Optimization is complete! (in 7 steps) ****
    Final optimized geometry and variables:
    Molecular point group: c1

    Geometry (in Angstrom), charge = 0, multiplicity = 1:

    O            1.814108526134    -0.857423109072    -0.131940319346
    C            0.789010361768    -0.262568522861    -0.028209264255
    C           -0.564358173972    -0.939835174908    -0.026352291078
    O            0.727706207637     1.052515108415     0.109888278700
    C           -1.793486284895    -0.031936426493    -0.024418640019
    H           -0.571906534916    -1.597131428757    -0.890200299388
    H           -0.570841003632    -1.593629300450     0.841720835045
    C           -3.091119312686    -0.839319545714    -0.037500020013
    H           -1.762733584750     0.624534249749    -0.888023514117
    H           -1.770601987959     0.610949479274     0.848643708498
    H           -3.156642525883    -1.467988083839    -0.920982385763
    H           -3.955607411336    -0.183480210726    -0.034039640639
    H           -3.162910874449    -1.485191602577     0.833079918836
    C            1.959007029688     1.752933249810     0.129317270978
    H            2.570144459668     1.421231189086     0.956064544955
    H            1.703430179161     2.794566972689     0.245591670459
    H            2.496930741313     1.598721670459    -0.794721572058

  Mulliken Charges: (a.u.)
   Center  Symbol    Alpha    Beta     Spin     Total
       1     O     4.28903  4.28903  0.00000 -0.57807
       2     C     2.60509  2.60509  0.00000  0.78983
       3     C     3.21005  3.21005  0.00000 -0.42011
       4     O     4.30431  4.30431  0.00000 -0.60861
       5     C     3.15085  3.15085  0.00000 -0.30169
       6     H     0.39822  0.39822  0.00000  0.20357
       7     H     0.39874  0.39874  0.00000  0.20253
       8     C     3.24317  3.24317  0.00000 -0.48635
       9     H     0.41456  0.41456  0.00000  0.17089
      10     H     0.41251  0.41251  0.00000  0.17497
      11     H     0.42016  0.42016  0.00000  0.15969
      12     H     0.41549  0.41549  0.00000  0.16903
      13     H     0.42038  0.42038  0.00000  0.15924
      14     C     3.09280  3.09280  0.00000 -0.18559
      15     H     0.40812  0.40812  0.00000  0.18375
      16     H     0.40851  0.40851  0.00000  0.18298
      17     H     0.40803  0.40803  0.00000  0.18395

   Total alpha = 28.00000, Total beta = 28.00000, Total charge =  0.00000
