  ==> Input File <==

--------------------------------------------------------------------------
set {
	reference rhf
	basis 6-31G*
}

set_num_threads( 1 )
memory 2 gb

molecule MOL {
0 1

H	 -2.362706	 -1.735408	 -1.457353
N	 -1.462363	 -1.713880	 -1.019298
C	 -1.417035	 -0.694718	 0.014318
H	 -0.789669	 -1.499516	 -1.729678
C	 -0.037760	 -0.651799	 0.637931
H	 -1.663434	 0.305573	 -0.344441
H	 -2.137023	 -0.950571	 0.785640
O	 0.874168	 -0.245412	 -0.342030
H	 -0.024251	 0.046504	 1.474489
H	 0.225301	 -1.638745	 1.012057
C	 2.202317	 -0.244239	 0.074611
H	 2.711377	 -1.041390	 -0.449894
H	 2.692099	 0.699270	 -0.159667
H	 2.283185	 -0.418429	 1.145558

	symmetry c1
}
set optking {
	frozen_dihedral = ("
		8 5 3 6,
		6 3 2 4,
		11 8 5 3
	")
}

ee = energy('scf')
oeprop('DIPOLE', 'QUADRUPOLE', 'MULLIKEN_CHARGES')
f=open( 'psi4out.xyz', 'w' )
f.write( "14  " )
f.write( str(ee) + "\n" )
f.write( MOL.save_string_xyz() )
f.close()
--------------------------------------------------------------------------

    Molecular point group: c1

    Geometry (in Angstrom), charge = 0, multiplicity = 1:

       Center              X                  Y                   Z               Mass
    ------------   -----------------  -----------------  -----------------  -----------------
           H         -2.408226126140    -1.025449112431    -1.314245544523     1.007825032070
           N         -1.507883126140    -1.003921112431    -0.876190544523    14.003074004780
           C         -1.462555126140     0.015240887569     0.157425455477    12.000000000000
           H         -0.835189126140    -0.789557112431    -1.586570544523     1.007825032070
           C         -0.083280126140     0.058159887569     0.781038455477    12.000000000000
           H         -1.708954126140     1.015531887569    -0.201333544523     1.007825032070
           H         -2.182543126140    -0.240612112431     0.928747455477     1.007825032070
           O          0.828647873860     0.464546887569    -0.198922544523    15.994914619560
           H         -0.069771126140     0.756462887569     1.617596455477     1.007825032070
           H          0.179780873860    -0.928786112431     1.155164455477     1.007825032070
           C          2.156796873860     0.465719887569     0.217718455477    12.000000000000
           H          2.665856873860    -0.331431112431    -0.306786544523     1.007825032070
           H          2.646578873860     1.409228887569    -0.016559544523     1.007825032070
           H          2.237664873860     0.291529887569     1.288665455477     1.007825032070

  Charge       = 0
  Multiplicity = 1
  Basis Set: 6-31G*
  Basis Set:

    Orbital Energies (a.u.)
    -----------------------

    Doubly Occupied:

       1A    -20.554162     2A    -15.528286     3A    -11.266248
       4A    -11.265265     5A    -11.240436     6A     -1.380151
       7A     -1.173413     8A     -0.998334     9A     -0.907030
      10A     -0.816186    11A     -0.683013    12A     -0.672904
      13A     -0.642273    14A     -0.610116    15A     -0.606597
      16A     -0.538643    17A     -0.535180    18A     -0.495098
      19A     -0.474424    20A     -0.411866    21A     -0.379981

  @DF-RHF Final Energy:  -248.12094797988817

   => Energetics <=

    Nuclear Repulsion Energy =            194.7171075024066909
    One-Electron Energy =                -723.3168640536765679
    Two-Electron Energy =                 280.4788085713818191
    DFT Exchange-Correlation Energy =       0.0000000000000000
    Empirical Dispersion Energy =           0.0000000000000000
    PCM Polarization Energy =               0.0000000000000000
    EFP Energy =                            0.0000000000000000
    Total Energy =                       -248.1209479798880011

  Mulliken Charges: (a.u.)
   Center  Symbol    Alpha    Beta     Spin     Total
       1     H     0.33285  0.33285  0.00000  0.33430
       2     N     3.92535  3.92535  0.00000 -0.85069
       3     C     3.06896  3.06896  0.00000 -0.13792
       4     H     0.32367  0.32367  0.00000  0.35265
       5     C     2.99188  2.99188  0.00000  0.01624
       6     H     0.42660  0.42660  0.00000  0.14680
       7     H     0.42061  0.42061  0.00000  0.15879
       8     O     4.31176  4.31176  0.00000 -0.62352
       9     H     0.43048  0.43048  0.00000  0.13905
      10     H     0.42221  0.42221  0.00000  0.15557
      11     C     3.07679  3.07679  0.00000 -0.15359
      12     H     0.42058  0.42058  0.00000  0.15883
      13     H     0.41953  0.41953  0.00000  0.16094
      14     H     0.42872  0.42872  0.00000  0.14256

   Total alpha = 21.00000, Total beta = 21.00000, Total charge =  0.00000
