  ==> Input File <==

--------------------------------------------------------------------------
set {
	reference rhf
	basis cc-pvtz
}

set_num_threads( 4 )
memory 2 gb

molecule MOL {
0 1

H	 -1.088256	 -1.364742	 0.152233
O	 -1.432053	 -0.565244	 -0.200812
C	 -0.727158	 0.534527	 0.310686
C	 0.680222	 0.664433	 -0.252229
H	 -1.306802	 1.408001	 0.044211
H	 -0.690821	 0.490158	 1.397609
C	 1.069374	 -0.457932	 -1.209781
H	 0.764757	 1.621747	 -0.755850
H	 1.374716	 0.683426	 0.583215
H	 0.433623	 -0.470283	 -2.088298
H	 2.088997	 -0.337282	 -1.555271
H	 0.997586	 -1.428510	 -0.728345

	symmetry c1
}
set optking {
	frozen_dihedral = ("
		8 4 3 2
	")
}

ee = optimize('scf')
oeprop('DIPOLE', 'QUADRUPOLE', 'MULLIKEN_CHARGES')
f=open( 'psi4out.xyz', 'w' )
f.write( "12  " )
f.write( str(ee) + "\n" )
f.write( MOL.save_string_xyz() )
f.close()
--------------------------------------------------------------------------

    Molecular point group: c1
  Charge       = 0
  Multiplicity = 1
  Basis Set: CC-PVTZ
  Basis Set:
  @DF-RHF Final Energy:  -193.18115236647034
    Total Energy =                       -193.1811523664702861
    Molecular point group: c1
  Basis Set: CC-PVTZ
  Basis Set:
  Basis Set: CC-PVTZ
  Basis Set:
  @DF-RHF Final Energy:  -193.18180097796753
    Total Energy =                       -193.1818009779674696
  Basis Set: CC-PVTZ
  Basis Set:
  Basis Set: CC-PVTZ
  Basis Set:
  @DF-RHF Final Energy:  -193.18241706334933
    Total Energy =                       -193.1824170633493338
  Basis Set: CC-PVTZ
  Basis Set:
  Basis Set: CC-PVTZ
  Basis Set:
  @DF-RHF Final Energy:  -193.18243136108021
    Total Energy =                       -193.1824313610802619
  Basis Set: CC-PVTZ
  Basis Set:
  Basis Set: CC-PVTZ
  Basis Set:
  @DF-RHF Final Energy:  -193.18243528058801
    Total Energy =                       -193.1824352805879244
  Basis Set: CC-PVTZ
  Basis Set:
  Charge       = 0
  Multiplicity = 1
  Basis Set: CC-PVTZ
  Basis Set:

    Orbital Energies (a.u.)
    -----------------------

    Doubly Occupied:

       1A    -20.546309     2A    -11.266458     3A    -11.216827
       4A    -11.209676     5A     -1.364223     6A     -1.044291
       7A     -0.927138     8A     -0.807991     9A     -0.692000
      10A     -0.630255    11A     -0.623791    12A     -0.578461
      13A     -0.527959    14A     -0.512203    15A     -0.496883
      16A     -0.456356    17A     -0.432389

  @DF-RHF Final Energy:  -193.18243542176828

   => Energetics <=

    Nuclear Repulsion Energy =            133.3964957154286708
    One-Electron Energy =                -526.4914396957327654
    Two-Electron Energy =                 199.9125085585357056
    DFT Exchange-Correlation Energy =       0.0000000000000000
    Empirical Dispersion Energy =           0.0000000000000000
    PCM Polarization Energy =               0.0000000000000000
    EFP Energy =                            0.0000000000000000
    Total Energy =                       -193.1824354217683890
    Molecular point group: c1
  Basis Set: CC-PVTZ
  Basis Set:

  -Total Gradient:
     Atom            X                  Y                   Z
    ------   -----------------  -----------------  -----------------
       1       -0.000014424185    -0.000018155550    -0.000005886192
       2        0.000041892719    -0.000119046671     0.000067412235
       3       -0.000045766725     0.000135508398    -0.000096316803
       4       -0.000035452032    -0.000079812902    -0.000074810209
       5        0.000020741663     0.000029364105     0.000013095767
       6        0.000016596898     0.000001293861    -0.000010232407
       7       -0.000007575860    -0.000001942318    -0.000010539238
       8        0.000025706188     0.000049504981     0.000104208164
       9        0.000006383308     0.000006344036     0.000008784046
      10        0.000003050864    -0.000001572175    -0.000001416116
      11       -0.000004126800    -0.000001356415     0.000002710845
      12       -0.000007026038    -0.000000129350     0.000002989908

  **** Optimization is complete! (in 6 steps) ****
    Final optimized geometry and variables:
    Molecular point group: c1

    Geometry (in Angstrom), charge = 0, multiplicity = 1:

    H           -1.016526853345    -1.365538366780     0.495213662165
    O           -1.348134896736    -0.556592008499     0.152580095081
    C           -0.600478996820     0.524175244385     0.643040778105
    C            0.835528639313     0.639649729234     0.076064818508
    H           -1.168350365108     1.404816719869     0.379765463395
    H           -0.564826133935     0.484921987617     1.727602584599
    C            1.243103253117    -0.466918738062    -0.893387280895
    H            0.936594166964     1.594203160883    -0.428249912108
    H            1.541820560324     0.661834791654     0.899490196756
    H            0.578017613037    -0.513913599432    -1.744968611718
    H            2.248543573114    -0.288313836289    -1.256306888914
    H            1.240493271197    -1.442434929150    -0.418961170303

  Mulliken Charges: (a.u.)
   Center  Symbol    Alpha    Beta     Spin     Total
       1     H     0.39316  0.39316  0.00000  0.21369
       2     O     4.20061  4.20061  0.00000 -0.40121
       3     C     2.97457  2.97457  0.00000  0.05086
       4     C     3.10355  3.10355  0.00000 -0.20710
       5     H     0.45500  0.45500  0.00000  0.09000
       6     H     0.46586  0.46586  0.00000  0.06828
       7     C     3.14573  3.14573  0.00000 -0.29146
       8     H     0.45224  0.45224  0.00000  0.09552
       9     H     0.45323  0.45323  0.00000  0.09355
      10     H     0.44402  0.44402  0.00000  0.11196
      11     H     0.44912  0.44912  0.00000  0.10175
      12     H     0.46292  0.46292  0.00000  0.07417

   Total alpha = 17.00000, Total beta = 17.00000, Total charge = -0.00000
