                              Psi4 1.0.54 Driver

  ==> Input File <==

--------------------------------------------------------------------------
set {
	reference rhf
	basis cc-pvtz
}

set_num_threads( 4 )
memory 2 gb

molecule MOL {
0 1

O	 0.074770	 1.259872	 0.000487
C	 0.029490	 0.077183	 0.000078
C	 -1.232113	 -0.748027	 0.000015
O	 1.106773	 -0.690081	 -0.000204
C	 -2.501422	 0.088592	 -0.000052
H	 -1.188777	 -1.400384	 -0.865133
H	 -1.188857	 -1.400312	 0.865225
H	 -2.548170	 0.725504	 -0.873205
H	 -3.371613	 -0.556398	 -0.000040
H	 -2.548215	 0.725571	 0.873047
C	 1.508704	 -1.243834	 -1.236914
H	 0.731805	 -1.874814	 -1.642536
H	 2.391240	 -1.826839	 -1.029401
H	 1.736002	 -0.463482	 -1.947991

	symmetry c1
}
set optking {
	frozen_dihedral = ("
		11 4 2 3
	")
}

ee,wfn = optimize('scf', return_wfn=True)
oeprop( wfn, 'DIPOLE', 'QUADRUPOLE', 'MULLIKEN_CHARGES')
f=open( 'psi4out.xyz', 'w' )
f.write( "14  " )
f.write( str(ee) + "\n" )
f.write( MOL.save_string_xyz() )
f.close()
--------------------------------------------------------------------------

    Molecular point group: c1
  Charge       = 0
  Multiplicity = 1
  Basis Set: CC-PVTZ
  Basis Set:
  @DF-RHF Final Energy:  -305.96548460452448
    Total Energy =                       -305.9654846045240788
    Molecular point group: c1
  Basis Set: CC-PVTZ
  Basis Set:
  Basis Set: CC-PVTZ
  Basis Set:
  @DF-RHF Final Energy:  -305.96659460706070
    Total Energy =                       -305.9665946070604150
  Basis Set: CC-PVTZ
  Basis Set:
  Basis Set: CC-PVTZ
  Basis Set:
  @DF-RHF Final Energy:  -305.96637840333437
    Total Energy =                       -305.9663784033342608
  Basis Set: CC-PVTZ
  Basis Set:
  Basis Set: CC-PVTZ
  Basis Set:
  @DF-RHF Final Energy:  -305.96739257197805
    Total Energy =                       -305.9673925719780527
  Basis Set: CC-PVTZ
  Basis Set:
  Basis Set: CC-PVTZ
  Basis Set:
  @DF-RHF Final Energy:  -305.96743296900263
    Total Energy =                       -305.9674329690028571
  Basis Set: CC-PVTZ
  Basis Set:
  Basis Set: CC-PVTZ
  Basis Set:
  @DF-RHF Final Energy:  -305.96743688702804
    Total Energy =                       -305.9674368870281569
  Basis Set: CC-PVTZ
  Basis Set:
  Charge       = 0
  Multiplicity = 1
  Basis Set: CC-PVTZ
  Basis Set:

    Orbital Energies (a.u.)
    -----------------------

    Doubly Occupied:

       1A    -20.579524     2A    -20.545763     3A    -11.368485
       4A    -11.290951     5A    -11.242681     6A    -11.218501
       7A     -1.462306     8A     -1.371105     9A     -1.063852
      10A     -0.977832    11A     -0.894925    12A     -0.767880
      13A     -0.703233    14A     -0.680682    15A     -0.675468
      16A     -0.628135    17A     -0.614666    18A     -0.558000
      19A     -0.547671    20A     -0.526549    21A     -0.511900
      22A     -0.492834    23A     -0.460303    24A     -0.440025

  @DF-RHF Final Energy:  -305.96743717278366

   => Energetics <=

    Nuclear Repulsion Energy =            247.0886883905313027
    One-Electron Energy =                -906.8657108435695591
    Two-Electron Energy =                 353.8095852802542822
    DFT Exchange-Correlation Energy =       0.0000000000000000
    Empirical Dispersion Energy =           0.0000000000000000
    PCM Polarization Energy =               0.0000000000000000
    EFP Energy =                            0.0000000000000000
    Total Energy =                       -305.9674371727840025
    Molecular point group: c1
  Basis Set: CC-PVTZ
  Basis Set:

  -Total Gradient:
     Atom            X                  Y                   Z
    ------   -----------------  -----------------  -----------------
       1        0.000011866393    -0.000025473247    -0.000010446250
       2       -0.000198954894    -0.000243641708     0.000968020411
       3       -0.000002264015     0.000003545735    -0.000587338676
       4        0.000586093726     0.000839032273    -0.000473300905
       5       -0.000004926930    -0.000002358838    -0.000010267804
       6       -0.000001717939     0.000000887716    -0.000014288029
       7       -0.000005915561    -0.000008205428    -0.000009741134
       8        0.000002499138    -0.000001279099     0.000003193617
       9       -0.000001118288    -0.000000501752     0.000001860375
      10       -0.000001019433     0.000001232010     0.000001312716
      11       -0.000393828256    -0.000561183170     0.000130957245
      12        0.000000824103    -0.000002661675    -0.000001642832
      13        0.000006591682    -0.000000058927    -0.000002458047
      14        0.000001870271     0.000000666109     0.000004139314

  **** Optimization is complete! (in 7 steps) ****
    Final optimized geometry and variables:
    Molecular point group: c1

    Geometry (in Angstrom), charge = 0, multiplicity = 1:

    O            0.224110644474     1.444349838998     0.266174592122
    C            0.164915150537     0.271700775506     0.207632535002
    C           -1.118817679854    -0.521466580308     0.209697584929
    O            1.285184231800    -0.481453359788     0.197385030886
    C           -2.370097800012     0.341763547910     0.236816720938
    H           -1.117137134351    -1.172519191507    -0.657706153698
    H           -1.074054789481    -1.180031215077     1.070990006526
    H           -2.417409272865     0.986203470006    -0.631015401520
    H           -3.254570905144    -0.283432781794     0.247193732064
    H           -2.386230727566     0.972934451843     1.114739598334
    C            1.710026883858    -1.023983288005    -1.030625327277
    H            0.996521653092    -1.739599019987    -1.421335064645
    H            2.642482775905    -1.529120956644    -0.838193885830
    H            1.874098760888    -0.239308419900    -1.759035604546

  Mulliken Charges: (a.u.)
   Center  Symbol    Alpha    Beta     Spin     Total
       1     O     4.16675  4.16675  0.00000 -0.33350
       2     C     2.79157  2.79157  0.00000  0.41686
       3     C     3.10907  3.10907  0.00000 -0.21813
       4     O     4.16383  4.16383  0.00000 -0.32766
       5     C     3.13887  3.13887  0.00000 -0.27774
       6     H     0.44669  0.44669  0.00000  0.10662
       7     H     0.43899  0.43899  0.00000  0.12202
       8     H     0.44902  0.44902  0.00000  0.10196
       9     H     0.45067  0.45067  0.00000  0.09866
      10     H     0.44519  0.44519  0.00000  0.10963
      11     C     3.03634  3.03634  0.00000 -0.07267
      12     H     0.46506  0.46506  0.00000  0.06987
      13     H     0.44067  0.44067  0.00000  0.11866
      14     H     0.45730  0.45730  0.00000  0.08541

   Total alpha = 24.00000, Total beta = 24.00000, Total charge = -0.00000

*** Psi4 exiting successfully. Buy a developer a beer!
