                              Psi4 1.0.54 Driver

  ==> Input File <==

--------------------------------------------------------------------------
set {
	reference rhf
	basis cc-pvtz
}

set_num_threads( 4 )
memory 2 gb

molecule MOL {
0 1

H	 -2.171709	 0.882708	 0.500286
C	 -2.016894	 0.001719	 -0.114152
O	 -0.775228	 0.000056	 -0.739966
H	 -2.760846	 0.003757	 -0.898169
H	 -2.174774	 -0.879864	 0.498643
C	 -0.317953	 1.162343	 -1.402739
C	 1.050542	 0.762796	 -1.943544
C	 -1.245167	 1.538152	 -2.560185
C	 -0.170718	 2.332019	 -0.427662
H	 0.954680	 -0.081083	 -2.614947
H	 1.703407	 0.473282	 -1.129878
H	 1.510179	 1.583302	 -2.481572
H	 -1.397696	 0.686061	 -3.211602
H	 -0.807380	 2.339241	 -3.143699
H	 -2.211943	 1.880800	 -2.213055
H	 0.433254	 2.039009	 0.422664
H	 0.314038	 3.167621	 -0.918231
H	 -1.128525	 2.681421	 -0.062846

	symmetry c1
}
set optking {
	frozen_dihedral = ("
		6 3 2 5
	")
}

ee,wfn = optimize('scf', return_wfn=True)
oeprop( wfn, 'DIPOLE', 'QUADRUPOLE', 'MULLIKEN_CHARGES')
f=open( 'psi4out.xyz', 'w' )
f.write( "18  " )
f.write( str(ee) + "\n" )
f.write( MOL.save_string_xyz() )
f.close()
--------------------------------------------------------------------------

    Molecular point group: c1
  Charge       = 0
  Multiplicity = 1
  Basis Set: CC-PVTZ
  Basis Set:
  @DF-RHF Final Energy:  -271.27421187568933
    Total Energy =                       -271.2742118756891614
    Molecular point group: c1
  Basis Set: CC-PVTZ
  Basis Set:
  Basis Set: CC-PVTZ
  Basis Set:
  @DF-RHF Final Energy:  -271.27126904809211
    Total Energy =                       -271.2712690480921083
  Basis Set: CC-PVTZ
  Basis Set:
  Basis Set: CC-PVTZ
  Basis Set:
  @DF-RHF Final Energy:  -271.27652595811236
    Total Energy =                       -271.2765259581123019
  Basis Set: CC-PVTZ
  Basis Set:
  Basis Set: CC-PVTZ
  Basis Set:
  @DF-RHF Final Energy:  -271.27666264966155
    Total Energy =                       -271.2766626496616027
  Basis Set: CC-PVTZ
  Basis Set:
  Basis Set: CC-PVTZ
  Basis Set:
  @DF-RHF Final Energy:  -271.27663124875744
    Total Energy =                       -271.2766312487570985
  Basis Set: CC-PVTZ
  Basis Set:
  Basis Set: CC-PVTZ
  Basis Set:
  @DF-RHF Final Energy:  -271.27668002493573
    Total Energy =                       -271.2766800249356720
  Basis Set: CC-PVTZ
  Basis Set:
  Charge       = 0
  Multiplicity = 1
  Basis Set: CC-PVTZ
  Basis Set:

    Orbital Energies (a.u.)
    -----------------------

    Doubly Occupied:

       1A    -20.540454     2A    -11.280121     3A    -11.258139
       4A    -11.207802     5A    -11.206365     6A    -11.201791
       7A     -1.373550     8A     -1.074646     9A     -0.946994
      10A     -0.940638    11A     -0.913219    12A     -0.753555
      13A     -0.656650    14A     -0.646809    15A     -0.639596
      16A     -0.593291    17A     -0.575454    18A     -0.553351
      19A     -0.534791    20A     -0.525006    21A     -0.515152
      22A     -0.489000    23A     -0.487813    24A     -0.440846
      25A     -0.407257

  @DF-RHF Final Energy:  -271.27668029983403

   => Energetics <=

    Nuclear Repulsion Energy =            272.6961163914843951
    One-Electron Energy =                -908.4210108016766299
    Two-Electron Energy =                 364.4482141103581512
    DFT Exchange-Correlation Energy =       0.0000000000000000
    Empirical Dispersion Energy =           0.0000000000000000
    PCM Polarization Energy =               0.0000000000000000
    EFP Energy =                            0.0000000000000000
    Total Energy =                       -271.2766802998341404
    Molecular point group: c1
  Basis Set: CC-PVTZ
  Basis Set:

  -Total Gradient:
     Atom            X                  Y                   Z
    ------   -----------------  -----------------  -----------------
       1        0.000014364102    -0.000090744855    -0.000093634557
       2       -0.000198584463    -0.000187501952    -0.000353720100
       3       -0.000221411435    -0.000081132340    -0.000495683045
       4        0.000066976186    -0.000027939949     0.000089182409
       5        0.000198510798     0.000236024581     0.000440591975
       6        0.000074928621     0.000090873995     0.000435311579
       7       -0.000004138431     0.000012366171     0.000028209673
       8        0.000049669660     0.000031762187    -0.000023220443
       9        0.000036141660    -0.000017900296    -0.000070858109
      10       -0.000019187542     0.000030569756     0.000032211801
      11        0.000003842709     0.000001344226    -0.000014851400
      12       -0.000012707344    -0.000009118613     0.000019437746
      13       -0.000014421224     0.000001631374     0.000042366997
      14       -0.000011783856    -0.000019656472    -0.000010216651
      15        0.000028026684     0.000028353128     0.000000165845
      16       -0.000031720304     0.000004479420     0.000002332038
      17        0.000011713708    -0.000020162917     0.000005368255
      18        0.000029780471     0.000016752558    -0.000032994012

  **** Optimization is complete! (in 7 steps) ****
    Final optimized geometry and variables:
    Molecular point group: c1

    Geometry (in Angstrom), charge = 0, multiplicity = 1:

    H           -1.684875293212    -0.411409521555     1.567501249763
    C           -1.497809412501    -1.117479806737     0.765407962705
    O           -0.208209466455    -1.020363480508     0.253959379277
    H           -2.254675293899    -0.978844629040     0.000122477673
    H           -1.600535843306    -2.114682185134     1.169315229175
    C            0.294683665411     0.237023747906    -0.152999934429
    C            1.644807328056    -0.090687429392    -0.781002636502
    C           -0.617936626798     0.893059532647    -1.190284992477
    C            0.493754882010     1.158596471448     1.052037309912
    H            1.512855924591    -0.754395577406    -1.626042420481
    H            2.281020950368    -0.586894072080    -0.059176062413
    H            2.143394667445     0.809110530688    -1.121198292259
    H           -0.807040175362     0.212414733573    -2.011765278816
    H           -0.148707351164     1.784542611676    -1.588573138922
    H           -1.569265048782     1.188099670048    -0.764832012233
    H            1.093419352387     0.663565912210     1.806006309735
    H            1.004819073577     2.065036277078     0.749810304743
    H           -0.446391792599     1.451887728056     1.501830580495

  Mulliken Charges: (a.u.)
   Center  Symbol    Alpha    Beta     Spin     Total
       1     H     0.47037  0.47037  0.00000  0.05927
       2     C     3.04463  3.04463  0.00000 -0.08926
       3     O     4.19023  4.19023  0.00000 -0.38045
       4     H     0.46756  0.46756  0.00000  0.06489
       5     H     0.44116  0.44116  0.00000  0.11767
       6     C     2.87410  2.87410  0.00000  0.25180
       7     C     3.14155  3.14155  0.00000 -0.28309
       8     C     3.16697  3.16697  0.00000 -0.33394
       9     C     3.16094  3.16094  0.00000 -0.32188
      10     H     0.44932  0.44932  0.00000  0.10136
      11     H     0.44839  0.44839  0.00000  0.10322
      12     H     0.45936  0.45936  0.00000  0.08128
      13     H     0.44495  0.44495  0.00000  0.11009
      14     H     0.44714  0.44714  0.00000  0.10572
      15     H     0.44880  0.44880  0.00000  0.10240
      16     H     0.44582  0.44582  0.00000  0.10835
      17     H     0.44950  0.44950  0.00000  0.10100
      18     H     0.44921  0.44921  0.00000  0.10158

   Total alpha = 25.00000, Total beta = 25.00000, Total charge =  0.00000

*** Psi4 exiting successfully. Buy a developer a beer!
