  ==> Input File <==

--------------------------------------------------------------------------
set {
	reference rhf
	basis 6-31G*
}

set_num_threads( 1 )
memory 2 gb

molecule MOL {
0 1

O	 -2.385963	 -1.338287	 0.903282
C	 -1.688612	 -1.571378	 -0.036826
C	 -0.889235	 -0.467034	 -0.705952
C	 -1.539705	 -2.972308	 -0.586913
C	 0.379448	 -0.143569	 0.099626
H	 -1.521140	 0.413095	 -0.754654
H	 -0.622976	 -0.748930	 -1.720677
C	 1.631333	 -0.777471	 -0.511575
H	 0.482768	 0.934507	 0.149241
H	 0.263088	 -0.495696	 1.123449
C	 2.915987	 -0.544314	 0.291766
H	 1.766672	 -0.399098	 -1.523130
H	 1.471257	 -1.849544	 -0.605828
C	 3.373361	 0.914346	 0.347591
H	 3.708709	 -1.142521	 -0.150311
H	 2.780642	 -0.921148	 1.303579
H	 3.506512	 1.320010	 -0.651625
H	 4.322697	 0.999599	 0.867103
H	 2.660624	 1.545032	 0.868198
H	 -1.964440	 -3.019400	 -1.586236
H	 -2.050231	 -3.677835	 0.053696
H	 -0.491103	 -3.242555	 -0.671797

	symmetry c1
}
set optking {
	frozen_dihedral = ("
		6 3 2 1,
		3 5 8 12,
		12 8 11 15
	")
}

ee = energy('scf')
oeprop('DIPOLE', 'QUADRUPOLE', 'MULLIKEN_CHARGES')
f=open( 'psi4out.xyz', 'w' )
f.write( "22  " )
f.write( str(ee) + "\n" )
f.write( MOL.save_string_xyz() )
f.close()
--------------------------------------------------------------------------

    Molecular point group: c1

    Geometry (in Angstrom), charge = 0, multiplicity = 1:

       Center              X                  Y                   Z               Mass
    ------------   -----------------  -----------------  -----------------  -----------------
           O         -2.617792042061    -0.474942321425     0.921723734507    15.994914619560
           C         -1.920441042061    -0.708033321425    -0.018384265493    12.000000000000
           C         -1.121064042061     0.396310678575    -0.687510265493    12.000000000000
           C         -1.771534042061    -2.108963321425    -0.568471265493    12.000000000000
           C          0.147618957939     0.719775678575     0.118067734507    12.000000000000
           H         -1.752969042061     1.276439678575    -0.736212265493     1.007825032070
           H         -0.854805042061     0.114414678575    -1.702235265493     1.007825032070
           C          1.399503957939     0.085873678575    -0.493133265493    12.000000000000
           H          0.250938957939     1.797851678575     0.167682734507     1.007825032070
           H          0.031258957939     0.367648678575     1.141890734507     1.007825032070
           C          2.684157957939     0.319030678575     0.310207734507    12.000000000000
           H          1.534842957939     0.464246678575    -1.504688265493     1.007825032070
           H          1.239427957939    -0.986199321425    -0.587386265493     1.007825032070
           C          3.141531957939     1.777690678575     0.366032734507    12.000000000000
           H          3.476879957939    -0.279176321425    -0.131869265493     1.007825032070
           H          2.548812957939    -0.057803321425     1.322020734507     1.007825032070
           H          3.274682957939     2.183354678575    -0.633183265493     1.007825032070
           H          4.090867957939     1.862943678575     0.885544734507     1.007825032070
           H          2.428794957939     2.408376678575     0.886639734507     1.007825032070
           H         -2.196269042061    -2.156055321425    -1.567794265493     1.007825032070
           H         -2.282060042061    -2.814490321425     0.072137734507     1.007825032070
           H         -0.722932042061    -2.379210321425    -0.653355265493     1.007825032070

  Charge       = 0
  Multiplicity = 1
  Basis Set: 6-31G*
  Basis Set:

    Orbital Energies (a.u.)
    -----------------------

    Doubly Occupied:

       1A    -20.546315     2A    -11.324231     3A    -11.228339
       4A    -11.228087     5A    -11.227742     6A    -11.224426
       7A    -11.221677     8A    -11.213195     9A     -1.392505
      10A     -1.097423    11A     -1.044090    12A     -0.999337
      13A     -0.939412    14A     -0.858648    15A     -0.788827
      16A     -0.733959    17A     -0.660521    18A     -0.645126
      19A     -0.626753    20A     -0.618365    21A     -0.594935
      22A     -0.583085    23A     -0.564693    24A     -0.553448
      25A     -0.534014    26A     -0.512468    27A     -0.504023
      28A     -0.493040    29A     -0.470767    30A     -0.464379
      31A     -0.451675    32A     -0.396954

  @DF-RHF Final Energy:  -348.09287380587818

   => Energetics <=

    Nuclear Repulsion Energy =            377.1697007523717957
    One-Electron Energy =               -1219.0395686289193691
    Two-Electron Energy =                 493.7769940706706393
    DFT Exchange-Correlation Energy =       0.0000000000000000
    Empirical Dispersion Energy =           0.0000000000000000
    PCM Polarization Energy =               0.0000000000000000
    EFP Energy =                            0.0000000000000000
    Total Energy =                       -348.0928738058769341

  Mulliken Charges: (a.u.)
   Center  Symbol    Alpha    Beta     Spin     Total
       1     O     4.26227  4.26227  0.00000 -0.52453
       2     C     2.73960  2.73960  0.00000  0.52079
       3     C     3.20219  3.20219  0.00000 -0.40439
       4     C     3.29068  3.29068  0.00000 -0.58137
       5     C     3.16412  3.16412  0.00000 -0.32825
       6     H     0.39872  0.39872  0.00000  0.20256
       7     H     0.41486  0.41486  0.00000  0.17027
       8     C     3.15703  3.15703  0.00000 -0.31405
       9     H     0.41050  0.41050  0.00000  0.17899
      10     H     0.40758  0.40758  0.00000  0.18484
      11     C     3.15340  3.15340  0.00000 -0.30680
      12     H     0.42194  0.42194  0.00000  0.15612
      13     H     0.42306  0.42306  0.00000  0.15388
      14     C     3.24203  3.24203  0.00000 -0.48406
      15     H     0.41989  0.41989  0.00000  0.16021
      16     H     0.42100  0.42100  0.00000  0.15799
      17     H     0.42192  0.42192  0.00000  0.15615
      18     H     0.41744  0.41744  0.00000  0.16512
      19     H     0.41886  0.41886  0.00000  0.16229
      20     H     0.40675  0.40675  0.00000  0.18649
      21     H     0.39730  0.39730  0.00000  0.20539
      22     H     0.40883  0.40883  0.00000  0.18234

   Total alpha = 32.00000, Total beta = 32.00000, Total charge = -0.00000
