  ==> Input File <==

--------------------------------------------------------------------------
set {
	reference rhf
	basis 6-31G*
}

set_num_threads( 4 )
memory 2 gb

molecule MOL {
0 1

H	 -2.646374	 -0.642757	 1.268656
C	 -2.083525	 -0.384536	 0.393091
O	 -0.807605	 -0.127164	 0.768327
F	 -2.118945	 -1.383102	 -0.486752
F	 -2.621877	 0.670592	 -0.209486
C	 0.084052	 0.273579	 -0.209957
C	 1.353033	 -0.546803	 -0.018071
Cl	 0.433844	 2.004619	 -0.074457
H	 -0.288836	 0.092657	 -1.202930
F	 2.069442	 -0.060096	 0.972896
F	 2.074978	 -0.475338	 -1.118583
F	 1.094369	 -1.808038	 0.227595

	symmetry c1
}
set optking {
	frozen_dihedral = ("
		10 7 6 9
	")
}

ee = optimize('scf')
oeprop('DIPOLE', 'QUADRUPOLE', 'MULLIKEN_CHARGES')
f=open( 'psi4out.xyz', 'w' )
f.write( "12  " )
f.write( str(ee) + "\n" )
f.write( MOL.save_string_xyz() )
f.close()
--------------------------------------------------------------------------

    Molecular point group: c1
  Charge       = 0
  Multiplicity = 1
  Basis Set: 6-31G*
  Basis Set:
  @DF-RHF Final Energy: -1146.31144784399226
    Total Energy =                      -1146.3114478439924824
    Molecular point group: c1
  Basis Set: 6-31G*
  Basis Set:
  Basis Set: 6-31G*
  Basis Set:
  @DF-RHF Final Energy: -1146.31213042693503
    Total Energy =                      -1146.3121304269334360
  Basis Set: 6-31G*
  Basis Set:
  Basis Set: 6-31G*
  Basis Set:
  @DF-RHF Final Energy: -1146.31239283654941
    Total Energy =                      -1146.3123928365494066
  Basis Set: 6-31G*
  Basis Set:
  Basis Set: 6-31G*
  Basis Set:
  @DF-RHF Final Energy: -1146.31241350338269
    Total Energy =                      -1146.3124135033835955
  Basis Set: 6-31G*
  Basis Set:
  @DF-RHF Final Energy: -1146.31241783661926
    Total Energy =                      -1146.3124178366194883
  @DF-RHF Final Energy: -1146.31242048690160
    Total Energy =                      -1146.3124204869018286
  @DF-RHF Final Energy: -1146.31242333563705
    Total Energy =                      -1146.3124233356361401
  @DF-RHF Final Energy: -1146.24714516970744
    Total Energy =                      -1146.2471451697083467
  @DF-RHF Final Energy: -1146.30187111221130
    Total Energy =                      -1146.3018711122110744
  @DF-RHF Final Energy: -1146.31181469258627
    Total Energy =                      -1146.3118146925858127
  @DF-RHF Final Energy: -1146.30115970220004
    Total Energy =                      -1146.3011597021998114
  @DF-RHF Final Energy: -1146.31161674133773
    Total Energy =                      -1146.3116167413372750
  Basis Set: 6-31G*
  Basis Set:
  @DF-RHF Final Energy: -1146.31240012995795
    Total Energy =                      -1146.3124001299574957
  Basis Set: 6-31G*
  Basis Set:
  Basis Set: 6-31G*
  Basis Set:
  @DF-RHF Final Energy: -1146.31242286214774
    Total Energy =                      -1146.3124228621468319
  Basis Set: 6-31G*
  Basis Set:
  Basis Set: 6-31G*
  Basis Set:
  @DF-RHF Final Energy: -1146.31242414342023
    Total Energy =                      -1146.3124241434188662
  Basis Set: 6-31G*
  Basis Set:
  Charge       = 0
  Multiplicity = 1
  Basis Set: 6-31G*
  Basis Set:

    Orbital Energies (a.u.)
    -----------------------

    Doubly Occupied:

       1A   -104.842843     2A    -26.360165     3A    -26.357872
       4A    -26.357536     5A    -26.347014     6A    -26.346636
       7A    -20.650123     8A    -11.527892     9A    -11.490316
      10A    -11.401110    11A    -10.577541    12A     -8.046890
      13A     -8.043374    14A     -8.043246    15A     -1.761073
      16A     -1.718417    17A     -1.658061    18A     -1.655116
      19A     -1.639038    20A     -1.487031    21A     -1.178934
      22A     -1.049914    23A     -0.987720    24A     -0.919881
      25A     -0.858960    26A     -0.852945    27A     -0.845574
      28A     -0.824870    29A     -0.812449    30A     -0.790028
      31A     -0.728840    32A     -0.726465    33A     -0.705181
      34A     -0.701755    35A     -0.679188    36A     -0.673602
      37A     -0.658144    38A     -0.657356    39A     -0.646232
      40A     -0.633416    41A     -0.597548    42A     -0.580064
      43A     -0.523379    44A     -0.476580    45A     -0.467739

  @DF-RHF Final Energy: -1146.31242468272876

   => Energetics <=

    Nuclear Repulsion Energy =            737.4427634158054161
    One-Electron Energy =               -3057.7342591778387941
    Two-Electron Energy =                1173.9790710793035942
    DFT Exchange-Correlation Energy =       0.0000000000000000
    Empirical Dispersion Energy =           0.0000000000000000
    PCM Polarization Energy =               0.0000000000000000
    EFP Energy =                            0.0000000000000000
    Total Energy =                      -1146.3124246827296702
    Molecular point group: c1
  Basis Set: 6-31G*
  Basis Set:

  -Total Gradient:
     Atom            X                  Y                   Z
    ------   -----------------  -----------------  -----------------
       1        0.000007869597     0.000002695763     0.000006695532
       2        0.000004368016    -0.000040266019     0.000060233773
       3       -0.000077009763     0.000038015924    -0.000013203615
       4        0.000012420238    -0.000013397003    -0.000025314548
       5        0.000028999204     0.000021726534    -0.000009521337
       6       -0.002842932363    -0.004166973855     0.001103834817
       7       -0.002447129097    -0.002974707304     0.003593678295
       8        0.000020406958    -0.000024554069     0.000017767668
       9        0.003010942512     0.004239314175    -0.001749617472
      10        0.002284530057     0.002945298516    -0.002909484961
      11       -0.000025710538    -0.000008652791    -0.000003255123
      12        0.000023245211    -0.000018499899    -0.000071813026

  **** Optimization is complete! (in 16 steps) ****
    Final optimized geometry and variables:
    Molecular point group: c1

    Geometry (in Angstrom), charge = 0, multiplicity = 1:

    H           -2.667030079413    -0.621746480541     1.273425666382
    C           -2.090344653880    -0.391434774404     0.399206419841
    O           -0.831677515436    -0.077979958922     0.789678490181
    F           -2.075741355943    -1.432728852469    -0.429888312891
    F           -2.642275594937     0.616989332708    -0.268008060577
    C            0.070824252244     0.286815203913    -0.188597511637
    C            1.343169321731    -0.542141805456    -0.011865261913
    CL           0.445673910303     2.018169757579    -0.077653980416
    H           -0.289596398061     0.130523574885    -1.189858684524
    F            2.092736076812    -0.132051020689     0.981956364881
    F            2.059439278257    -0.463222121596    -1.118461879890
    F            1.029769040986    -1.803446689249     0.182530574258

  Mulliken Charges: (a.u.)
   Center  Symbol    Alpha    Beta     Spin     Total
       1     H     0.40096  0.40096  0.00000  0.19808
       2     C     2.56509  2.56509  0.00000  0.86983
       3     O     4.29617  4.29617  0.00000 -0.59233
       4     F     4.68644  4.68644  0.00000 -0.37289
       5     F     4.68471  4.68471  0.00000 -0.36942
       6     C     3.05213  3.05213  0.00000 -0.10426
       7     C     2.43277  2.43277  0.00000  1.13446
       8    CL     8.49977  8.49977  0.00000  0.00047
       9     H     0.36500  0.36500  0.00000  0.27001
      10     F     4.66676  4.66676  0.00000 -0.33351
      11     F     4.67766  4.67766  0.00000 -0.35532
      12     F     4.67256  4.67256  0.00000 -0.34511

   Total alpha = 45.00000, Total beta = 45.00000, Total charge = -0.00000
