                              Psi4 1.0.54 Driver

  ==> Input File <==

--------------------------------------------------------------------------
set {
	reference rhf
	basis cc-pvtz
}

set_num_threads( 4 )
memory 2 gb

molecule MOL {
0 1

O	 1.938432	 1.127527	 0.574367
C	 1.704209	 0.119472	 -0.000093
C	 0.380337	 -0.600947	 -0.000234
O	 2.599278	 -0.520088	 -0.735097
C	 -0.824290	 0.329213	 -0.000115
H	 0.371455	 -1.255476	 -0.865660
H	 0.371410	 -1.255787	 0.864952
C	 -2.146151	 -0.432825	 -0.000068
H	 -0.773936	 0.979158	 -0.866319
H	 -0.773838	 0.979034	 0.866186
C	 -3.366283	 0.483552	 0.000557
H	 -2.189286	 -1.084450	 -0.869996
H	 -2.188867	 -1.085083	 0.869399
C	 -4.687436	 -0.278003	 0.000108
H	 -3.325150	 1.134819	 -0.867957
H	 -3.325087	 1.133730	 0.869885
H	 -4.773783	 -0.912098	 -0.876078
H	 -5.531922	 0.401392	 0.000363
H	 -4.773901	 -0.912898	 0.875703
C	 3.890793	 0.046877	 -0.823777
H	 3.844725	 1.034243	 -1.258746
H	 4.462378	 -0.612320	 -1.456705
H	 4.346017	 0.113158	 0.153255

	symmetry c1
}
set optking {
	frozen_dihedral = ("
		1 2 3 6
	")
}

ee,wfn = optimize('scf', return_wfn=True)
oeprop( wfn, 'DIPOLE', 'QUADRUPOLE', 'MULLIKEN_CHARGES')
f=open( 'psi4out.xyz', 'w' )
f.write( "23  " )
f.write( str(ee) + "\n" )
f.write( MOL.save_string_xyz() )
f.close()
--------------------------------------------------------------------------

    Molecular point group: c1
  Charge       = 0
  Multiplicity = 1
  Basis Set: CC-PVTZ
  Basis Set:
  @DF-RHF Final Energy:  -423.12991878508325
    Total Energy =                       -423.1299187850833050
    Molecular point group: c1
  Basis Set: CC-PVTZ
  Basis Set:
  Basis Set: CC-PVTZ
  Basis Set:
  @DF-RHF Final Energy:  -423.07656558900277
    Total Energy =                       -423.0765655890030530
  Basis Set: CC-PVTZ
  Basis Set:
  Basis Set: CC-PVTZ
  Basis Set:
  @DF-RHF Final Energy:  -423.12756811009677
    Total Energy =                       -423.1275681100969450
  Basis Set: CC-PVTZ
  Basis Set:
  Basis Set: CC-PVTZ
  Basis Set:
  @DF-RHF Final Energy:  -423.13019651855763
    Total Energy =                       -423.1301965185568861
  Basis Set: CC-PVTZ
  Basis Set:
  @DF-RHF Final Energy:  -423.12972284231870
    Total Energy =                       -423.1297228423180741
  Basis Set: CC-PVTZ
  Basis Set:
  @DF-RHF Final Energy:  -423.13029588564763
    Total Energy =                       -423.1302958856481382
  Basis Set: CC-PVTZ
  Basis Set:
  Basis Set: CC-PVTZ
  Basis Set:
  @DF-RHF Final Energy:  -423.13030757033306
    Total Energy =                       -423.1303075703332297
  Basis Set: CC-PVTZ
  Basis Set:
  Basis Set: CC-PVTZ
  Basis Set:
  @DF-RHF Final Energy:  -423.13030892428282
    Total Energy =                       -423.1303089242834403
  Basis Set: CC-PVTZ
  Basis Set:
  Charge       = 0
  Multiplicity = 1
  Basis Set: CC-PVTZ
  Basis Set:

    Orbital Energies (a.u.)
    -----------------------

    Doubly Occupied:

       1A    -20.597913     2A    -20.532325     3A    -11.364460
       4A    -11.278541     5A    -11.233123     6A    -11.219554
       7A    -11.216578     8A    -11.215174     9A    -11.208189
      10A     -1.472565    11A     -1.365081    12A     -1.095027
      13A     -1.044714    14A     -0.988025    15A     -0.933494
      16A     -0.844646    17A     -0.796158    18A     -0.771238
      19A     -0.698401    20A     -0.685592    21A     -0.675251
      22A     -0.653626    23A     -0.609105    24A     -0.600274
      25A     -0.574533    26A     -0.567174    27A     -0.551000
      28A     -0.526909    29A     -0.524550    30A     -0.507353
      31A     -0.484901    32A     -0.471973    33A     -0.467164
      34A     -0.463965    35A     -0.459455    36A     -0.436170

  @DF-RHF Final Energy:  -423.13030906415753

   => Energetics <=

    Nuclear Repulsion Energy =            452.9741505431264272
    One-Electron Energy =               -1473.9405164548627454
    Two-Electron Energy =                 597.8360568475786749
    DFT Exchange-Correlation Energy =       0.0000000000000000
    Empirical Dispersion Energy =           0.0000000000000000
    PCM Polarization Energy =               0.0000000000000000
    EFP Energy =                            0.0000000000000000
    Total Energy =                       -423.1303090641577000
    Molecular point group: c1
  Basis Set: CC-PVTZ
  Basis Set:

  -Total Gradient:
     Atom            X                  Y                   Z
    ------   -----------------  -----------------  -----------------
       1        0.000237605658    -0.000850972763     0.000634795721
       2       -0.000271366983     0.001011111043    -0.000861637495
       3       -0.000310662953     0.000776303018    -0.000059696831
       4        0.000037622083     0.000012452309     0.000008294664
       5       -0.000011532330    -0.000011212337    -0.000010037448
       6        0.000343546868    -0.000930274394     0.000291313571
       7       -0.000001926624     0.000000324799    -0.000001743532
       8       -0.000003286638     0.000013674803     0.000009176904
       9        0.000000560341     0.000005747464     0.000000498789
      10        0.000003764975    -0.000006146415    -0.000000918072
      11       -0.000001064595    -0.000012767901    -0.000007621226
      12        0.000001882778    -0.000002526761    -0.000000658327
      13       -0.000002506035    -0.000001531399     0.000002308153
      14        0.000001425380     0.000010217488     0.000003163095
      15        0.000001648512     0.000002908932    -0.000000355539
      16       -0.000001766978    -0.000000202191     0.000000972294
      17        0.000000958283    -0.000000347288    -0.000000461296
      18        0.000001010083    -0.000002731980    -0.000000863748
      19        0.000000134181    -0.000002361601     0.000000410542
      20       -0.000021375058    -0.000011823028    -0.000017064476
      21        0.000000077784     0.000000237235     0.000002251532
      22       -0.000006405609     0.000000182589     0.000004171339
      23        0.000001656883    -0.000000261620     0.000003701387

  **** Optimization is complete! (in 9 steps) ****
    Final optimized geometry and variables:
    Molecular point group: c1

    Geometry (in Angstrom), charge = 0, multiplicity = 1:

    O            1.968424280192     0.673428326483     0.984942222851
    C            1.713569355190    -0.060165898174     0.090780379952
    C            0.349548687687    -0.643243068368    -0.180989044050
    O            2.620095471712    -0.496178846363    -0.766898135805
    C           -0.791156344276     0.308820382215     0.162082531325
    H            0.305339962532    -0.972005712990    -1.210391299032
    H            0.282723712015    -1.539046343266     0.431175597729
    C           -2.162249110674    -0.325810184987    -0.048985547164
    H           -0.706699103285     1.202643019387    -0.449067835768
    H           -0.684917392219     0.630829117947     1.190290939344
    C           -3.316048748192     0.616691877808     0.280911777113
    H           -2.255111857126    -0.657413618418    -1.080646297139
    H           -2.243518575377    -1.219384914990     0.565778062469
    C           -4.686443992319    -0.019462372215     0.074272868769
    H           -3.236712000998     1.508989232698    -0.333831249412
    H           -3.223738962457     0.948197320888     1.311237608409
    H           -4.822323621802    -0.331119093958    -0.956092005915
    H           -5.482084365050     0.675452097952     0.316678033128
    H           -4.810161826514    -0.895513782825     0.702270521204
    C            3.953122528634    -0.066956538509    -0.574331813188
    H            4.020090819248     1.008710100958    -0.640334015258
    H            4.529682644191    -0.525319858217    -1.361297580572
    H            4.319949381859    -0.384300085957     0.390532100456

  Mulliken Charges: (a.u.)
   Center  Symbol    Alpha    Beta     Spin     Total
       1     O     4.20074  4.20074  0.00000 -0.40148
       2     C     2.81448  2.81448  0.00000  0.37104
       3     C     3.08925  3.08925  0.00000 -0.17850
       4     O     4.14399  4.14399  0.00000 -0.28797
       5     C     3.08951  3.08951  0.00000 -0.17902
       6     H     0.43785  0.43785  0.00000  0.12431
       7     H     0.44518  0.44518  0.00000  0.10965
       8     C     3.08987  3.08987  0.00000 -0.17974
       9     H     0.45143  0.45143  0.00000  0.09714
      10     H     0.43942  0.43942  0.00000  0.12117
      11     C     3.08405  3.08405  0.00000 -0.16810
      12     H     0.45547  0.45547  0.00000  0.08907
      13     H     0.45474  0.45474  0.00000  0.09052
      14     C     3.15037  3.15037  0.00000 -0.30074
      15     H     0.45384  0.45384  0.00000  0.09233
      16     H     0.45266  0.45266  0.00000  0.09468
      17     H     0.45538  0.45538  0.00000  0.08923
      18     H     0.44770  0.44770  0.00000  0.10460
      19     H     0.45503  0.45503  0.00000  0.08994
      20     C     3.03547  3.03547  0.00000 -0.07093
      21     H     0.45421  0.45421  0.00000  0.09159
      22     H     0.44504  0.44504  0.00000  0.10992
      23     H     0.45435  0.45435  0.00000  0.09129

   Total alpha = 36.00000, Total beta = 36.00000, Total charge = -0.00000

*** Psi4 exiting successfully. Buy a developer a beer!
