  ==> Input File <==

--------------------------------------------------------------------------
set {
	reference rhf
	basis 6-31G*
}

set_num_threads( 4 )
memory 2 gb

molecule MOL {
0 1

O	 -0.953325	 -1.420362	 -0.415468
C	 -0.666279	 -0.263873	 -0.257859
C	 -1.751795	 0.796185	 -0.253586
N	 0.623947	 0.147590	 -0.102813
H	 -1.595133	 1.528681	 -1.037798
H	 -2.692958	 0.294728	 -0.420321
H	 -1.792510	 1.321619	 0.694487
C	 1.665360	 -0.855771	 0.000151
C	 1.005004	 1.480292	 0.310644
H	 2.465253	 -0.618490	 -0.692587
H	 1.257730	 -1.821716	 -0.242189
H	 2.081488	 -0.891645	 1.004627
H	 1.956671	 1.733024	 -0.141567
H	 0.285583	 2.216604	 -0.010622
H	 1.116870	 1.554166	 1.390848

	symmetry c1
}
set optking {
	frozen_dihedral = ("
		2 4 8 10
	")
}

ee = optimize('scf')
oeprop('DIPOLE', 'QUADRUPOLE', 'MULLIKEN_CHARGES')
f=open( 'psi4out.xyz', 'w' )
f.write( "15  " )
f.write( str(ee) + "\n" )
f.write( MOL.save_string_xyz() )
f.close()
--------------------------------------------------------------------------

    Molecular point group: c1
  Charge       = 0
  Multiplicity = 1
  Basis Set: 6-31G*
  Basis Set:
  @DF-RHF Final Energy:  -286.02961780996219
    Total Energy =                       -286.0296178099620192
    Molecular point group: c1
  Basis Set: 6-31G*
  Basis Set:
  Basis Set: 6-31G*
  Basis Set:
  @DF-RHF Final Energy:  -286.02970837394184
    Total Energy =                       -286.0297083739418440
  Basis Set: 6-31G*
  Basis Set:
  Basis Set: 6-31G*
  Basis Set:
  @DF-RHF Final Energy:  -286.02964850023869
    Total Energy =                       -286.0296485002385225
  Basis Set: 6-31G*
  Basis Set:
  Basis Set: 6-31G*
  Basis Set:
  @DF-RHF Final Energy:  -286.02975590442543
    Total Energy =                       -286.0297559044257127
  Basis Set: 6-31G*
  Basis Set:
  @DF-RHF Final Energy:  -286.02976136162800
    Total Energy =                       -286.0297613616279477
  @DF-RHF Final Energy:  -286.02976375204605
    Total Energy =                       -286.0297637520460512
  Basis Set: 6-31G*
  Basis Set:
  @DF-RHF Final Energy:  -286.02976511949078
    Total Energy =                       -286.0297651194907189
  Basis Set: 6-31G*
  Basis Set:
  Basis Set: 6-31G*
  Basis Set:
  @DF-RHF Final Energy:  -286.02976686655256
    Total Energy =                       -286.0297668665523361
  Basis Set: 6-31G*
  Basis Set:
  Basis Set: 6-31G*
  Basis Set:
  @DF-RHF Final Energy:  -286.02976813917542
    Total Energy =                       -286.0297681391752462
  Basis Set: 6-31G*
  Basis Set:
  Charge       = 0
  Multiplicity = 1
  Basis Set: 6-31G*
  Basis Set:

    Orbital Energies (a.u.)
    -----------------------

    Doubly Occupied:

       1A    -20.512856     2A    -15.584388     3A    -11.341874
       4A    -11.266599     5A    -11.247716     6A    -11.228227
       7A     -1.383235     8A     -1.243954     9A     -1.014203
      10A     -0.972929    11A     -0.919958    12A     -0.738280
      13A     -0.681167    14A     -0.659469    15A     -0.651310
      16A     -0.589688    17A     -0.575721    18A     -0.566798
      19A     -0.561396    20A     -0.547275    21A     -0.529647
      22A     -0.504051    23A     -0.409240    24A     -0.365631

  @DF-RHF Final Energy:  -286.02976824307314

   => Energetics <=

    Nuclear Repulsion Energy =            252.2779879258738447
    One-Electron Energy =                -888.4242935171791942
    Two-Electron Energy =                 350.1165373482321002
    DFT Exchange-Correlation Energy =       0.0000000000000000
    Empirical Dispersion Energy =           0.0000000000000000
    PCM Polarization Energy =               0.0000000000000000
    EFP Energy =                            0.0000000000000000
    Total Energy =                       -286.0297682430732493
    Molecular point group: c1
  Basis Set: 6-31G*
  Basis Set:

  -Total Gradient:
     Atom            X                  Y                   Z
    ------   -----------------  -----------------  -----------------
       1        0.000034769399     0.000013177458     0.000007534383
       2        0.000010080049    -0.000004606266    -0.000213334528
       3       -0.000010739033     0.000004884476     0.000059903620
       4       -0.000065987230    -0.000052517027     0.000221301869
       5        0.000018937968    -0.000001365661    -0.000008419918
       6        0.000004864799     0.000000803521    -0.000003788493
       7       -0.000020083903     0.000006475484    -0.000012186409
       8        0.000119448155     0.000146466644     0.000126385727
       9        0.000000410619     0.000001479584    -0.000003437860
      10       -0.000088419277    -0.000108679033    -0.000158818394
      11       -0.000003502023    -0.000008258254    -0.000004099234
      12       -0.000005801137     0.000003285755    -0.000004294976
      13        0.000003170233     0.000002877717    -0.000001855946
      14        0.000003214334     0.000003017473    -0.000004613014
      15       -0.000000362954    -0.000007041869    -0.000000276828

  **** Optimization is complete! (in 10 steps) ****
    Final optimized geometry and variables:
    Molecular point group: c1

    Geometry (in Angstrom), charge = 0, multiplicity = 1:

    O           -0.951634489543    -1.399614708632    -0.338339660970
    C           -0.663903612915    -0.247979576551    -0.147199392972
    C           -1.748026184185     0.813932893176    -0.139775050172
    N            0.621351778475     0.155363487675     0.051791023241
    H           -1.592097166019     1.545006996040    -0.925702526387
    H           -2.689546738937     0.313192099712    -0.306315417273
    H           -1.787444577866     1.340654623706     0.807412487457
    C            1.672223353703    -0.839305191112     0.130450832696
    C            1.017021958856     1.497045960522     0.417077694785
    H            2.487989546070    -0.569017240274    -0.532710275891
    H            1.279428574959    -1.797479666529    -0.161215214075
    H            2.063323714858    -0.908162501574     1.142677539350
    H            1.939236461357     1.749565415267    -0.094203951236
    H            0.274695708548     2.224289139208     0.130496781869
    H            1.192316826322     1.585861675457     1.487281060122

  Mulliken Charges: (a.u.)
   Center  Symbol    Alpha    Beta     Spin     Total
       1     O     4.30576  4.30576  0.00000 -0.61152
       2     C     2.62265  2.62265  0.00000  0.75469
       3     C     3.29899  3.29899  0.00000 -0.59797
       4     N     3.82456  3.82456  0.00000 -0.64911
       5     H     0.40676  0.40676  0.00000  0.18648
       6     H     0.39025  0.39025  0.00000  0.21950
       7     H     0.40795  0.40795  0.00000  0.18409
       8     C     3.14660  3.14660  0.00000 -0.29319
       9     C     3.14113  3.14113  0.00000 -0.28226
      10     H     0.41872  0.41872  0.00000  0.16257
      11     H     0.38227  0.38227  0.00000  0.23546
      12     H     0.42022  0.42022  0.00000  0.15957
      13     H     0.41129  0.41129  0.00000  0.17742
      14     H     0.40696  0.40696  0.00000  0.18609
      15     H     0.41591  0.41591  0.00000  0.16818

   Total alpha = 24.00000, Total beta = 24.00000, Total charge =  0.00000
