  ==> Input File <==

--------------------------------------------------------------------------
set {
	reference rhf
	basis 6-31G*
}

set_num_threads( 4 )
memory 2 gb

molecule MOL {
0 1

O	 -1.276010	 1.052711	 -0.768302
C	 -1.204840	 0.067374	 -0.106123
C	 -2.388195	 -0.672128	 0.458071
O	 -0.067104	 -0.527208	 0.221609
H	 -2.388023	 -1.694060	 0.097175
H	 -3.300579	 -0.174919	 0.164318
H	 -2.315377	 -0.706351	 1.539059
C	 1.170111	 0.034140	 -0.238951
C	 2.079444	 0.091971	 0.975692
C	 0.915759	 1.399642	 -0.858106
H	 1.580896	 -0.633228	 -0.982176
H	 2.221630	 -0.897572	 1.395018
H	 3.050095	 0.489077	 0.697348
H	 1.654558	 0.730543	 1.742732
H	 1.851382	 1.839909	 -1.187941
H	 0.260928	 1.316211	 -1.716134
H	 0.461356	 2.066397	 -0.132183

	symmetry c1
}
set optking {
	frozen_dihedral = ("
		11 8 4 2
	")
}

ee = optimize('scf')
oeprop('DIPOLE', 'QUADRUPOLE', 'MULLIKEN_CHARGES')
f=open( 'psi4out.xyz', 'w' )
f.write( "17  " )
f.write( str(ee) + "\n" )
f.write( MOL.save_string_xyz() )
f.close()
--------------------------------------------------------------------------

    Molecular point group: c1
  Charge       = 0
  Multiplicity = 1
  Basis Set: 6-31G*
  Basis Set:
  @DF-RHF Final Energy:  -344.86912694372762
    Total Energy =                       -344.8691269437273945
    Molecular point group: c1
  Basis Set: 6-31G*
  Basis Set:
  Basis Set: 6-31G*
  Basis Set:
  @DF-RHF Final Energy:  -344.89523315443199
    Total Energy =                       -344.8952331544317076
  Basis Set: 6-31G*
  Basis Set:
  Basis Set: 6-31G*
  Basis Set:
  @DF-RHF Final Energy:  -344.90074120336169
    Total Energy =                       -344.9007412033615765
  Basis Set: 6-31G*
  Basis Set:
  Basis Set: 6-31G*
  Basis Set:
  @DF-RHF Final Energy:  -344.89771285457886
    Total Energy =                       -344.8977128545787423
  Basis Set: 6-31G*
  Basis Set:
  @DF-RHF Final Energy:  -344.90302089552313
    Total Energy =                       -344.9030208955232979
  Basis Set: 6-31G*
  Basis Set:
  @DF-RHF Final Energy:  -344.90326058123958
    Total Energy =                       -344.9032605812391239
  Basis Set: 6-31G*
  Basis Set:
  Basis Set: 6-31G*
  Basis Set:
  @DF-RHF Final Energy:  -344.90327081832783
    Total Energy =                       -344.9032708183277691
  Basis Set: 6-31G*
  Basis Set:
  Basis Set: 6-31G*
  Basis Set:
  @DF-RHF Final Energy:  -344.90327667321412
    Total Energy =                       -344.9032766732141226
  Basis Set: 6-31G*
  Basis Set:
  Charge       = 0
  Multiplicity = 1
  Basis Set: 6-31G*
  Basis Set:

    Orbital Energies (a.u.)
    -----------------------

    Doubly Occupied:

       1A    -20.596281     2A    -20.538867     3A    -11.375131
       4A    -11.297678     5A    -11.229333     6A    -11.219970
       7A    -11.212791     8A     -1.458197     9A     -1.361039
      10A     -1.080529    11A     -1.002015    12A     -0.945923
      13A     -0.863017    14A     -0.743137    15A     -0.686223
      16A     -0.678999    17A     -0.655796    18A     -0.612752
      19A     -0.585127    20A     -0.579211    21A     -0.558614
      22A     -0.547467    23A     -0.539456    24A     -0.515281
      25A     -0.505240    26A     -0.484507    27A     -0.438323
      28A     -0.427576

  @DF-RHF Final Energy:  -344.90327779690460

   => Energetics <=

    Nuclear Repulsion Energy =            323.3391993460986669
    One-Electron Energy =               -1111.0079957940470194
    Two-Electron Energy =                 442.7655186510440330
    DFT Exchange-Correlation Energy =       0.0000000000000000
    Empirical Dispersion Energy =           0.0000000000000000
    PCM Polarization Energy =               0.0000000000000000
    EFP Energy =                            0.0000000000000000
    Total Energy =                       -344.9032777969043195
    Molecular point group: c1
  Basis Set: 6-31G*
  Basis Set:

  -Total Gradient:
     Atom            X                  Y                   Z
    ------   -----------------  -----------------  -----------------
       1       -0.000024682083     0.000051345588    -0.000057348058
       2        0.000116985050     0.001365578466     0.002050349081
       3       -0.000003941757     0.000012095718     0.000016230901
       4        0.000203794646    -0.002394687946    -0.002822194642
       5       -0.000006633074    -0.000008967540    -0.000003643946
       6        0.000000931289    -0.000007677463     0.000002205989
       7       -0.000003048568    -0.000008561886    -0.000001260073
       8       -0.001314480077     0.002250791628    -0.001001146434
       9       -0.000024824484    -0.000024272464     0.000011931417
      10       -0.000033724953     0.000022677828     0.000005450218
      11        0.001086802787    -0.001230385222     0.001817454454
      12        0.000012712647    -0.000005534531     0.000019878813
      13       -0.000018136275    -0.000007253514    -0.000007331023
      14        0.000004221635    -0.000004361006    -0.000009486162
      15        0.000016475420     0.000007026966    -0.000002531518
      16       -0.000017942431    -0.000010929630    -0.000034601228
      17        0.000005490228    -0.000006884992     0.000016042212

  **** Optimization is complete! (in 9 steps) ****
    Final optimized geometry and variables:
    Molecular point group: c1

    Geometry (in Angstrom), charge = 0, multiplicity = 1:

    O           -1.424393738080     0.730580967225    -0.797998849654
    C           -1.171153611485    -0.181410101366    -0.080491288144
    C           -2.213477305614    -0.998589681159     0.640468701185
    O            0.038311765376    -0.642315104012     0.197488708991
    H           -2.129485752224    -2.039120361943     0.348997124601
    H           -3.196995756991    -0.624494871408     0.397977309004
    H           -2.047850837835    -0.943569629093     1.710194544950
    C            1.306537803744    -0.092347595195    -0.207691644110
    C            2.174185209693    -0.151519308386     1.042178819427
    C            1.294699948210     1.302097403365    -0.819796344921
    H            1.696766518046    -0.801172541608    -0.928060646536
    H            2.163819758340    -1.148581464568     1.466261228606
    H            3.199423663415     0.109924266986     0.801960737920
    H            1.808954644278     0.543329815204     1.791489891203
    H            2.327822692971     1.580835062480    -1.006230672511
    H            0.751861638121     1.341604292881    -1.750528160854
    H            0.863887584505     2.030288117448    -0.144005969166

  Mulliken Charges: (a.u.)
   Center  Symbol    Alpha    Beta     Spin     Total
       1     O     4.28249  4.28249  0.00000 -0.56497
       2     C     2.61878  2.61878  0.00000  0.76245
       3     C     3.27995  3.27995  0.00000 -0.55990
       4     O     4.32274  4.32274  0.00000 -0.64548
       5     H     0.40160  0.40160  0.00000  0.19679
       6     H     0.39846  0.39846  0.00000  0.20307
       7     H     0.40260  0.40260  0.00000  0.19480
       8     C     2.91383  2.91383  0.00000  0.17233
       9     C     3.24197  3.24197  0.00000 -0.48394
      10     C     3.24869  3.24869  0.00000 -0.49739
      11     H     0.41342  0.41342  0.00000  0.17315
      12     H     0.41032  0.41032  0.00000  0.17936
      13     H     0.41862  0.41862  0.00000  0.16276
      14     H     0.41609  0.41609  0.00000  0.16783
      15     H     0.42209  0.42209  0.00000  0.15582
      16     H     0.39640  0.39640  0.00000  0.20721
      17     H     0.41195  0.41195  0.00000  0.17610

   Total alpha = 28.00000, Total beta = 28.00000, Total charge = -0.00000
