                              Psi4 1.0.54 Driver

  ==> Input File <==

--------------------------------------------------------------------------
set {
	reference rhf
	basis cc-pvtz
}

set_num_threads( 4 )
memory 2 gb

molecule MOL {
0 1

H	 0.482112	 3.214670	 0.978152
C	 0.349048	 2.418466	 1.723295
C	 -0.948986	 1.664576	 1.620104
O	 1.188958	 2.217425	 2.530414
C	 -1.216901	 1.136108	 0.207794
H	 -0.942446	 0.865919	 2.350473
H	 -1.736137	 2.363028	 1.895535
C	 -0.247837	 0.040196	 -0.230469
H	 -2.231870	 0.755557	 0.170946
H	 -1.178476	 1.961725	 -0.498657
C	 1.181757	 0.280428	 0.247371
H	 -0.259600	 -0.030819	 -1.314870
H	 -0.591284	 -0.923375	 0.136958
C	 2.151032	 -0.811012	 -0.202643
H	 1.515939	 1.247397	 -0.115449
H	 1.191514	 0.341223	 1.333422
C	 3.580021	 -0.656538	 0.320835
H	 2.170545	 -0.847575	 -1.289412
H	 1.766632	 -1.772905	 0.124928
C	 4.327657	 0.562694	 -0.213579
H	 4.138806	 -1.549270	 0.057813
H	 3.561991	 -0.620783	 1.406976
H	 4.355973	 0.557257	 -1.298551
H	 3.867136	 1.491650	 0.100501
H	 5.351524	 0.571613	 0.142204

	symmetry c1
}
set optking {
	frozen_dihedral = ("
		3 5 8 12
	")
}

ee,wfn = optimize('scf', return_wfn=True)
oeprop( wfn, 'DIPOLE', 'QUADRUPOLE', 'MULLIKEN_CHARGES')
f=open( 'psi4out.xyz', 'w' )
f.write( "25  " )
f.write( str(ee) + "\n" )
f.write( MOL.save_string_xyz() )
f.close()
--------------------------------------------------------------------------

    Molecular point group: c1
  Charge       = 0
  Multiplicity = 1
  Basis Set: CC-PVTZ
  Basis Set:
  @DF-RHF Final Energy:  -387.24547798550060
    Total Energy =                       -387.2454779855007700
    Molecular point group: c1
  Basis Set: CC-PVTZ
  Basis Set:
  Basis Set: CC-PVTZ
  Basis Set:
  @DF-RHF Final Energy:  -387.25136702884913
    Total Energy =                       -387.2513670288490175
  Basis Set: CC-PVTZ
  Basis Set:
  Basis Set: CC-PVTZ
  Basis Set:
  @DF-RHF Final Energy:  -387.25200983307218
    Total Energy =                       -387.2520098330719520
  Basis Set: CC-PVTZ
  Basis Set:
  Basis Set: CC-PVTZ
  Basis Set:
  @DF-RHF Final Energy:  -387.25336934365350
    Total Energy =                       -387.2533693436538442
  Basis Set: CC-PVTZ
  Basis Set:
  @DF-RHF Final Energy:  -387.25437323870773
    Total Energy =                       -387.2543732387076716
  @DF-RHF Final Energy:  -387.25458147757701
    Total Energy =                       -387.2545814775771760
  @DF-RHF Final Energy:  -387.25471432214340
    Total Energy =                       -387.2547143221438546
  @DF-RHF Final Energy:  -387.25475911384052
    Total Energy =                       -387.2547591138401231
  Basis Set: CC-PVTZ
  Basis Set:
  @DF-RHF Final Energy:  -387.25476826720865
    Total Energy =                       -387.2547682672085330
  Basis Set: CC-PVTZ
  Basis Set:
  Basis Set: CC-PVTZ
  Basis Set:
  @DF-RHF Final Energy:  -387.25476965591196
    Total Energy =                       -387.2547696559117867
  Basis Set: CC-PVTZ
  Basis Set:
  Basis Set: CC-PVTZ
  Basis Set:
  @DF-RHF Final Energy:  -387.25477066757645
    Total Energy =                       -387.2547706675766221
  Basis Set: CC-PVTZ
  Basis Set:
  Charge       = 0
  Multiplicity = 1
  Basis Set: CC-PVTZ
  Basis Set:

    Orbital Energies (a.u.)
    -----------------------

    Doubly Occupied:

       1A    -20.550301     2A    -11.321685     3A    -11.234496
       4A    -11.233126     5A    -11.221707     6A    -11.214549
       7A    -11.213313     8A    -11.212290     9A    -11.204277
      10A     -1.406350    11A     -1.103020    12A     -1.067086
      13A     -1.010060    14A     -0.945191    15A     -0.881123
      16A     -0.812762    17A     -0.788248    18A     -0.778072
      19A     -0.665880    20A     -0.658975    21A     -0.636663
      22A     -0.627229    23A     -0.608291    24A     -0.590956
      25A     -0.562238    26A     -0.557286    27A     -0.540108
      28A     -0.528159    29A     -0.508314    30A     -0.502916
      31A     -0.481217    32A     -0.471284    33A     -0.460755
      34A     -0.453849    35A     -0.443548    36A     -0.411684

  @DF-RHF Final Energy:  -387.25477137243951

   => Energetics <=

    Nuclear Repulsion Energy =            457.3513232020112014
    One-Electron Energy =               -1431.3981752954264266
    Two-Electron Energy =                 586.7920807209754912
    DFT Exchange-Correlation Energy =       0.0000000000000000
    Empirical Dispersion Energy =           0.0000000000000000
    PCM Polarization Energy =               0.0000000000000000
    EFP Energy =                            0.0000000000000000
    Total Energy =                       -387.2547713724397909
    Molecular point group: c1
  Basis Set: CC-PVTZ
  Basis Set:

  -Total Gradient:
     Atom            X                  Y                   Z
    ------   -----------------  -----------------  -----------------
       1       -0.000058470269     0.000076087044     0.000011724485
       2        0.000041485118     0.000041502553     0.000185294343
       3        0.002594459844     0.002982169545    -0.001584496963
       4       -0.000045780760    -0.000123047646    -0.000199555404
       5       -0.002744801120    -0.003498367857     0.002211205435
       6       -0.000033094752     0.000017241653     0.000021019820
       7       -0.000026193292    -0.000012409517    -0.000054325036
       8       -0.003664882007    -0.003205674663    -0.000366141293
       9        0.000021053323    -0.000007115863    -0.000023443910
      10       -0.000011976186     0.000025813830     0.000038395808
      11       -0.000010878238     0.000044400436     0.000007962869
      12        0.003882171329     0.003731015169    -0.000224570901
      13        0.000017074218    -0.000002125983    -0.000068052120
      14        0.000024410848    -0.000045231344    -0.000006647046
      15       -0.000012008362    -0.000017543923     0.000005725766
      16        0.000019873515    -0.000010068611     0.000024167453
      17        0.000013502260    -0.000023454211     0.000010899606
      18       -0.000010321628     0.000001454060     0.000024117452
      19        0.000015381413     0.000015294458     0.000000668638
      20       -0.000009931185     0.000012546581    -0.000011437552
      21       -0.000002919549     0.000011136235     0.000001830937
      22        0.000000298369    -0.000007810597    -0.000013002775
      23        0.000003659603     0.000001998075     0.000018959630
      24        0.000010926268    -0.000007414450    -0.000008770718
      25       -0.000013038761    -0.000000394970    -0.000001528519

  **** Optimization is complete! (in 12 steps) ****
    Final optimized geometry and variables:
    Molecular point group: c1

    Geometry (in Angstrom), charge = 0, multiplicity = 1:

    H           -1.094800903182     2.617679714408     0.276756017121
    C           -1.105273591393     1.879194618201     1.089698856903
    C           -2.166073983228     0.817729922071     0.968625511943
    O           -0.346250817068     1.978089023010     1.990065540986
    C           -2.320479511685     0.217399773428    -0.434444842974
    H           -1.993662187959     0.065153200401     1.727288862739
    H           -3.096228717022     1.322419782575     1.224678294315
    C           -1.303706738229    -0.860534872920    -0.843736193473
    H           -3.316524985545    -0.198643843182    -0.523965267012
    H           -2.278721136157     1.033310437287    -1.152453309278
    C            0.145203241030    -0.613778686918    -0.420001244088
    H           -1.309400265412    -0.920852669995    -1.927818637332
    H           -1.623939730453    -1.825321158614    -0.463233446123
    C            1.092634602813    -1.683319383985    -0.961923373003
    H            0.460711478467     0.363683683563    -0.772883855176
    H            0.224616678241    -0.590163871730     0.661612267817
    C            2.540792146665    -1.556563466778    -0.486129076349
    H            1.070250881139    -1.666631378895    -2.049259579934
    H            0.718139056119    -2.659880517821    -0.666899393857
    C            3.261539326419    -0.298160388833    -0.963415794939
    H            3.090994702489    -2.426216150919    -0.832196400519
    H            2.565351054347    -1.594523734505     0.599393390584
    H            3.238110427520    -0.222115118407    -2.046092854213
    H            2.817055143195     0.601949857108    -0.556773472078
    H            4.301150209635    -0.312643109827    -0.657147793861

  Mulliken Charges: (a.u.)
   Center  Symbol    Alpha    Beta     Spin     Total
       1     H     0.46220  0.46220  0.00000  0.07560
       2     C     2.90035  2.90035  0.00000  0.19930
       3     C     3.09756  3.09756  0.00000 -0.19512
       4     O     4.17000  4.17000  0.00000 -0.34001
       5     C     3.11806  3.11806  0.00000 -0.23613
       6     H     0.43934  0.43934  0.00000  0.12132
       7     H     0.43644  0.43644  0.00000  0.12712
       8     C     3.08826  3.08826  0.00000 -0.17651
       9     H     0.43906  0.43906  0.00000  0.12188
      10     H     0.45111  0.45111  0.00000  0.09778
      11     C     3.11056  3.11056  0.00000 -0.22111
      12     H     0.44922  0.44922  0.00000  0.10156
      13     H     0.44839  0.44839  0.00000  0.10321
      14     C     3.09763  3.09763  0.00000 -0.19527
      15     H     0.45073  0.45073  0.00000  0.09855
      16     H     0.43991  0.43991  0.00000  0.12018
      17     C     3.08969  3.08969  0.00000 -0.17937
      18     H     0.45369  0.45369  0.00000  0.09262
      19     H     0.44962  0.44962  0.00000  0.10075
      20     C     3.15419  3.15419  0.00000 -0.30837
      21     H     0.44900  0.44900  0.00000  0.10200
      22     H     0.45265  0.45265  0.00000  0.09471
      23     H     0.45637  0.45637  0.00000  0.08726
      24     H     0.45014  0.45014  0.00000  0.09971
      25     H     0.44582  0.44582  0.00000  0.10835

   Total alpha = 36.00000, Total beta = 36.00000, Total charge =  0.00000

*** Psi4 exiting successfully. Buy a developer a beer!
