  ==> Input File <==

--------------------------------------------------------------------------
set {
	reference rhf
	basis cc-pvtz
}

set_num_threads( 4 )
memory 2 gb

molecule MOL {
0 1

H	 1.573560	 -1.534536	 -0.316212
O	 1.675515	 -0.612943	 -0.465627
C	 1.135873	 0.113391	 0.608264
C	 0.027642	 1.012027	 0.090274
H	 1.902972	 0.727968	 1.072615
H	 0.756163	 -0.561896	 1.370018
C	 -1.138737	 0.285728	 -0.581921
H	 0.464661	 1.708096	 -0.618252
H	 -0.340737	 1.603071	 0.925246
C	 -1.933983	 -0.631436	 0.343653
H	 -0.763151	 -0.285569	 -1.422081
H	 -1.808359	 1.035291	 -0.992333
H	 -2.789188	 -1.049673	 -0.174718
H	 -1.335629	 -1.461368	 0.700418
H	 -2.305435	 -0.092167	 1.209725

	symmetry c1
}
set optking {
	frozen_dihedral = ("
		1 2 3 4
	")
}

ee = optimize('scf')
oeprop('DIPOLE', 'QUADRUPOLE', 'MULLIKEN_CHARGES')
f=open( 'psi4out.xyz', 'w' )
f.write( "15  " )
f.write( str(ee) + "\n" )
f.write( MOL.save_string_xyz() )
f.close()
--------------------------------------------------------------------------

    Molecular point group: c1
  Charge       = 0
  Multiplicity = 1
  Basis Set: CC-PVTZ
  Basis Set:
  @DF-RHF Final Energy:  -232.23542906792861
    Total Energy =                       -232.2354290679288624
    Molecular point group: c1
  Basis Set: CC-PVTZ
  Basis Set:
  Basis Set: CC-PVTZ
  Basis Set:
  @DF-RHF Final Energy:  -232.23580825886842
    Total Energy =                       -232.2358082588684169
  Basis Set: CC-PVTZ
  Basis Set:
  Basis Set: CC-PVTZ
  Basis Set:
  @DF-RHF Final Energy:  -232.23592340423136
    Total Energy =                       -232.2359234042313574
  Basis Set: CC-PVTZ
  Basis Set:
  Basis Set: CC-PVTZ
  Basis Set:
  @DF-RHF Final Energy:  -232.23591798761868
    Total Energy =                       -232.2359179876186772
  Basis Set: CC-PVTZ
  Basis Set:
  Charge       = 0
  Multiplicity = 1
  Basis Set: CC-PVTZ
  Basis Set:

    Orbital Energies (a.u.)
    -----------------------

    Doubly Occupied:

       1A    -20.545516     2A    -11.265761     3A    -11.211895
       4A    -11.210840     5A    -11.208809     6A     -1.362817
       7A     -1.067713     8A     -0.974372     9A     -0.874024
      10A     -0.779637    11A     -0.706926    12A     -0.646696
      13A     -0.610742    14A     -0.583511    15A     -0.564755
      16A     -0.539644    17A     -0.507092    18A     -0.486551
      19A     -0.471645    20A     -0.456531    21A     -0.429035

  @DF-RHF Final Energy:  -232.23592674313787

   => Energetics <=

    Nuclear Repulsion Energy =            191.4461157223909993
    One-Electron Energy =                -694.3550578375190980
    Two-Electron Energy =                 270.6730153719902319
    DFT Exchange-Correlation Energy =       0.0000000000000000
    Empirical Dispersion Energy =           0.0000000000000000
    PCM Polarization Energy =               0.0000000000000000
    EFP Energy =                            0.0000000000000000
    Total Energy =                       -232.2359267431378385
    Molecular point group: c1
  Basis Set: CC-PVTZ
  Basis Set:

  -Total Gradient:
     Atom            X                  Y                   Z
    ------   -----------------  -----------------  -----------------
       1       -0.000169891891    -0.000005388824    -0.000105906255
       2        0.000139010062    -0.000043417128     0.000177312536
       3        0.000121565107     0.000169961197    -0.000104121523
       4       -0.000072142990    -0.000114994282     0.000032336738
       5        0.000005850378     0.000012252639     0.000025135797
       6       -0.000000209391    -0.000012727447    -0.000015295130
       7       -0.000016917910     0.000016563656    -0.000005001416
       8        0.000001867980    -0.000017469876     0.000007412464
       9       -0.000003681287     0.000002168088     0.000002357472
      10       -0.000009836376     0.000010868525     0.000006692169
      11        0.000006088691    -0.000000880356    -0.000011266618
      12       -0.000005088263    -0.000015618479    -0.000001812999
      13       -0.000004403378     0.000000773724    -0.000002425032
      14        0.000005868257     0.000005624299    -0.000005206930
      15        0.000001921005    -0.000007715737    -0.000000211275

  **** Optimization is complete! (in 5 steps) ****
    Final optimized geometry and variables:
    Molecular point group: c1

    Geometry (in Angstrom), charge = 0, multiplicity = 1:

    H            1.675870290263    -1.510626576480    -0.355791030345
    O            1.753831515757    -0.583344260629    -0.468127386010
    C            1.140819370021     0.101971736340     0.597466533242
    C            0.022074372458     1.001783816875     0.096716127432
    H            1.893549416122     0.709015341296     1.088269070030
    H            0.768408493313    -0.599203256360     1.336725684467
    C           -1.144978706667     0.278212469640    -0.575651197510
    H            0.453805572090     1.704569362731    -0.608514722683
    H           -0.343542658279     1.586967533459     0.937707951574
    C           -1.964114460616    -0.611375511441     0.356747332913
    H           -0.766346112427    -0.310667391699    -1.403490289310
    H           -1.802450269838     1.024661448327    -1.009797794873
    H           -2.809006460482    -1.042469539479    -0.167803263134
    H           -1.379673663431    -1.433249396114     0.754957314044
    H           -2.352130351113    -0.046213805342     1.198195206010

  Mulliken Charges: (a.u.)
   Center  Symbol    Alpha    Beta     Spin     Total
       1     H     0.39066  0.39066  0.00000  0.21867
       2     O     4.20810  4.20810  0.00000 -0.41619
       3     C     2.98211  2.98211  0.00000  0.03578
       4     C     3.08655  3.08655  0.00000 -0.17311
       5     H     0.45397  0.45397  0.00000  0.09206
       6     H     0.46905  0.46905  0.00000  0.06190
       7     C     3.09597  3.09597  0.00000 -0.19194
       8     H     0.44855  0.44855  0.00000  0.10290
       9     H     0.45558  0.45558  0.00000  0.08884
      10     C     3.15301  3.15301  0.00000 -0.30603
      11     H     0.44836  0.44836  0.00000  0.10329
      12     H     0.44873  0.44873  0.00000  0.10255
      13     H     0.44571  0.44571  0.00000  0.10858
      14     H     0.45890  0.45890  0.00000  0.08219
      15     H     0.45474  0.45474  0.00000  0.09051

   Total alpha = 21.00000, Total beta = 21.00000, Total charge = -0.00000
