  ==> Input File <==

--------------------------------------------------------------------------
set {
	reference rhf
	basis cc-pvtz
}

set_num_threads( 4 )
memory 2 gb

molecule MOL {
0 1

H	 -2.733082	 0.807947	 -1.474076
C	 -1.992304	 0.019122	 -1.583106
O	 -1.401606	 -0.295183	 -0.366624
H	 -2.482880	 -0.869793	 -1.951962
H	 -1.253650	 0.339979	 -2.315448
C	 -0.718530	 0.758693	 0.228682
C	 0.718529	 0.758687	 -0.228709
H	 -1.176498	 1.708665	 -0.046615
H	 -0.748705	 0.673525	 1.312779
O	 1.401606	 -0.295166	 0.366636
H	 0.748705	 0.673477	 -1.312803
H	 1.176496	 1.708671	 0.046552
C	 2.714315	 -0.441627	 -0.061017
H	 2.765292	 -0.641548	 -1.128869
H	 3.305661	 0.447341	 0.150952
H	 3.143725	 -1.278506	 0.470147

	symmetry c1
}
set optking {
	frozen_dihedral = ("
		2 3 6 7
	")
}

ee = optimize('scf')
oeprop('DIPOLE', 'QUADRUPOLE', 'MULLIKEN_CHARGES')
f=open( 'psi4out.xyz', 'w' )
f.write( "16  " )
f.write( str(ee) + "\n" )
f.write( MOL.save_string_xyz() )
f.close()
--------------------------------------------------------------------------

    Molecular point group: c1
  Charge       = 0
  Multiplicity = 1
  Basis Set: CC-PVTZ
  Basis Set:
  @DF-RHF Final Energy:  -307.09329535099221
    Total Energy =                       -307.0932953509925483
    Molecular point group: c1
  Basis Set: CC-PVTZ
  Basis Set:
  Basis Set: CC-PVTZ
  Basis Set:
  @DF-RHF Final Energy:  -307.09449772669268
    Total Energy =                       -307.0944977266926799
  Basis Set: CC-PVTZ
  Basis Set:
  Basis Set: CC-PVTZ
  Basis Set:
  @DF-RHF Final Energy:  -307.09471829568855
    Total Energy =                       -307.0947182956882671
  Basis Set: CC-PVTZ
  Basis Set:
  Basis Set: CC-PVTZ
  Basis Set:
  @DF-RHF Final Energy:  -307.09472317619793
    Total Energy =                       -307.0947231761977037
  Basis Set: CC-PVTZ
  Basis Set:
  Charge       = 0
  Multiplicity = 1
  Basis Set: CC-PVTZ
  Basis Set:

    Orbital Energies (a.u.)
    -----------------------

    Doubly Occupied:

       1A    -20.549394     2A    -20.546690     3A    -11.268677
       4A    -11.267249     5A    -11.263245     6A    -11.263125
       7A     -1.391390     8A     -1.373916     9A     -1.029427
      10A     -0.943452    11A     -0.897948    12A     -0.819561
      13A     -0.689469    14A     -0.680676    15A     -0.661015
      16A     -0.640056    17A     -0.627291    18A     -0.604312
      19A     -0.555735    20A     -0.526904    21A     -0.516753
      22A     -0.487609    23A     -0.466647    24A     -0.420031
      25A     -0.411895

  @DF-RHF Final Energy:  -307.09472367734799

   => Energetics <=

    Nuclear Repulsion Energy =            260.5782485632537941
    One-Electron Energy =                -935.5410095726549571
    Two-Electron Energy =                 367.8680373320532340
    DFT Exchange-Correlation Energy =       0.0000000000000000
    Empirical Dispersion Energy =           0.0000000000000000
    PCM Polarization Energy =               0.0000000000000000
    EFP Energy =                            0.0000000000000000
    Total Energy =                       -307.0947236773479858
    Molecular point group: c1
  Basis Set: CC-PVTZ
  Basis Set:

  -Total Gradient:
     Atom            X                  Y                   Z
    ------   -----------------  -----------------  -----------------
       1       -0.000002293551    -0.000000259089    -0.000002566500
       2       -0.000575810899     0.000244917971     0.000361893738
       3        0.000889154559    -0.000543772222    -0.000281135622
       4        0.000003503803     0.000004072828     0.000003132706
       5        0.000003053744     0.000004172364    -0.000009567355
       6       -0.000475470447     0.000679322767    -0.000572888117
       7        0.000086164913    -0.000324903423     0.000466450976
       8        0.000004187631    -0.000014231649    -0.000007082575
       9        0.000013429038    -0.000007206174     0.000002480467
      10        0.000019393710    -0.000013854544     0.000012158133
      11        0.000007475974    -0.000004901711     0.000012033786
      12        0.000021446586    -0.000011128555     0.000004996132
      13        0.000004647520    -0.000011805538     0.000008654569
      14       -0.000007860734     0.000002894658     0.000002795999
      15       -0.000001785377    -0.000000578336    -0.000001452088
      16        0.000010763530    -0.000002739349     0.000000095751

  **** Optimization is complete! (in 5 steps) ****
    Final optimized geometry and variables:
    Molecular point group: c1

    Geometry (in Angstrom), charge = 0, multiplicity = 1:

    H           -2.881371119742     0.732010248823    -1.198063669181
    C           -2.168738642738    -0.085452972274    -1.284023738778
    O           -1.560093653683    -0.356648592153    -0.064590241711
    H           -2.697988820707    -0.976175138700    -1.589822626819
    H           -1.448456845754     0.167327032691    -2.058244525784
    C           -0.825511963276     0.688441470508     0.492234131654
    C            0.628028803117     0.696952006675     0.067636369168
    H           -1.273112994539     1.648313729212     0.241915417925
    H           -0.867604277206     0.569399746551     1.566856714292
    O            1.279777720043    -0.396868475202     0.622582911242
    H            0.707119393768     0.676167591109    -1.018300551420
    H            1.086422599443     1.625596782234     0.410010875748
    C            2.610388069713    -0.525087129537     0.247976125411
    H            2.711103011562    -0.654480961553    -0.827501941457
    H            3.195228385881     0.343296666354     0.545451540314
    H            3.010232045104    -1.398639419480     0.741709477792

  Mulliken Charges: (a.u.)
   Center  Symbol    Alpha    Beta     Spin     Total
       1     H     0.47070  0.47070  0.00000  0.05860
       2     C     3.03155  3.03155  0.00000 -0.06310
       3     O     4.17461  4.17461  0.00000 -0.34923
       4     H     0.44628  0.44628  0.00000  0.10744
       5     H     0.47389  0.47389  0.00000  0.05221
       6     C     2.97448  2.97448  0.00000  0.05103
       7     C     2.96490  2.96490  0.00000  0.07020
       8     H     0.47310  0.47310  0.00000  0.05381
       9     H     0.45025  0.45025  0.00000  0.09951
      10     O     4.16783  4.16783  0.00000 -0.33566
      11     H     0.47654  0.47654  0.00000  0.04692
      12     H     0.47385  0.47385  0.00000  0.05231
      13     C     3.03138  3.03138  0.00000 -0.06275
      14     H     0.47184  0.47184  0.00000  0.05632
      15     H     0.47295  0.47295  0.00000  0.05411
      16     H     0.44585  0.44585  0.00000  0.10829

   Total alpha = 25.00000, Total beta = 25.00000, Total charge = -0.00000
