  ==> Input File <==

--------------------------------------------------------------------------
set {
	reference rhf
	basis 6-31G*
}

set_num_threads( 1 )
memory 2 gb

molecule MOL {
0 1

H	 2.888902	 -1.224928	 -0.132649
N	 3.092854	 -0.246221	 -0.068770
C	 1.865559	 0.531981	 0.018834
H	 3.604685	 -0.002715	 -0.895549
C	 0.645745	 -0.382037	 -0.029944
H	 1.841966	 1.207024	 -0.831236
H	 1.815756	 1.155410	 0.915079
C	 -0.679275	 0.379305	 0.025956
H	 0.698998	 -0.976915	 -0.937203
H	 0.693479	 -1.083846	 0.802235
C	 -1.903357	 -0.536963	 -0.023547
H	 -0.726309	 1.082987	 -0.803784
H	 -0.717680	 0.977832	 0.934877
C	 -3.225172	 0.228290	 0.028445
H	 -1.867824	 -1.134999	 -0.931459
H	 -1.860449	 -1.239604	 0.805977
H	 -3.313397	 0.915643	 -0.808262
H	 -4.073500	 -0.448134	 -0.008893
H	 -3.306061	 0.809945	 0.942516

	symmetry c1
}
set optking {
	frozen_dihedral = ("
		6 3 5 9,
		12 8 5 9,
		12 8 11 15
	")
}

ee = energy('scf')
oeprop('DIPOLE', 'QUADRUPOLE', 'MULLIKEN_CHARGES')
f=open( 'psi4out.xyz', 'w' )
f.write( "19  " )
f.write( str(ee) + "\n" )
f.write( MOL.save_string_xyz() )
f.close()
--------------------------------------------------------------------------

    Molecular point group: c1

    Geometry (in Angstrom), charge = 0, multiplicity = 1:

       Center              X                  Y                   Z               Mass
    ------------   -----------------  -----------------  -----------------  -----------------
           H          2.895833718065    -1.216169081021    -0.113340818505     1.007825032070
           N          3.099785718065    -0.237462081021    -0.049461818505    14.003074004780
           C          1.872490718065     0.540739918979     0.038142181495    12.000000000000
           H          3.611616718065     0.006043918979    -0.876240818505     1.007825032070
           C          0.652676718065    -0.373278081021    -0.010635818505    12.000000000000
           H          1.848897718065     1.215782918979    -0.811927818505     1.007825032070
           H          1.822687718065     1.164168918979     0.934387181495     1.007825032070
           C         -0.672343281935     0.388063918979     0.045264181495    12.000000000000
           H          0.705929718065    -0.968156081021    -0.917894818505     1.007825032070
           H          0.700410718065    -1.075087081021     0.821543181495     1.007825032070
           C         -1.896425281935    -0.528204081021    -0.004238818505    12.000000000000
           H         -0.719377281935     1.091745918979    -0.784475818505     1.007825032070
           H         -0.710748281935     0.986590918979     0.954185181495     1.007825032070
           C         -3.218240281935     0.237048918979     0.047753181495    12.000000000000
           H         -1.860892281935    -1.126240081021    -0.912150818505     1.007825032070
           H         -1.853517281935    -1.230845081021     0.825285181495     1.007825032070
           H         -3.306465281935     0.924401918979    -0.788953818505     1.007825032070
           H         -4.066568281935    -0.439375081021     0.010415181495     1.007825032070
           H         -3.299129281935     0.818703918979     0.961824181495     1.007825032070

  Charge       = 0
  Multiplicity = 1
  Basis Set: 6-31G*
  Basis Set:

    Orbital Energies (a.u.)
    -----------------------

    Doubly Occupied:

       1A    -15.529082     2A    -11.239671     3A    -11.216972
       4A    -11.216290     5A    -11.215721     6A    -11.209681
       7A     -1.177328     8A     -1.075733     9A     -1.000139
      10A     -0.901052    11A     -0.819083    12A     -0.794694
      13A     -0.665988    14A     -0.643290    15A     -0.603751
      16A     -0.599689    17A     -0.566335    18A     -0.551464
      19A     -0.533105    20A     -0.500208    21A     -0.487550
      22A     -0.469677    23A     -0.465423    24A     -0.456460
      25A     -0.373571

  @DF-RHF Final Energy:  -251.34598172985309

   => Energetics <=

    Nuclear Repulsion Energy =            246.1493165687226963
    One-Electron Energy =                -826.3667761023987168
    Two-Electron Energy =                 328.8714778038226996
    DFT Exchange-Correlation Energy =       0.0000000000000000
    Empirical Dispersion Energy =           0.0000000000000000
    PCM Polarization Energy =               0.0000000000000000
    EFP Energy =                            0.0000000000000000
    Total Energy =                       -251.3459817298532926

  Mulliken Charges: (a.u.)
   Center  Symbol    Alpha    Beta     Spin     Total
       1     H     0.33143  0.33143  0.00000  0.33713
       2     N     3.92873  3.92873  0.00000 -0.85747
       3     C     3.04521  3.04521  0.00000 -0.09041
       4     H     0.33245  0.33245  0.00000  0.33510
       5     C     3.16961  3.16961  0.00000 -0.33921
       6     H     0.42882  0.42882  0.00000  0.14236
       7     H     0.42126  0.42126  0.00000  0.15748
       8     C     3.15404  3.15404  0.00000 -0.30808
       9     H     0.42498  0.42498  0.00000  0.15004
      10     H     0.41963  0.41963  0.00000  0.16074
      11     C     3.15119  3.15119  0.00000 -0.30238
      12     H     0.42362  0.42362  0.00000  0.15276
      13     H     0.42165  0.42165  0.00000  0.15670
      14     C     3.23945  3.23945  0.00000 -0.47890
      15     H     0.42327  0.42327  0.00000  0.15345
      16     H     0.42248  0.42248  0.00000  0.15504
      17     H     0.42180  0.42180  0.00000  0.15639
      18     H     0.41906  0.41906  0.00000  0.16187
      19     H     0.42132  0.42132  0.00000  0.15737

   Total alpha = 25.00000, Total beta = 25.00000, Total charge =  0.00000
