  ==> Input File <==

--------------------------------------------------------------------------
set {
	reference rhf
	basis 6-31G*
}

set_num_threads( 4 )
memory 2 gb

molecule MOL {
0 1

H	 2.866480	 -0.465706	 0.876907
C	 2.405773	 -0.024801	 0.000000
N	 0.988830	 -0.304158	 0.000000
H	 2.866480	 -0.465706	 -0.876907
H	 2.629928	 1.045948	 0.000000
C	 0.445951	 -0.411189	 -1.341564
C	 0.235110	 0.658229	 0.782104
H	 0.562093	 0.524001	 -1.898727
H	 0.982822	 -1.185295	 -1.880799
C	 -1.029097	 -0.770765	 -1.271360
H	 0.617594	 0.667199	 1.797914
H	 0.335888	 1.671346	 0.379692
C	 -1.234347	 0.270293	 0.795991
H	 -1.471591	 -0.767598	 -2.258886
H	 -1.142261	 -1.765201	 -0.843271
O	 -1.736494	 0.164434	 -0.506544
H	 -1.824885	 1.024367	 1.299630
H	 -1.357167	 -0.675163	 1.321346

	symmetry c1
}
set optking {
	frozen_dihedral = ("
		6 3 2 5
	")
}

ee = optimize('scf')
oeprop('DIPOLE', 'QUADRUPOLE', 'MULLIKEN_CHARGES')
f=open( 'psi4out.xyz', 'w' )
f.write( "18  " )
f.write( str(ee) + "\n" )
f.write( MOL.save_string_xyz() )
f.close()
--------------------------------------------------------------------------

    Molecular point group: c1
  Charge       = 0
  Multiplicity = 1
  Basis Set: 6-31G*
  Basis Set:
  @DF-RHF Final Energy:  -325.02574994787625
    Total Energy =                       -325.0257499478767045
    Molecular point group: c1
  Basis Set: 6-31G*
  Basis Set:
  Basis Set: 6-31G*
  Basis Set:
  @DF-RHF Final Energy:  -325.02613001753900
    Total Energy =                       -325.0261300175384349
  Basis Set: 6-31G*
  Basis Set:
  Basis Set: 6-31G*
  Basis Set:
  @DF-RHF Final Energy:  -325.02619594776581
    Total Energy =                       -325.0261959477654727
  Basis Set: 6-31G*
  Basis Set:
  Charge       = 0
  Multiplicity = 1
  Basis Set: 6-31G*
  Basis Set:

    Orbital Energies (a.u.)
    -----------------------

    Doubly Occupied:

       1A    -20.553746     2A    -15.546764     3A    -11.265932
       4A    -11.265778     5A    -11.244179     6A    -11.244026
       7A    -11.241035     8A     -1.382992     9A     -1.229717
      10A     -1.038618    11A     -0.980887    12A     -0.883136
      13A     -0.869188    14A     -0.773322    15A     -0.683147
      16A     -0.645187    17A     -0.643313    18A     -0.633814
      19A     -0.626614    20A     -0.570630    21A     -0.558382
      22A     -0.541703    23A     -0.528133    24A     -0.501060
      25A     -0.485977    26A     -0.452208    27A     -0.407647
      28A     -0.347045

  @DF-RHF Final Energy:  -325.02619841869011

   => Energetics <=

    Nuclear Repulsion Energy =            341.1767937180585477
    One-Electron Energy =               -1118.1176212486741406
    Two-Electron Energy =                 451.9146291119251941
    DFT Exchange-Correlation Energy =       0.0000000000000000
    Empirical Dispersion Energy =           0.0000000000000000
    PCM Polarization Energy =               0.0000000000000000
    EFP Energy =                            0.0000000000000000
    Total Energy =                       -325.0261984186903987
    Molecular point group: c1
  Basis Set: 6-31G*
  Basis Set:

  -Total Gradient:
     Atom            X                  Y                   Z
    ------   -----------------  -----------------  -----------------
       1       -0.000023884289    -0.000008853816     0.000023678125
       2        0.000575031675    -0.001451383297    -0.006014534408
       3       -0.000820930926     0.004869978182     0.001256981603
       4       -0.000062271491    -0.000027787117     0.000008292241
       5       -0.000147474051     0.000075039017     0.004673670650
       6        0.000558420150    -0.003492938761     0.000035960988
       7       -0.000027415112     0.000081701844    -0.000001851096
       8       -0.000015616734    -0.000048935168     0.000048817872
       9        0.000007638158     0.000005561312     0.000033333193
      10       -0.000028408122     0.000044638943    -0.000072025290
      11       -0.000000355639    -0.000022985601    -0.000026883715
      12        0.000007880426    -0.000022521146     0.000007207033
      13       -0.000001703256     0.000006021511     0.000025934457
      14       -0.000059643922    -0.000019834370    -0.000032725871
      15        0.000031064552     0.000040761180     0.000002633885
      16        0.000050536318    -0.000042025464     0.000031725418
      17       -0.000039027164     0.000006445296     0.000009317529
      18       -0.000003840572     0.000007117455    -0.000009532611

  **** Optimization is complete! (in 4 steps) ****
    Final optimized geometry and variables:
    Molecular point group: c1

    Geometry (in Angstrom), charge = 0, multiplicity = 1:

    H            2.823213060133    -0.388880018863     1.149082720808
    C            2.404432535410     0.019227924987     0.233539378519
    N            0.978317581679    -0.222044389198     0.198086591779
    H            2.891196723229    -0.469029850515    -0.601034078263
    H            2.654965874695     1.082363645921     0.218511485813
    C            0.426928915762    -0.349160797448    -1.136775249171
    C            0.225489774682     0.713268315260     1.006982846521
    H            0.525257843581     0.576747141960    -1.712812284135
    H            0.962951317959    -1.128212045466    -1.668399902661
    C           -1.043919640692    -0.721682764795    -1.043921706445
    H            0.620143882056     0.704211513678     2.018541868032
    H            0.314165534627     1.735905814898     0.626198598502
    C           -1.240158024993     0.311685731494     1.029317793756
    H           -1.501795799471    -0.727123472203    -2.024548119581
    H           -1.140398436782    -1.715092883642    -0.609518317234
    O           -1.749026501276     0.208791597218    -0.270936336206
    H           -1.835046910540     1.056574986714     1.541643113418
    H           -1.350702822716    -0.638521487492     1.548595513282

  Mulliken Charges: (a.u.)
   Center  Symbol    Alpha    Beta     Spin     Total
       1     H     0.41568  0.41568  0.00000  0.16864
       2     C     3.13839  3.13839  0.00000 -0.27677
       3     N     3.79262  3.79262  0.00000 -0.58525
       4     H     0.41750  0.41750  0.00000  0.16499
       5     H     0.43024  0.43024  0.00000  0.13951
       6     C     3.06503  3.06503  0.00000 -0.13006
       7     C     3.06570  3.06570  0.00000 -0.13140
       8     H     0.42898  0.42898  0.00000  0.14204
       9     H     0.41718  0.41718  0.00000  0.16563
      10     C     2.99806  2.99806  0.00000  0.00387
      11     H     0.41701  0.41701  0.00000  0.16597
      12     H     0.42837  0.42837  0.00000  0.14325
      13     C     2.99761  2.99761  0.00000  0.00478
      14     H     0.41342  0.41342  0.00000  0.17315
      15     H     0.42434  0.42434  0.00000  0.15132
      16     O     4.31220  4.31220  0.00000 -0.62440
      17     H     0.41339  0.41339  0.00000  0.17321
      18     H     0.42425  0.42425  0.00000  0.15150

   Total alpha = 28.00000, Total beta = 28.00000, Total charge =  0.00000
