  ==> Input File <==

--------------------------------------------------------------------------
set {
	reference rhf
	basis 6-31G*
}

set_num_threads( 4 )
memory 2 gb

molecule MOL {
0 1

H	 3.463771	 0.168298	 -0.756243
C	 2.752674	 -0.045734	 0.033351
C	 1.322923	 0.120767	 -0.479465
H	 2.934561	 -1.059086	 0.377456
H	 2.958358	 0.631174	 0.856809
C	 0.306652	 -0.176050	 0.621399
H	 1.144658	 -0.551717	 -1.312180
H	 1.166477	 1.131798	 -0.836680
N	 -1.068537	 -0.011044	 0.085269
H	 0.372515	 -1.192590	 0.973735
H	 0.391664	 0.520566	 1.441230
O	 -1.567485	 1.068326	 0.171208
O	 -1.592930	 -0.982730	 -0.367349

	symmetry c1
}
set optking {
	frozen_dihedral = ("
		12 9 6 3
	")
}

ee = optimize('scf')
oeprop('DIPOLE', 'QUADRUPOLE', 'MULLIKEN_CHARGES')
f=open( 'psi4out.xyz', 'w' )
f.write( "13  " )
f.write( str(ee) + "\n" )
f.write( MOL.save_string_xyz() )
f.close()
--------------------------------------------------------------------------

    Molecular point group: c1
  Charge       = 0
  Multiplicity = 1
  Basis Set: 6-31G*
  Basis Set:
  @DF-RHF Final Energy:  -321.73526278426323
    Total Energy =                       -321.7352627842631705
    Molecular point group: c1
  Basis Set: 6-31G*
  Basis Set:
  Basis Set: 6-31G*
  Basis Set:
  @DF-RHF Final Energy:  -321.73137916119236
    Total Energy =                       -321.7313791611924216
  Basis Set: 6-31G*
  Basis Set:
  Basis Set: 6-31G*
  Basis Set:
  @DF-RHF Final Energy:  -321.73547879972648
    Total Energy =                       -321.7354787997264793
  Basis Set: 6-31G*
  Basis Set:
  Basis Set: 6-31G*
  Basis Set:
  @DF-RHF Final Energy:  -321.73543815111429
    Total Energy =                       -321.7354381511141810
  Basis Set: 6-31G*
  Basis Set:
  Basis Set: 6-31G*
  Basis Set:
  @DF-RHF Final Energy:  -321.73557825940907
    Total Energy =                       -321.7355782594088964
  Basis Set: 6-31G*
  Basis Set:
  Basis Set: 6-31G*
  Basis Set:
  @DF-RHF Final Energy:  -321.73558231741515
    Total Energy =                       -321.7355823174152647
  Basis Set: 6-31G*
  Basis Set:
  Charge       = 0
  Multiplicity = 1
  Basis Set: 6-31G*
  Basis Set:

    Orbital Energies (a.u.)
    -----------------------

    Doubly Occupied:

       1A    -20.600480     2A    -20.600230     3A    -15.846763
       4A    -11.299128     5A    -11.257572     6A    -11.240266
       7A     -1.630329     8A     -1.415855     9A     -1.135673
      10A     -1.028603    11A     -0.884177    12A     -0.833498
      13A     -0.758082    14A     -0.734082    15A     -0.722743
      16A     -0.672877    17A     -0.604588    18A     -0.589290
      19A     -0.551039    20A     -0.521457    21A     -0.515645
      22A     -0.483339    23A     -0.473713    24A     -0.447602

  @DF-RHF Final Energy:  -321.73558289026414

   => Energetics <=

    Nuclear Repulsion Energy =            247.4472480876726479
    One-Electron Energy =                -928.6716033240851402
    Two-Electron Energy =                 359.4887723461483233
    DFT Exchange-Correlation Energy =       0.0000000000000000
    Empirical Dispersion Energy =           0.0000000000000000
    PCM Polarization Energy =               0.0000000000000000
    EFP Energy =                            0.0000000000000000
    Total Energy =                       -321.7355828902641974
    Molecular point group: c1
  Basis Set: 6-31G*
  Basis Set:

  -Total Gradient:
     Atom            X                  Y                   Z
    ------   -----------------  -----------------  -----------------
       1       -0.000005219052     0.000002967427    -0.000000476523
       2       -0.000005784435     0.000011546383     0.000009219688
       3       -0.000006436486     0.000001536291    -0.000002114598
       4       -0.000006293279     0.000002071934    -0.000003759051
       5        0.000007052708     0.000000490686     0.000005375807
       6        0.000016773193    -0.000008981940    -0.000013647195
       7       -0.000001578171    -0.000003927923    -0.000001711559
       8        0.000005672132    -0.000003104656    -0.000006132114
       9       -0.000001836064     0.000030005092     0.000033142232
      10       -0.000009731819    -0.000000906623     0.000004630853
      11        0.000006921531     0.000004094974     0.000006071940
      12        0.000018324833    -0.000003025221    -0.000004075795
      13       -0.000017865091    -0.000032766425    -0.000026523685

  **** Optimization is complete! (in 7 steps) ****
    Final optimized geometry and variables:
    Molecular point group: c1

    Geometry (in Angstrom), charge = 0, multiplicity = 1:

    H            3.458228631397     0.166732928139    -0.770612489152
    C            2.751426095003    -0.041777875772     0.024288450265
    C            1.318886551436     0.114119347877    -0.483825163163
    H            2.937969702089    -1.051244256874     0.377305425414
    H            2.958493357699     0.643712035324     0.840173663000
    C            0.307871055646    -0.175903304346     0.624048609175
    H            1.137791598153    -0.565183609395    -1.309401797038
    H            1.158580972878     1.122748985518    -0.848671076131
    N           -1.067860848978    -0.010609200207     0.090111836876
    H            0.373904896743    -1.194210187686     0.973086580160
    H            0.397390606211     0.518809529980     1.443945591468
    O           -1.559970238270     1.072602694026     0.174111131967
    O           -1.572552582290    -0.963021346063    -0.420897975017

  Mulliken Charges: (a.u.)
   Center  Symbol    Alpha    Beta     Spin     Total
       1     H     0.40724  0.40724  0.00000  0.18551
       2     C     3.24801  3.24801  0.00000 -0.49602
       3     C     3.17322  3.17322  0.00000 -0.34645
       4     H     0.41453  0.41453  0.00000  0.17095
       5     H     0.41452  0.41452  0.00000  0.17096
       6     C     3.08218  3.08218  0.00000 -0.16436
       7     H     0.39869  0.39869  0.00000  0.20263
       8     H     0.39912  0.39912  0.00000  0.20176
       9     N     3.22421  3.22421  0.00000  0.55158
      10     H     0.38860  0.38860  0.00000  0.22280
      11     H     0.38848  0.38848  0.00000  0.22304
      12     O     4.23049  4.23049  0.00000 -0.46098
      13     O     4.23071  4.23071  0.00000 -0.46142

   Total alpha = 24.00000, Total beta = 24.00000, Total charge =  0.00000
