                              Psi4 1.0.54 Driver

  ==> Input File <==

--------------------------------------------------------------------------
set {
	reference rhf
	basis cc-pvtz
}

set_num_threads( 4 )
memory 2 gb

molecule MOL {
0 1

H	 0.565111	 -2.984106	 1.855196
O	 0.641763	 -2.401918	 1.114307
C	 -0.368019	 -1.537314	 1.152003
C	 -0.318151	 -0.570512	 0.000144
O	 -1.185061	 -1.560749	 2.006323
C	 -1.454884	 0.441630	 -0.000560
H	 0.648125	 -0.077755	 0.037446
H	 -0.314118	 -1.159078	 -0.911708
C	 -2.822577	 -0.232186	 0.000063
H	 -1.359760	 1.084704	 -0.867077
H	 -1.359641	 1.085996	 0.864983
H	 -2.954352	 -0.858985	 -0.875745
H	 -3.615886	 0.505352	 0.000019
H	 -2.953878	 -0.858359	 0.876394

	symmetry c1
}
set optking {
	frozen_dihedral = ("
		7 4 6 10
	")
}

ee,wfn = optimize('scf', return_wfn=True)
oeprop( wfn, 'DIPOLE', 'QUADRUPOLE', 'MULLIKEN_CHARGES')
f=open( 'psi4out.xyz', 'w' )
f.write( "14  " )
f.write( str(ee) + "\n" )
f.write( MOL.save_string_xyz() )
f.close()
--------------------------------------------------------------------------

    Molecular point group: c1
  Charge       = 0
  Multiplicity = 1
  Basis Set: CC-PVTZ
  Basis Set:
  @DF-RHF Final Energy:  -305.99664258154644
    Total Energy =                       -305.9966425815462117
    Molecular point group: c1
  Basis Set: CC-PVTZ
  Basis Set:
  Basis Set: CC-PVTZ
  Basis Set:
  @DF-RHF Final Energy:  -305.99904161938156
    Total Energy =                       -305.9990416193815577
  Basis Set: CC-PVTZ
  Basis Set:
  Basis Set: CC-PVTZ
  Basis Set:
  @DF-RHF Final Energy:  -305.99822700892361
    Total Energy =                       -305.9982270089238341
  Basis Set: CC-PVTZ
  Basis Set:
  Basis Set: CC-PVTZ
  Basis Set:
  @DF-RHF Final Energy:  -305.99946224794576
    Total Energy =                       -305.9994622479454165
  Basis Set: CC-PVTZ
  Basis Set:
  @DF-RHF Final Energy:  -305.99973832414207
    Total Energy =                       -305.9997383241420152
  Basis Set: CC-PVTZ
  Basis Set:
  @DF-RHF Final Energy:  -305.99981581475026
    Total Energy =                       -305.9998158147499225
  Basis Set: CC-PVTZ
  Basis Set:
  Basis Set: CC-PVTZ
  Basis Set:
  @DF-RHF Final Energy:  -305.99983140946335
    Total Energy =                       -305.9998314094634679
  Basis Set: CC-PVTZ
  Basis Set:
  Basis Set: CC-PVTZ
  Basis Set:
  @DF-RHF Final Energy:  -305.99983275716210
    Total Energy =                       -305.9998327571618688
  Basis Set: CC-PVTZ
  Basis Set:
  Charge       = 0
  Multiplicity = 1
  Basis Set: CC-PVTZ
  Basis Set:

    Orbital Energies (a.u.)
    -----------------------

    Doubly Occupied:

       1A    -20.605502     2A    -20.540518     3A    -11.374557
       4A    -11.240290     5A    -11.225664     6A    -11.208690
       7A     -1.478773     8A     -1.369777     9A     -1.082852
      10A     -0.977191    11A     -0.863541    12A     -0.788905
      13A     -0.706270    14A     -0.692989    15A     -0.663067
      16A     -0.616782    17A     -0.595412    18A     -0.568562
      19A     -0.558537    20A     -0.499149    21A     -0.490980
      22A     -0.486780    23A     -0.481225    24A     -0.444519

  @DF-RHF Final Energy:  -305.99983286440704

   => Energetics <=

    Nuclear Repulsion Energy =            245.3943909446319651
    One-Electron Energy =                -903.6673833236004612
    Two-Electron Energy =                 352.2731595145615984
    DFT Exchange-Correlation Energy =       0.0000000000000000
    Empirical Dispersion Energy =           0.0000000000000000
    PCM Polarization Energy =               0.0000000000000000
    EFP Energy =                            0.0000000000000000
    Total Energy =                       -305.9998328644069261
    Molecular point group: c1
  Basis Set: CC-PVTZ
  Basis Set:

  -Total Gradient:
     Atom            X                  Y                   Z
    ------   -----------------  -----------------  -----------------
       1        0.000008432068    -0.000009731330    -0.000001065739
       2       -0.000012254181    -0.000005184349     0.000013347626
       3        0.000022003312     0.000008326867     0.000001985438
       4       -0.000286800600    -0.000361374210    -0.003718958275
       5       -0.000010649260    -0.000005995488     0.000002868639
       6        0.001846659481     0.002132621003     0.002346507070
       7       -0.000035669042    -0.000006046231     0.002741213061
       8        0.000004466762    -0.000000430871    -0.000006676355
       9       -0.000000339499     0.000009319742    -0.000002835595
      10       -0.001522378744    -0.001749450396    -0.001385345378
      11       -0.000005976143    -0.000003909957    -0.000004142963
      12        0.000002526969     0.000002998941     0.000001532960
      13       -0.000006485349     0.000000399701    -0.000002002187
      14       -0.000003535773    -0.000011543422     0.000013571696

  **** Optimization is complete! (in 9 steps) ****
    Final optimized geometry and variables:
    Molecular point group: c1

    Geometry (in Angstrom), charge = 0, multiplicity = 1:

    H            1.339946103601    -2.072855084329     1.064963407845
    O            1.314960091257    -1.579593992115     0.258627273161
    C            0.581839917286    -0.488653453563     0.456357671918
    C            0.547416190749     0.396379139339    -0.763095160920
    O            0.067725390868    -0.257329160641     1.496286964930
    C           -0.598938388783     1.402696086519    -0.776818877814
    H            1.501836139778     0.915816660349    -0.745882813703
    H            0.544788464978    -0.229894628005    -1.645767631551
    C           -1.984309976007     0.760801358127    -0.804879113430
    H           -0.487533549507     2.009747948145    -1.669089744709
    H           -0.514207964291     2.059644965477     0.079056328059
    H           -2.092282800028     0.106167790672    -1.664286678099
    H           -2.752850605188     1.521471363745    -0.874504557002
    H           -2.171481072195     0.181505460823     0.089026964278

  Mulliken Charges: (a.u.)
   Center  Symbol    Alpha    Beta     Spin     Total
       1     H     0.38158  0.38158  0.00000  0.23684
       2     O     4.15952  4.15952  0.00000 -0.31904
       3     C     2.80476  2.80476  0.00000  0.39048
       4     C     3.11075  3.11075  0.00000 -0.22149
       5     O     4.19471  4.19471  0.00000 -0.38942
       6     C     3.08283  3.08283  0.00000 -0.16565
       7     H     0.43515  0.43515  0.00000  0.12969
       8     H     0.43525  0.43525  0.00000  0.12951
       9     C     3.15497  3.15497  0.00000 -0.30994
      10     H     0.44756  0.44756  0.00000  0.10487
      11     H     0.44586  0.44586  0.00000  0.10828
      12     H     0.45703  0.45703  0.00000  0.08594
      13     H     0.44755  0.44755  0.00000  0.10489
      14     H     0.44249  0.44249  0.00000  0.11503

   Total alpha = 24.00000, Total beta = 24.00000, Total charge = -0.00000

*** Psi4 exiting successfully. Buy a developer a beer!
