  ==> Input File <==

--------------------------------------------------------------------------
set {
	reference rhf
	basis 6-31G*
}

set_num_threads( 4 )
memory 2 gb

molecule MOL {
0 1

H	 -1.263842	 -1.572006	 -4.128558
C	 -0.628210	 -1.362020	 -3.287755
C	 -0.778768	 -2.064143	 -2.096714
C	 0.349440	 -0.392267	 -3.372791
H	 -1.535644	 -2.823641	 -2.012268
C	 0.034416	 -1.797647	 -1.016478
H	 0.480419	 0.160861	 -4.286015
C	 1.178276	 -0.111232	 -2.291814
H	 -0.071101	 -2.332374	 -0.090861
C	 1.019677	 -0.816920	 -1.109472
H	 1.929180	 0.648602	 -2.389082
O	 1.765256	 -0.628444	 0.000000
C	 2.778419	 0.335181	 0.000000
H	 2.731280	 0.961222	 -0.884976
H	 3.711703	 -0.207767	 0.000000
H	 2.731280	 0.961222	 0.884976

	symmetry c1
}
set optking {
	frozen_dihedral = ("
		10 12 13 14
	")
}

ee = optimize('scf')
oeprop('DIPOLE', 'QUADRUPOLE', 'MULLIKEN_CHARGES')
f=open( 'psi4out.xyz', 'w' )
f.write( "16  " )
f.write( str(ee) + "\n" )
f.write( MOL.save_string_xyz() )
f.close()
--------------------------------------------------------------------------

    Molecular point group: c1
  Charge       = 0
  Multiplicity = 1
  Basis Set: 6-31G*
  Basis Set:
  @DF-RHF Final Energy:  -344.57403525526064
    Total Energy =                       -344.5740352552610375
    Molecular point group: c1
  Basis Set: 6-31G*
  Basis Set:
  Basis Set: 6-31G*
  Basis Set:
  @DF-RHF Final Energy:  -344.57301092358455
    Total Energy =                       -344.5730109235841496
  Basis Set: 6-31G*
  Basis Set:
  Basis Set: 6-31G*
  Basis Set:
  @DF-RHF Final Energy:  -344.57702840639365
    Total Energy =                       -344.5770284063939926
  Basis Set: 6-31G*
  Basis Set:
  Basis Set: 6-31G*
  Basis Set:
  @DF-RHF Final Energy:  -344.57765293341942
    Total Energy =                       -344.5776529334194720
  Basis Set: 6-31G*
  Basis Set:
  @DF-RHF Final Energy:  -344.57869252818176
    Total Energy =                       -344.5786925281818753
  @DF-RHF Final Energy:  -344.57892791358171
    Total Energy =                       -344.5789279135817651
  Basis Set: 6-31G*
  Basis Set:
  @DF-RHF Final Energy:  -344.57895369414956
    Total Energy =                       -344.5789536941494475
  Basis Set: 6-31G*
  Basis Set:
  Basis Set: 6-31G*
  Basis Set:
  @DF-RHF Final Energy:  -344.57896117871809
    Total Energy =                       -344.5789611787182594
  Basis Set: 6-31G*
  Basis Set:
  Basis Set: 6-31G*
  Basis Set:
  @DF-RHF Final Energy:  -344.57896244363457
    Total Energy =                       -344.5789624436345093
  Basis Set: 6-31G*
  Basis Set:
  Charge       = 0
  Multiplicity = 1
  Basis Set: 6-31G*
  Basis Set:

    Orbital Energies (a.u.)
    -----------------------

    Doubly Occupied:

       1A    -20.577393     2A    -11.291630     3A    -11.278108
       4A    -11.233176     5A    -11.231623     6A    -11.224615
       7A    -11.221401     8A    -11.220219     9A     -1.405773
      10A     -1.146127    11A     -1.019692    12A     -1.013323
      13A     -0.938636    14A     -0.831847    15A     -0.804991
      16A     -0.717783    17A     -0.664083    18A     -0.661579
      19A     -0.647147    20A     -0.614469    21A     -0.590432
      22A     -0.581392    23A     -0.525544    24A     -0.512897
      25A     -0.507357    26A     -0.480178    27A     -0.449200
      28A     -0.334414    29A     -0.309009

  @DF-RHF Final Energy:  -344.57896263865268

   => Energetics <=

    Nuclear Repulsion Energy =            347.6383671690102801
    One-Electron Energy =               -1156.3665855981041659
    Two-Electron Energy =                 464.1492557904410887
    DFT Exchange-Correlation Energy =       0.0000000000000000
    Empirical Dispersion Energy =           0.0000000000000000
    PCM Polarization Energy =               0.0000000000000000
    EFP Energy =                            0.0000000000000000
    Total Energy =                       -344.5789626386527971
    Molecular point group: c1
  Basis Set: 6-31G*
  Basis Set:

  -Total Gradient:
     Atom            X                  Y                   Z
    ------   -----------------  -----------------  -----------------
       1       -0.000007412728    -0.000002849919     0.000005198540
       2        0.000016256119    -0.000005178002    -0.000004655808
       3       -0.000001924782     0.000010216749     0.000006990607
       4       -0.000013924481    -0.000002612918    -0.000011766134
       5       -0.000004250535    -0.000000780809    -0.000008315750
       6       -0.000007390466    -0.000013602733     0.000032170542
       7       -0.000003572718    -0.000000475414     0.000004243749
       8        0.000013069200     0.000028096347     0.000017387571
       9       -0.000002176042     0.000003690404    -0.000007296849
      10       -0.001444962677     0.000418318677     0.001162210881
      11       -0.000007397401    -0.000013778831    -0.000002671189
      12        0.002570743639    -0.000724542917    -0.002290404410
      13       -0.002553215431     0.000616681165     0.002808017030
      14        0.001464734713    -0.000322828523    -0.001713929599
      15       -0.000008198201     0.000010977919     0.000003783346
      16       -0.000010378212    -0.000001331194    -0.000000962531

  **** Optimization is complete! (in 10 steps) ****
    Final optimized geometry and variables:
    Molecular point group: c1

    Geometry (in Angstrom), charge = 0, multiplicity = 1:

    H           -2.267744564696    -0.559560411959    -2.399175503578
    C           -1.540976218365    -0.426692049017    -1.618468729601
    C           -1.687044371514    -1.081943128199    -0.403770947142
    C           -0.445959813694     0.395430176717    -1.813670279586
    H           -2.532432174389    -1.726108257095    -0.238698121106
    C           -0.758029146032    -0.909243451709     0.604807733081
    H           -0.313661917590     0.901441885760    -2.753568444191
    C            0.498601568669     0.569441745229    -0.812452761581
    H           -0.860752500908    -1.406789295899     1.551209853148
    C            0.336571112285    -0.078289068801     0.403542658584
    H            1.357860322371     1.190448432768    -0.986991767638
    O            1.231313526773     0.016263555913     1.414897383541
    C            1.838410052247     1.249349233491     1.707384174993
    H            1.375248201651     2.064494044083     1.167061153711
    H            2.889500821164     1.212525501021     1.444701097660
    H            1.747429456042     1.422522843788     2.771485795714

  Mulliken Charges: (a.u.)
   Center  Symbol    Alpha    Beta     Spin     Total
       1     H     0.40085  0.40085  0.00000  0.19831
       2     C     3.11034  3.11034  0.00000 -0.22069
       3     C     3.09343  3.09343  0.00000 -0.18686
       4     C     3.09294  3.09294  0.00000 -0.18588
       5     H     0.39870  0.39870  0.00000  0.20260
       6     C     3.12449  3.12449  0.00000 -0.24897
       7     H     0.39927  0.39927  0.00000  0.20147
       8     C     3.13447  3.13447  0.00000 -0.26894
       9     H     0.39330  0.39330  0.00000  0.21340
      10     C     2.78934  2.78934  0.00000  0.42132
      11     H     0.39754  0.39754  0.00000  0.20493
      12     O     4.33140  4.33140  0.00000 -0.66280
      13     C     3.08600  3.08600  0.00000 -0.17199
      14     H     0.41966  0.41966  0.00000  0.16068
      15     H     0.41737  0.41737  0.00000  0.16527
      16     H     0.41091  0.41091  0.00000  0.17817

   Total alpha = 29.00000, Total beta = 29.00000, Total charge =  0.00000
