                              Psi4 1.0.54 Driver

  ==> Input File <==

--------------------------------------------------------------------------
set {
	reference rhf
	basis cc-pvtz
}

set_num_threads( 4 )
memory 2 gb

molecule MOL {
0 1

H	 2.342730	 0.877684	 -1.045694
C	 2.360424	 0.000000	 -0.411793
C	 1.173749	 0.000000	 0.526870
H	 3.286567	 0.000000	 0.151574
H	 2.342730	 -0.877684	 -1.045694
O	 0.000000	 0.000000	 -0.223739
H	 1.203779	 0.876757	 1.172538
H	 1.203779	 -0.876757	 1.172538
C	 -1.173749	 0.000000	 0.526870
C	 -1.737571	 1.403618	 0.562180
H	 -0.970034	 -0.350007	 1.538051
H	 -1.897242	 -0.685983	 0.088149
H	 -1.027346	 2.086572	 1.011210
H	 -2.653110	 1.427513	 1.142128
H	 -1.955534	 1.750241	 -0.440225

	symmetry c1
}
set optking {
	frozen_dihedral = ("
		11 9 6 3
	")
}

ee,wfn = optimize('scf', return_wfn=True)
oeprop( wfn, 'DIPOLE', 'QUADRUPOLE', 'MULLIKEN_CHARGES')
f=open( 'psi4out.xyz', 'w' )
f.write( "15  " )
f.write( str(ee) + "\n" )
f.write( MOL.save_string_xyz() )
f.close()
--------------------------------------------------------------------------

    Molecular point group: c1
  Charge       = 0
  Multiplicity = 1
  Basis Set: CC-PVTZ
  Basis Set:
  @DF-RHF Final Energy:  -232.22933644628895
    Total Energy =                       -232.2293364462888121
    Molecular point group: c1
  Basis Set: CC-PVTZ
  Basis Set:
  Basis Set: CC-PVTZ
  Basis Set:
  @DF-RHF Final Energy:  -232.22875657693157
    Total Energy =                       -232.2287565769315734
  Basis Set: CC-PVTZ
  Basis Set:
  Basis Set: CC-PVTZ
  Basis Set:
  @DF-RHF Final Energy:  -232.23011931554248
    Total Energy =                       -232.2301193155425381
  Basis Set: CC-PVTZ
  Basis Set:
  Basis Set: CC-PVTZ
  Basis Set:
  @DF-RHF Final Energy:  -232.23014455471736
    Total Energy =                       -232.2301445547174694
  Basis Set: CC-PVTZ
  Basis Set:
  Charge       = 0
  Multiplicity = 1
  Basis Set: CC-PVTZ
  Basis Set:

    Orbital Energies (a.u.)
    -----------------------

    Doubly Occupied:

       1A    -20.542509     2A    -11.266797     3A    -11.265930
       4A    -11.207819     5A    -11.206868     6A     -1.377002
       7A     -1.042469     8A     -0.985254     9A     -0.856848
      10A     -0.819176    11A     -0.672565    12A     -0.656224
      13A     -0.638060    14A     -0.572722    15A     -0.554256
      16A     -0.541566    17A     -0.523242    18A     -0.501103
      19A     -0.487528    20A     -0.462104    21A     -0.407867

  @DF-RHF Final Energy:  -232.23014617722086

   => Energetics <=

    Nuclear Repulsion Energy =            192.1828087317976212
    One-Electron Energy =                -695.6500983399702136
    Two-Electron Energy =                 271.2371434309515053
    DFT Exchange-Correlation Energy =       0.0000000000000000
    Empirical Dispersion Energy =           0.0000000000000000
    PCM Polarization Energy =               0.0000000000000000
    EFP Energy =                            0.0000000000000000
    Total Energy =                       -232.2301461772210587
    Molecular point group: c1
  Basis Set: CC-PVTZ
  Basis Set:

  -Total Gradient:
     Atom            X                  Y                   Z
    ------   -----------------  -----------------  -----------------
       1        0.000002979467     0.000026524617    -0.000014690711
       2       -0.000048740264     0.000007130648    -0.000005678440
       3       -0.000053042813    -0.000936058717     0.000039805846
       4        0.000013418933    -0.000007948592     0.000016730833
       5        0.000002276676    -0.000020369005    -0.000019856679
       6        0.000187107158     0.001682610071     0.000120338477
       7       -0.000023444289     0.000018004987    -0.000012442087
       8       -0.000015091284    -0.000021732357     0.000006978210
       9       -0.000460161784    -0.001733960398    -0.000473386660
      10        0.000013592385    -0.000017184917    -0.000045489061
      11        0.000376382914     0.000981939931     0.000437456647
      12       -0.000024931881     0.000001405371    -0.000019845780
      13        0.000022104085     0.000007231240     0.000012071456
      14        0.000014408027    -0.000028607961    -0.000009686800
      15       -0.000006857327     0.000041015083    -0.000032305252

  **** Optimization is complete! (in 5 steps) ****
    Final optimized geometry and variables:
    Molecular point group: c1

    Geometry (in Angstrom), charge = 0, multiplicity = 1:

    H            2.266460640683     0.398813330216    -1.234892268387
    C            2.180776300169    -0.528695580583    -0.682555976300
    C            1.026351690549    -0.461238042271     0.292995598852
    H            3.111139744538    -0.703045918847    -0.153758798540
    H            2.030717299105    -1.333559398144    -1.391337891948
    O           -0.154158791227    -0.250315089391    -0.419739608243
    H            1.189057981187     0.343382035646     1.008303128421
    H            0.958418165989    -1.388659401814     0.859075041718
    C           -1.318996600529    -0.115327793679     0.342965163856
    C           -1.743791628590     1.338233109977     0.459939445243
    H           -1.174561379469    -0.538863875662     1.333451790129
    H           -2.096569201730    -0.689742978722    -0.146398666629
    H           -0.984880956133     1.927765243062     0.961539347283
    H           -2.665202706679     1.419642865038     1.026860129956
    H           -1.906596514034     1.762996175059    -0.522888585323

  Mulliken Charges: (a.u.)
   Center  Symbol    Alpha    Beta     Spin     Total
       1     H     0.45173  0.45173  0.00000  0.09654
       2     C     3.13693  3.13693  0.00000 -0.27386
       3     C     2.96658  2.96658  0.00000  0.06684
       4     H     0.45926  0.45926  0.00000  0.08149
       5     H     0.45131  0.45131  0.00000  0.09739
       6     O     4.18569  4.18569  0.00000 -0.37139
       7     H     0.47401  0.47401  0.00000  0.05198
       8     H     0.47020  0.47020  0.00000  0.05961
       9     C     2.97947  2.97947  0.00000  0.04105
      10     C     3.13711  3.13711  0.00000 -0.27422
      11     H     0.47134  0.47134  0.00000  0.05733
      12     H     0.45265  0.45265  0.00000  0.09470
      13     H     0.45659  0.45659  0.00000  0.08681
      14     H     0.45615  0.45615  0.00000  0.08769
      15     H     0.45099  0.45099  0.00000  0.09803

   Total alpha = 21.00000, Total beta = 21.00000, Total charge =  0.00000

*** Psi4 exiting successfully. Buy a developer a beer!
