  ==> Input File <==

--------------------------------------------------------------------------
set {
	reference rhf
	basis cc-pvtz
}

set_num_threads( 4 )
memory 2 gb

molecule MOL {
0 1

H	 -2.816458	 -0.841657	 -0.064679
N	 -1.878861	 -0.711874	 0.250184
C	 -1.341419	 0.551458	 -0.220231
H	 -1.333674	 -1.468530	 -0.105118
C	 0.082190	 0.731516	 0.254705
H	 -1.357065	 0.652078	 -1.304747
H	 -1.939897	 1.357530	 0.189797
O	 0.235439	 2.033070	 0.734475
H	 0.302127	 0.013716	 1.043732
H	 0.768067	 0.552251	 -0.570137
C	 1.525598	 2.349306	 1.140314
H	 1.522505	 3.370993	 1.491786
H	 1.857603	 1.702651	 1.949822
H	 2.233331	 2.263193	 0.319180

	symmetry c1
}
set optking {
	frozen_dihedral = ("
		8 5 3 6
	")
}

ee = optimize('scf')
oeprop('DIPOLE', 'QUADRUPOLE', 'MULLIKEN_CHARGES')
f=open( 'psi4out.xyz', 'w' )
f.write( "14  " )
f.write( str(ee) + "\n" )
f.write( MOL.save_string_xyz() )
f.close()
--------------------------------------------------------------------------

    Molecular point group: c1
  Charge       = 0
  Multiplicity = 1
  Basis Set: CC-PVTZ
  Basis Set:
  @DF-RHF Final Energy:  -248.21847568257138
    Total Energy =                       -248.2184756825714089
    Molecular point group: c1
  Basis Set: CC-PVTZ
  Basis Set:
  Basis Set: CC-PVTZ
  Basis Set:
  @DF-RHF Final Energy:  -248.21898853603949
    Total Energy =                       -248.2189885360392054
  Basis Set: CC-PVTZ
  Basis Set:
  Basis Set: CC-PVTZ
  Basis Set:
  @DF-RHF Final Energy:  -248.21910100698713
    Total Energy =                       -248.2191010069868753
  Basis Set: CC-PVTZ
  Basis Set:
  Basis Set: CC-PVTZ
  Basis Set:
  @DF-RHF Final Energy:  -248.21911237030292
    Total Energy =                       -248.2191123703030939
  Basis Set: CC-PVTZ
  Basis Set:
  Basis Set: CC-PVTZ
  Basis Set:
  @DF-RHF Final Energy:  -248.21911430267394
    Total Energy =                       -248.2191143026739155
  Basis Set: CC-PVTZ
  Basis Set:
  Charge       = 0
  Multiplicity = 1
  Basis Set: CC-PVTZ
  Basis Set:

    Orbital Energies (a.u.)
    -----------------------

    Doubly Occupied:

       1A    -20.548162     2A    -15.531346     3A    -11.262878
       4A    -11.261275     5A    -11.240055     6A     -1.381809
       7A     -1.180365     8A     -0.998045     9A     -0.899940
      10A     -0.824571    11A     -0.678006    12A     -0.675322
      13A     -0.646182    14A     -0.620610    15A     -0.608689
      16A     -0.541284    17A     -0.524066    18A     -0.500620
      19A     -0.469762    20A     -0.415843    21A     -0.389483

  @DF-RHF Final Energy:  -248.21911449874511

   => Energetics <=

    Nuclear Repulsion Energy =            190.9582869801888023
    One-Electron Energy =                -715.9581733027916925
    Two-Electron Energy =                 276.7807718238578900
    DFT Exchange-Correlation Energy =       0.0000000000000000
    Empirical Dispersion Energy =           0.0000000000000000
    PCM Polarization Energy =               0.0000000000000000
    EFP Energy =                            0.0000000000000000
    Total Energy =                       -248.2191144987449434
    Molecular point group: c1
  Basis Set: CC-PVTZ
  Basis Set:

  -Total Gradient:
     Atom            X                  Y                   Z
    ------   -----------------  -----------------  -----------------
       1       -0.000003403443     0.000005116104    -0.000011203765
       2       -0.000019565706    -0.000042037702     0.000049118948
       3       -0.000990192004     0.004521514576     0.001164781181
       4        0.000007115328    -0.000002689404    -0.000010544431
       5        0.001163087654     0.000255411915    -0.003664157111
       6        0.000631308848    -0.003818553571    -0.000301589627
       7       -0.000006757520    -0.000012296658     0.000005269121
       8       -0.000774329210    -0.000910542540     0.002773507925
       9        0.000002487958    -0.000005311994    -0.000003524506
      10       -0.000007004014    -0.000012142707    -0.000005522635
      11        0.000002535440     0.000026744774     0.000006276674
      12        0.000007562198     0.000002664158     0.000003639348
      13       -0.000007310964    -0.000003083065    -0.000005863949
      14       -0.000005534563    -0.000004793886    -0.000000187176

  **** Optimization is complete! (in 6 steps) ****
    Final optimized geometry and variables:
    Molecular point group: c1

    Geometry (in Angstrom), charge = 0, multiplicity = 1:

    H           -2.572063878183    -1.807672800221    -0.414738458736
    N           -1.605537431440    -1.720164772975    -0.181979213121
    C           -1.080754614816    -0.442227923105    -0.648395244481
    H           -1.134227814080    -2.483795884035    -0.621270451805
    C            0.357712214299    -0.239600257100    -0.176127486340
    H           -1.125321498610    -0.360584634402    -1.732476617581
    H           -1.681935611478     0.348565266884    -0.224249086922
    O            0.508599570718     1.067138496982     0.287216263979
    H            0.564559753413    -0.941597419972     0.627714031569
    H            1.066514529785    -0.434144533875    -0.979846098718
    C            1.790833595030     1.373838363772     0.722452384816
    H            1.787713097489     2.397492340350     1.067980407081
    H            2.097657591754     0.728362485039     1.542653121083
    H            2.519152179318     1.278038001672    -0.080280330801

  Mulliken Charges: (a.u.)
   Center  Symbol    Alpha    Beta     Spin     Total
       1     H     0.42930  0.42930  0.00000  0.14140
       2     N     3.68826  3.68826  0.00000 -0.37652
       3     C     3.03349  3.03349  0.00000 -0.06698
       4     H     0.43191  0.43191  0.00000  0.13618
       5     C     2.96273  2.96273  0.00000  0.07455
       6     H     0.46519  0.46519  0.00000  0.06963
       7     H     0.44848  0.44848  0.00000  0.10304
       8     O     4.17286  4.17286  0.00000 -0.34571
       9     H     0.46972  0.46972  0.00000  0.06056
      10     H     0.47745  0.47745  0.00000  0.04509
      11     C     3.02966  3.02966  0.00000 -0.05932
      12     H     0.44691  0.44691  0.00000  0.10618
      13     H     0.47159  0.47159  0.00000  0.05683
      14     H     0.47247  0.47247  0.00000  0.05506

   Total alpha = 21.00000, Total beta = 21.00000, Total charge =  0.00000
