                              Psi4 1.0.54 Driver

  ==> Input File <==

--------------------------------------------------------------------------
set {
	reference rhf
	basis cc-pvtz
}

set_num_threads( 4 )
memory 2 gb

molecule MOL {
0 1

H	 -4.079232	 0.660179	 -0.526039
O	 -3.515113	 -0.019339	 -0.206321
C	 -2.302264	 0.528872	 0.237390
C	 -1.175688	 -0.398187	 -0.171891
H	 -2.148018	 1.514076	 -0.197759
H	 -2.310727	 0.646384	 1.319032
C	 0.196029	 0.106276	 0.266738
H	 -1.201873	 -0.515469	 -1.250677
H	 -1.365975	 -1.378728	 0.252664
C	 1.330220	 -0.826136	 -0.155230
H	 0.359542	 1.097229	 -0.145561
H	 0.212134	 0.218135	 1.348778
C	 2.719700	 -0.407669	 0.328325
H	 1.339388	 -0.911200	 -1.239363
H	 1.119001	 -1.821953	 0.224128
C	 3.241564	 0.893452	 -0.276737
H	 3.418299	 -1.204729	 0.093035
H	 2.711776	 -0.323368	 1.411960
H	 3.254204	 0.841071	 -1.360784
H	 2.634460	 1.745075	 0.005842
H	 4.254264	 1.092401	 0.054971

	symmetry c1
}
set optking {
	frozen_dihedral = ("
		1 2 3 5
	")
}

ee,wfn = optimize('scf', return_wfn=True)
oeprop( wfn, 'DIPOLE', 'QUADRUPOLE', 'MULLIKEN_CHARGES')
f=open( 'psi4out.xyz', 'w' )
f.write( "21  " )
f.write( str(ee) + "\n" )
f.write( MOL.save_string_xyz() )
f.close()
--------------------------------------------------------------------------

    Molecular point group: c1
  Charge       = 0
  Multiplicity = 1
  Basis Set: CC-PVTZ
  Basis Set:
  @DF-RHF Final Energy:  -310.33165425335346
    Total Energy =                       -310.3316542533538041
    Molecular point group: c1
  Basis Set: CC-PVTZ
  Basis Set:
  Basis Set: CC-PVTZ
  Basis Set:
  @DF-RHF Final Energy:  -310.33176807281973
    Total Energy =                       -310.3317680728196137
  Basis Set: CC-PVTZ
  Basis Set:
  Basis Set: CC-PVTZ
  Basis Set:
  @DF-RHF Final Energy:  -310.33182306786398
    Total Energy =                       -310.3318230678640930
  Basis Set: CC-PVTZ
  Basis Set:
  Charge       = 0
  Multiplicity = 1
  Basis Set: CC-PVTZ
  Basis Set:

    Orbital Energies (a.u.)
    -----------------------

    Doubly Occupied:

       1A    -20.544424     2A    -11.265274     3A    -11.213334
       4A    -11.213234     5A    -11.211540     6A    -11.208876
       7A    -11.206409     8A     -1.362039     9A     -1.087548
      10A     -1.034513    11A     -0.955688    12A     -0.876997
      13A     -0.808932    14A     -0.779342    15A     -0.701192
      16A     -0.655352    17A     -0.624204    18A     -0.604294
      19A     -0.591173    20A     -0.572582    21A     -0.537486
      22A     -0.522178    23A     -0.511922    24A     -0.486664
      25A     -0.480579    26A     -0.462029    27A     -0.457014
      28A     -0.452825    29A     -0.428023

  @DF-RHF Final Energy:  -310.33182264620694

   => Energetics <=

    Nuclear Repulsion Energy =            312.7065666893350340
    One-Electron Energy =               -1040.3654486471100427
    Two-Electron Energy =                 417.3270593115679503
    DFT Exchange-Correlation Energy =       0.0000000000000000
    Empirical Dispersion Energy =           0.0000000000000000
    PCM Polarization Energy =               0.0000000000000000
    EFP Energy =                            0.0000000000000000
    Total Energy =                       -310.3318226462071152
    Molecular point group: c1
  Basis Set: CC-PVTZ
  Basis Set:

  -Total Gradient:
     Atom            X                  Y                   Z
    ------   -----------------  -----------------  -----------------
       1        0.000482708032    -0.000216039700    -0.001297005088
       2       -0.000851855057     0.000382008570     0.001808421106
       3        0.000835129776    -0.000714141020    -0.001485517279
       4        0.000010331064     0.000012497631     0.000057023323
       5       -0.000521264695     0.000494162457     0.000962399952
       6        0.000040789416     0.000007923546    -0.000016229435
       7       -0.000026355437    -0.000003458192    -0.000033203268
       8       -0.000002766614     0.000016343879     0.000015469230
       9       -0.000023320229     0.000001198802    -0.000001976743
      10        0.000014233891     0.000039928405    -0.000029912266
      11       -0.000029734277    -0.000046049133     0.000006215084
      12        0.000004868236     0.000006231505    -0.000001461335
      13       -0.000011772234     0.000014626757     0.000038409536
      14       -0.000000638640     0.000020736657    -0.000004984778
      15        0.000003513598    -0.000000835810    -0.000018844113
      16        0.000026350163    -0.000002989756    -0.000006491158
      17        0.000006880040    -0.000003681871     0.000019856446
      18       -0.000004752559     0.000016907202     0.000002862989
      19       -0.000005417681     0.000006721578    -0.000009466114
      20        0.000051761033    -0.000021654228     0.000004939209
      21        0.000001312178    -0.000010437277    -0.000010505298

  **** Optimization is complete! (in 4 steps) ****
    Final optimized geometry and variables:
    Molecular point group: c1

    Geometry (in Angstrom), charge = 0, multiplicity = 1:

    H           -4.122667925705     0.631731224933    -0.444204015802
    O           -3.535025210256    -0.033798340745    -0.142234234061
    C           -2.302626887857     0.529362034807     0.231607632390
    C           -1.174297949579    -0.394976967722    -0.181979353229
    H           -2.174393606092     1.507509875733    -0.224287632036
    H           -2.283741117357     0.676863992919     1.308662499582
    C            0.197454910020     0.109859894578     0.255843483619
    H           -1.201434681405    -0.514988100337    -1.260605249653
    H           -1.363568202856    -1.375292242713     0.244066554641
    C            1.332337455502    -0.821802608623    -0.165805877485
    H            0.360678290304     1.101148812638    -0.156352518009
    H            0.213075758678     0.221910853193     1.337688675577
    C            2.720337231794    -0.408442563187     0.326392157879
    H            1.346502618112    -0.901528663959    -1.250306727184
    H            1.117527999907    -1.819056692516     0.207592301036
    C            3.250614259148     0.891132559042    -0.274524078566
    H            3.417591830648    -1.207677017688     0.094606259850
    H            2.706231572741    -0.324953651990     1.409967877196
    H            3.266910153954     0.840531133991    -1.358617383501
    H            2.646720308471     1.745180659727     0.007484003517
    H            4.263058678198     1.084596879878     0.061103762472

  Mulliken Charges: (a.u.)
   Center  Symbol    Alpha    Beta     Spin     Total
       1     H     0.39224  0.39224  0.00000  0.21552
       2     O     4.20175  4.20175  0.00000 -0.40350
       3     C     2.96660  2.96660  0.00000  0.06680
       4     C     3.08075  3.08075  0.00000 -0.16149
       5     H     0.47520  0.47520  0.00000  0.04959
       6     H     0.47008  0.47008  0.00000  0.05983
       7     C     3.10368  3.10368  0.00000 -0.20737
       8     H     0.45399  0.45399  0.00000  0.09202
       9     H     0.44992  0.44992  0.00000  0.10015
      10     C     3.09384  3.09384  0.00000 -0.18767
      11     H     0.45426  0.45426  0.00000  0.09149
      12     H     0.45464  0.45464  0.00000  0.09073
      13     C     3.08996  3.08996  0.00000 -0.17992
      14     H     0.45344  0.45344  0.00000  0.09312
      15     H     0.44856  0.44856  0.00000  0.10287
      16     C     3.15237  3.15237  0.00000 -0.30474
      17     H     0.44842  0.44842  0.00000  0.10317
      18     H     0.45478  0.45478  0.00000  0.09045
      19     H     0.45489  0.45489  0.00000  0.09023
      20     H     0.45427  0.45427  0.00000  0.09146
      21     H     0.44638  0.44638  0.00000  0.10725

   Total alpha = 29.00000, Total beta = 29.00000, Total charge = -0.00000

*** Psi4 exiting successfully. Buy a developer a beer!
