  ==> Input File <==

--------------------------------------------------------------------------
set {
	reference rhf
	basis cc-pvtz
}

set_num_threads( 4 )
memory 2 gb

molecule MOL {
0 1

H	 1.923018	 -0.717474	 0.879888
O	 1.583947	 -0.677544	 -0.001533
C	 0.489979	 0.078084	 0.002623
C	 -0.763662	 -0.754014	 0.000816
O	 0.539051	 1.259395	 -0.000088
C	 -2.038001	 0.074705	 -0.000833
H	 -0.712945	 -1.405886	 -0.864342
H	 -0.715137	 -1.405770	 0.866182
H	 -2.087267	 0.710831	 -0.874232
H	 -2.903419	 -0.576199	 -0.001922
H	 -2.089467	 0.710909	 0.872389

	symmetry c1
}
set optking {
	frozen_dihedral = ("
		1 2 3 5
	")
}

ee = optimize('scf')
oeprop('DIPOLE', 'QUADRUPOLE', 'MULLIKEN_CHARGES')
f=open( 'psi4out.xyz', 'w' )
f.write( "11  " )
f.write( str(ee) + "\n" )
f.write( MOL.save_string_xyz() )
f.close()
--------------------------------------------------------------------------

    Molecular point group: c1
  Charge       = 0
  Multiplicity = 1
  Basis Set: CC-PVTZ
  Basis Set:
  @DF-RHF Final Energy:  -266.93311299933941
    Total Energy =                       -266.9331129993396416
    Molecular point group: c1
  Basis Set: CC-PVTZ
  Basis Set:
  Basis Set: CC-PVTZ
  Basis Set:
  @DF-RHF Final Energy:  -266.93293420969650
    Total Energy =                       -266.9329342096966684
  Basis Set: CC-PVTZ
  Basis Set:
  Basis Set: CC-PVTZ
  Basis Set:
  @DF-RHF Final Energy:  -266.93383440518812
    Total Energy =                       -266.9338344051880654
  Basis Set: CC-PVTZ
  Basis Set:
  Basis Set: CC-PVTZ
  Basis Set:
  @DF-RHF Final Energy:  -266.93470870432418
    Total Energy =                       -266.9347087043241800
  Basis Set: CC-PVTZ
  Basis Set:
  Basis Set: CC-PVTZ
  Basis Set:
  @DF-RHF Final Energy:  -266.93471841316261
    Total Energy =                       -266.9347184131627273
  Basis Set: CC-PVTZ
  Basis Set:
  Charge       = 0
  Multiplicity = 1
  Basis Set: CC-PVTZ
  Basis Set:

    Orbital Energies (a.u.)
    -----------------------

    Doubly Occupied:

       1A    -20.587419     2A    -20.551449     3A    -11.375047
       4A    -11.244222     5A    -11.219854     6A     -1.464807
       7A     -1.371317     8A     -1.065391     9A     -0.912416
      10A     -0.807817    11A     -0.713313    12A     -0.680129
      13A     -0.661535    14A     -0.614779    15A     -0.569816
      16A     -0.529750    17A     -0.524375    18A     -0.502549
      19A     -0.495398    20A     -0.449398

  @DF-RHF Final Energy:  -266.93471926312566

   => Energetics <=

    Nuclear Repulsion Energy =            179.3965351766324829
    One-Electron Energy =                -719.9809498467589037
    Two-Electron Energy =                 273.6496954070009906
    DFT Exchange-Correlation Energy =       0.0000000000000000
    Empirical Dispersion Energy =           0.0000000000000000
    PCM Polarization Energy =               0.0000000000000000
    EFP Energy =                            0.0000000000000000
    Total Energy =                       -266.9347192631254302
    Molecular point group: c1
  Basis Set: CC-PVTZ
  Basis Set:

  -Total Gradient:
     Atom            X                  Y                   Z
    ------   -----------------  -----------------  -----------------
       1       -0.002933937910    -0.004471166874     0.001140566414
       2        0.003472460558     0.005670934252    -0.003590464857
       3       -0.000272100445    -0.001131597352     0.007214777540
       4       -0.000005467579     0.000036459042     0.000043458484
       5       -0.000262707962    -0.000067247579    -0.004783551415
       6        0.000004221345    -0.000010983186    -0.000012489534
       7       -0.000001207752    -0.000007037702    -0.000010918621
       8       -0.000010144178    -0.000016085271    -0.000007492255
       9        0.000002665946     0.000000319482    -0.000000819663
      10        0.000003140936    -0.000001611189     0.000003036863
      11        0.000003077042    -0.000001983622     0.000003897045

  **** Optimization is complete! (in 6 steps) ****
    Final optimized geometry and variables:
    Molecular point group: c1

    Geometry (in Angstrom), charge = 0, multiplicity = 1:

    H            2.039853545068    -0.729775572337     0.806768763160
    O            1.617377674137    -0.670706517762    -0.034129132974
    C            0.490882039268     0.087494134598     0.018900234615
    C           -0.767604940909    -0.738069301204    -0.001826616019
    O            0.533183062089     1.260955828528     0.002565286522
    C           -2.044387864677     0.085480419128    -0.032699271582
    H           -0.694499579532    -1.394950941362    -0.861992465756
    H           -0.737683678184    -1.391524902285     0.865056962225
    H           -2.075945877143     0.718365287671    -0.909372236279
    H           -2.908785289536    -0.566790963232    -0.050114273584
    H           -2.116830377623     0.725478544588     0.836646371920

  Mulliken Charges: (a.u.)
   Center  Symbol    Alpha    Beta     Spin     Total
       1     H     0.38582  0.38582  0.00000  0.22835
       2     O     4.17690  4.17690  0.00000 -0.35380
       3     C     2.80244  2.80244  0.00000  0.39512
       4     C     3.10080  3.10080  0.00000 -0.20161
       5     O     4.16288  4.16288  0.00000 -0.32575
       6     C     3.13948  3.13948  0.00000 -0.27896
       7     H     0.43811  0.43811  0.00000  0.12378
       8     H     0.44824  0.44824  0.00000  0.10352
       9     H     0.44640  0.44640  0.00000  0.10721
      10     H     0.44996  0.44996  0.00000  0.10008
      11     H     0.44897  0.44897  0.00000  0.10206

   Total alpha = 20.00000, Total beta = 20.00000, Total charge =  0.00000
