  ==> Input File <==

--------------------------------------------------------------------------
set {
	reference rhf
	basis cc-pvtz
}

set_num_threads( 4 )
memory 2 gb

molecule MOL {
0 1

H	 1.873800	 0.589599	 1.133773
O	 1.094580	 0.057157	 1.186590
C	 0.489979	 0.078084	 0.002623
C	 -0.763662	 -0.754014	 0.000816
O	 0.922268	 0.684028	 -0.916000
C	 -2.038001	 0.074705	 -0.000833
H	 -0.712945	 -1.405886	 -0.864342
H	 -0.715137	 -1.405770	 0.866182
H	 -2.087267	 0.710831	 -0.874232
H	 -2.903419	 -0.576199	 -0.001922
H	 -2.089467	 0.710909	 0.872389

	symmetry c1
}
set optking {
	frozen_dihedral = ("
		2 3 4 7
	")
}

ee = optimize('scf')
oeprop('DIPOLE', 'QUADRUPOLE', 'MULLIKEN_CHARGES')
f=open( 'psi4out.xyz', 'w' )
f.write( "11  " )
f.write( str(ee) + "\n" )
f.write( MOL.save_string_xyz() )
f.close()
--------------------------------------------------------------------------

    Molecular point group: c1
  Charge       = 0
  Multiplicity = 1
  Basis Set: CC-PVTZ
  Basis Set:
  @DF-RHF Final Energy:  -266.95051273037200
    Total Energy =                       -266.9505127303721679
    Molecular point group: c1
  Basis Set: CC-PVTZ
  Basis Set:
  Basis Set: CC-PVTZ
  Basis Set:
  @DF-RHF Final Energy:  -266.95107148272757
    Total Energy =                       -266.9510714827275706
  Basis Set: CC-PVTZ
  Basis Set:
  Basis Set: CC-PVTZ
  Basis Set:
  @DF-RHF Final Energy:  -266.94972803613791
    Total Energy =                       -266.9497280361379694
  Basis Set: CC-PVTZ
  Basis Set:
  Basis Set: CC-PVTZ
  Basis Set:
  @DF-RHF Final Energy:  -266.95128226512134
    Total Energy =                       -266.9512822651215629
  Basis Set: CC-PVTZ
  Basis Set:
  Basis Set: CC-PVTZ
  Basis Set:
  @DF-RHF Final Energy:  -266.95128761055156
    Total Energy =                       -266.9512876105513897
  Basis Set: CC-PVTZ
  Basis Set:
  Charge       = 0
  Multiplicity = 1
  Basis Set: CC-PVTZ
  Basis Set:

    Orbital Energies (a.u.)
    -----------------------

    Doubly Occupied:

       1A    -20.607282     2A    -20.538764     3A    -11.374008
       4A    -11.241465     5A    -11.227338     6A     -1.479001
       7A     -1.369221     8A     -1.067626     9A     -0.915693
      10A     -0.814390    11A     -0.707081    12A     -0.690616
      13A     -0.648513    14A     -0.615154    15A     -0.596206
      16A     -0.541092    17A     -0.527612    18A     -0.512628
      19A     -0.479043    20A     -0.445362

  @DF-RHF Final Energy:  -266.95128777402300

   => Energetics <=

    Nuclear Repulsion Energy =            180.1835440664452221
    One-Electron Energy =                -721.4734744433332025
    Two-Electron Energy =                 274.3386426028649794
    DFT Exchange-Correlation Energy =       0.0000000000000000
    Empirical Dispersion Energy =           0.0000000000000000
    PCM Polarization Energy =               0.0000000000000000
    EFP Energy =                            0.0000000000000000
    Total Energy =                       -266.9512877740229442
    Molecular point group: c1
  Basis Set: CC-PVTZ
  Basis Set:

  -Total Gradient:
     Atom            X                  Y                   Z
    ------   -----------------  -----------------  -----------------
       1       -0.000018570287     0.000004713136    -0.000010656598
       2        0.000032041344    -0.000065088289     0.000046748960
       3       -0.000009355904     0.000078048104    -0.000070537651
       4       -0.000028597922     0.000032283691    -0.000004826293
       5       -0.000020389386    -0.000021796731     0.000016515570
       6        0.000024626805    -0.000004493361    -0.000000246996
       7        0.000031871944    -0.000025506537     0.000025084034
       8       -0.000003052964    -0.000000287316    -0.000000850581
       9       -0.000002902623     0.000002286735     0.000000591676
      10       -0.000001838938    -0.000002636988    -0.000001108795
      11       -0.000003832067     0.000002477557    -0.000000713325

  **** Optimization is complete! (in 6 steps) ****
    Final optimized geometry and variables:
    Molecular point group: c1

    Geometry (in Angstrom), charge = 0, multiplicity = 1:

    H            1.923075223692     0.571505879713     1.021706229769
    O            1.172099966593     0.000985873930     1.093655440784
    C            0.514752700848     0.027022253020    -0.060137625475
    C           -0.723934624415    -0.830290470910    -0.055555821698
    O            0.877986270911     0.678984350709    -0.978161451882
    C           -1.986874443748     0.032795816827    -0.089022830416
    H           -0.680522800200    -1.450796827219    -0.941244786781
    H           -0.719161970000    -1.470948196372     0.814114772748
    H           -1.989593259564     0.671688393286    -0.961559325361
    H           -2.866136495012    -0.597524401173    -0.121562003394
    H           -2.055950053678     0.658337129495     0.793093343238

  Mulliken Charges: (a.u.)
   Center  Symbol    Alpha    Beta     Spin     Total
       1     H     0.37983  0.37983  0.00000  0.24035
       2     O     4.16046  4.16046  0.00000 -0.32091
       3     C     2.79986  2.79986  0.00000  0.40028
       4     C     3.08982  3.08982  0.00000 -0.17964
       5     O     4.19946  4.19946  0.00000 -0.39892
       6     C     3.14709  3.14709  0.00000 -0.29418
       7     H     0.44183  0.44183  0.00000  0.11634
       8     H     0.43996  0.43996  0.00000  0.12008
       9     H     0.44245  0.44245  0.00000  0.11511
      10     H     0.44787  0.44787  0.00000  0.10425
      11     H     0.45138  0.45138  0.00000  0.09725

   Total alpha = 20.00000, Total beta = 20.00000, Total charge = -0.00000
