                              Psi4 1.0.54 Driver

  ==> Input File <==

--------------------------------------------------------------------------
set {
	reference rhf
	basis cc-pvtz
}

set_num_threads( 4 )
memory 2 gb

molecule MOL {
0 1

H	 -3.258660	 -0.290394	 1.471450
C	 -3.307964	 -0.275695	 0.374072
C	 -2.653809	 0.914422	 -0.273689
O	 -3.855140	 -1.148880	 -0.205112
C	 -1.216901	 1.136108	 0.207794
H	 -2.700131	 0.790676	 -1.347875
H	 -3.256452	 1.781007	 -0.010713
C	 -0.247837	 0.040196	 -0.230469
H	 -0.872882	 2.093195	 -0.169002
H	 -1.209325	 1.218376	 1.291938
C	 1.181757	 0.280428	 0.247371
H	 -0.259600	 -0.030819	 -1.314870
H	 -0.591284	 -0.923375	 0.136958
C	 2.151032	 -0.811012	 -0.202643
H	 1.515939	 1.247397	 -0.115449
H	 1.191514	 0.341223	 1.333422
C	 3.580021	 -0.656538	 0.320835
H	 2.170545	 -0.847575	 -1.289412
H	 1.766632	 -1.772905	 0.124928
C	 4.653730	 -0.592682	 -0.762750
H	 3.796781	 -1.494931	 0.975438
H	 3.640307	 0.234049	 0.940938
H	 4.613190	 -1.468123	 -1.403028
H	 4.544572	 0.282468	 -1.391941
H	 5.642929	 -0.553512	 -0.321257

	symmetry c1
}
set optking {
	frozen_dihedral = ("
		20 17 14 18
	")
}

ee,wfn = optimize('scf', return_wfn=True)
oeprop( wfn, 'DIPOLE', 'QUADRUPOLE', 'MULLIKEN_CHARGES')
f=open( 'psi4out.xyz', 'w' )
f.write( "25  " )
f.write( str(ee) + "\n" )
f.write( MOL.save_string_xyz() )
f.close()
--------------------------------------------------------------------------

    Molecular point group: c1
  Charge       = 0
  Multiplicity = 1
  Basis Set: CC-PVTZ
  Basis Set:
  @DF-RHF Final Energy:  -387.25603329049312
    Total Energy =                       -387.2560332904936331
    Molecular point group: c1
  Basis Set: CC-PVTZ
  Basis Set:
  Basis Set: CC-PVTZ
  Basis Set:
  @DF-RHF Final Energy:  -387.25629831570376
    Total Energy =                       -387.2562983157040435
  Basis Set: CC-PVTZ
  Basis Set:
  Basis Set: CC-PVTZ
  Basis Set:
  @DF-RHF Final Energy:  -387.25656365829781
    Total Energy =                       -387.2565636582975230
  Basis Set: CC-PVTZ
  Basis Set:
  Basis Set: CC-PVTZ
  Basis Set:
  @DF-RHF Final Energy:  -387.25648184967656
    Total Energy =                       -387.2564818496770158
  Basis Set: CC-PVTZ
  Basis Set:
  Basis Set: CC-PVTZ
  Basis Set:
  @DF-RHF Final Energy:  -387.25655366706627
    Total Energy =                       -387.2565536670663278
  Basis Set: CC-PVTZ
  Basis Set:
  Basis Set: CC-PVTZ
  Basis Set:
  @DF-RHF Final Energy:  -387.25657147749814
    Total Energy =                       -387.2565714774985963
  Basis Set: CC-PVTZ
  Basis Set:
  Charge       = 0
  Multiplicity = 1
  Basis Set: CC-PVTZ
  Basis Set:

    Orbital Energies (a.u.)
    -----------------------

    Doubly Occupied:

       1A    -20.551429     2A    -11.321027     3A    -11.233862
       4A    -11.232966     5A    -11.221614     6A    -11.218758
       7A    -11.215585     8A    -11.214457     9A    -11.209087
      10A     -1.406448    11A     -1.104935    12A     -1.069571
      13A     -1.015902    14A     -0.944296    15A     -0.869380
      16A     -0.816616    17A     -0.793963    18A     -0.787694
      19A     -0.668040    20A     -0.663788    21A     -0.637163
      22A     -0.619451    23A     -0.609248    24A     -0.592194
      25A     -0.572561    26A     -0.555883    27A     -0.535727
      28A     -0.521488    29A     -0.512559    30A     -0.501404
      31A     -0.484472    32A     -0.482253    33A     -0.467003
      34A     -0.458479    35A     -0.441091    36A     -0.411930

  @DF-RHF Final Energy:  -387.25657136440253

   => Energetics <=

    Nuclear Repulsion Energy =            436.6592618192633495
    One-Electron Energy =               -1389.9070134381922799
    Two-Electron Energy =                 565.9911802545258297
    DFT Exchange-Correlation Energy =       0.0000000000000000
    Empirical Dispersion Energy =           0.0000000000000000
    PCM Polarization Energy =               0.0000000000000000
    EFP Energy =                            0.0000000000000000
    Total Energy =                       -387.2565713644031575
    Molecular point group: c1
  Basis Set: CC-PVTZ
  Basis Set:

  -Total Gradient:
     Atom            X                  Y                   Z
    ------   -----------------  -----------------  -----------------
       1        0.000005329804     0.000002588353    -0.000006233829
       2       -0.000011534737    -0.000000289760     0.000009556796
       3       -0.000005236917    -0.000008896596     0.000003985423
       4        0.000008172001     0.000002334135    -0.000004633693
       5        0.000005194655    -0.000008697141     0.000012867119
       6        0.000001669445     0.000001015852    -0.000000968333
       7        0.000002537790    -0.000000945619     0.000003379727
       8       -0.000010402417    -0.000008309739    -0.000001693085
       9        0.000000304409    -0.000004948619    -0.000004720445
      10       -0.000002515996     0.000007914135     0.000005045087
      11        0.000006568680     0.000020449902    -0.000024697055
      12        0.000010381638     0.000005921859     0.000001926608
      13       -0.000007264928    -0.000004359377    -0.000004232978
      14       -0.000113762776     0.001014079080    -0.000062115978
      15       -0.000003514009     0.000001337829    -0.000008646428
      16        0.000002650057     0.000006224514    -0.000002067556
      17        0.000075613827    -0.000832729888     0.000066256673
      18        0.000072780859    -0.000639330849     0.000045007924
      19        0.000002956610    -0.000007536735    -0.000005441405
      20       -0.000061799171     0.000453076908    -0.000032724906
      21        0.000013071888    -0.000008185559    -0.000006667512
      22        0.000004225616     0.000002790146     0.000019304383
      23        0.000011900540    -0.000013527520     0.000000604475
      24       -0.000011217495     0.000001221417    -0.000010597534
      25        0.000003890622     0.000018803274     0.000007506523

  **** Optimization is complete! (in 7 steps) ****
    Final optimized geometry and variables:
    Molecular point group: c1

    Geometry (in Angstrom), charge = 0, multiplicity = 1:

    H           -3.315472735585    -0.098611053587     1.511798413906
    C           -3.352951351592    -0.087000475363     0.413914098689
    C           -2.665708295109     1.085795744338    -0.231238816230
    O           -3.913364143963    -0.949914683925    -0.167976829769
    C           -1.230168439988     1.278671631257     0.266131405130
    H           -2.702231569821     0.958272714235    -1.305371429246
    H           -3.252638894585     1.966271890272     0.020908520554
    C           -0.280303165067     0.159330313732    -0.154868223020
    H           -0.860672469075     2.225843345836    -0.111605670671
    H           -1.233581167266     1.366755876759     1.349818418380
    C            1.148439977847     0.372456313708     0.335261670344
    H           -0.283161753591     0.080156722133    -1.238759139245
    H           -0.647336634670    -0.794148019665     0.216426693982
    C            2.105893977699    -0.739774951666    -0.086012941701
    H            1.519174241207     1.324010111026    -0.039116493228
    H            1.148977246564     0.452576559687     1.419758692635
    C            3.553123699762    -0.530459137096     0.405576038883
    H            2.097382535131    -0.821540564135    -1.168938634114
    H            1.725602687883    -1.687482996804     0.282071545816
    C            4.580535732797    -0.491987958994    -0.722109025377
    H            3.822693553092    -1.315294066844     1.103737664446
    H            3.614994585423     0.397923586920     0.964766039023
    H            4.582949981354    -1.421818231563    -1.281095818079
    H            4.362628386615     0.310152592135    -1.419802004934
    H            5.581810458883    -0.334057554220    -0.337415422836

  Mulliken Charges: (a.u.)
   Center  Symbol    Alpha    Beta     Spin     Total
       1     H     0.46416  0.46416  0.00000  0.07169
       2     C     2.90475  2.90475  0.00000  0.19051
       3     C     3.08921  3.08921  0.00000 -0.17841
       4     O     4.16624  4.16624  0.00000 -0.33248
       5     C     3.11622  3.11622  0.00000 -0.23245
       6     H     0.44290  0.44290  0.00000  0.11420
       7     H     0.44047  0.44047  0.00000  0.11906
       8     C     3.09133  3.09133  0.00000 -0.18266
       9     H     0.44312  0.44312  0.00000  0.11377
      10     H     0.44983  0.44983  0.00000  0.10035
      11     C     3.09123  3.09123  0.00000 -0.18247
      12     H     0.44951  0.44951  0.00000  0.10099
      13     H     0.44851  0.44851  0.00000  0.10298
      14     C     3.09454  3.09454  0.00000 -0.18909
      15     H     0.45282  0.45282  0.00000  0.09436
      16     H     0.45281  0.45281  0.00000  0.09439
      17     C     3.08962  3.08962  0.00000 -0.17924
      18     H     0.45340  0.45340  0.00000  0.09320
      19     H     0.44847  0.44847  0.00000  0.10306
      20     C     3.14714  3.14714  0.00000 -0.29429
      21     H     0.44950  0.44950  0.00000  0.10099
      22     H     0.45498  0.45498  0.00000  0.09003
      23     H     0.45393  0.45393  0.00000  0.09213
      24     H     0.45586  0.45586  0.00000  0.08829
      25     H     0.44945  0.44945  0.00000  0.10110

   Total alpha = 36.00000, Total beta = 36.00000, Total charge = -0.00000

*** Psi4 exiting successfully. Buy a developer a beer!
