  ==> Input File <==

--------------------------------------------------------------------------
set {
	reference rhf
	basis 6-31G*
}

set_num_threads( 1 )
memory 2 gb

molecule MOL {
0 1

O	 0.687587	 0.393122	 2.649294
C	 1.241269	 -0.270356	 1.833026
C	 1.245376	 -0.013843	 0.345420
O	 1.946931	 -1.353184	 2.134946
C	 0.455112	 1.231400	 -0.050772
H	 2.283464	 0.047582	 0.035918
H	 0.843963	 -0.901671	 -0.136583
C	 -0.998893	 1.219485	 0.433193
H	 0.482531	 1.345121	 -1.130325
H	 0.957290	 2.103070	 0.354729
C	 -1.883438	 0.145884	 -0.207175
H	 -1.431207	 2.195402	 0.224832
H	 -1.019646	 1.105716	 1.516076
C	 -3.347647	 0.245583	 0.225435
H	 -1.822183	 0.231698	 -1.291012
H	 -1.510341	 -0.844814	 0.042401
C	 -4.239992	 -0.825570	 -0.404234
H	 -3.732888	 1.230466	 -0.033079
H	 -3.408585	 0.170602	 1.310038
C	 -5.701275	 -0.716658	 0.029921
H	 -4.179496	 -0.752714	 -1.488058
H	 -3.859041	 -1.810759	 -0.143352
H	 -6.308102	 -1.488908	 -0.432678
H	 -6.122175	 0.245478	 -0.248167
H	 -5.799072	 -0.820114	 1.106957
C	 2.023430	 -1.709388	 3.503212
H	 2.483732	 -0.917843	 4.076869
H	 2.629716	 -2.600942	 3.542655
H	 1.038272	 -1.908664	 3.899811

	symmetry c1
}
set optking {
	frozen_dihedral = ("
		21 17 14 11,
		17 14 11 15,
		15 11 8 5,
		11 8 5 9,
		2 4 26 27,
		1 2 4 26,
		6 3 2 1
	")
}

ee = energy('scf')
oeprop('DIPOLE', 'QUADRUPOLE', 'MULLIKEN_CHARGES')
f=open( 'psi4out.xyz', 'w' )
f.write( "29  " )
f.write( str(ee) + "\n" )
f.write( MOL.save_string_xyz() )
f.close()
--------------------------------------------------------------------------

    Molecular point group: c1

    Geometry (in Angstrom), charge = 0, multiplicity = 1:

       Center              X                  Y                   Z               Mass
    ------------   -----------------  -----------------  -----------------  -----------------
           O          1.452969036013     0.564343297692     1.660778995285    15.994914619560
           C          2.006651036013    -0.099134702308     0.844510995285    12.000000000000
           C          2.010758036013     0.157378297692    -0.643095004715    12.000000000000
           O          2.712313036013    -1.181962702308     1.146430995285    15.994914619560
           C          1.220494036013     1.402621297692    -1.039287004715    12.000000000000
           H          3.048846036013     0.218803297692    -0.952597004715     1.007825032070
           H          1.609345036013    -0.730449702308    -1.125098004715     1.007825032070
           C         -0.233510963987     1.390706297692    -0.555322004715    12.000000000000
           H          1.247913036013     1.516342297692    -2.118840004715     1.007825032070
           H          1.722672036013     2.274291297692    -0.633786004715     1.007825032070
           C         -1.118055963987     0.317105297692    -1.195690004715    12.000000000000
           H         -0.665824963987     2.366623297692    -0.763683004715     1.007825032070
           H         -0.254263963987     1.276937297692     0.527560995285     1.007825032070
           C         -2.582264963987     0.416804297692    -0.763080004715    12.000000000000
           H         -1.056800963987     0.402919297692    -2.279527004715     1.007825032070
           H         -0.744958963987    -0.673592702308    -0.946114004715     1.007825032070
           C         -3.474609963987    -0.654348702308    -1.392749004715    12.000000000000
           H         -2.967505963987     1.401687297692    -1.021594004715     1.007825032070
           H         -2.643202963987     0.341823297692     0.321522995285     1.007825032070
           C         -4.935892963986    -0.545436702308    -0.958594004715    12.000000000000
           H         -3.414113963987    -0.581492702308    -2.476573004715     1.007825032070
           H         -3.093658963986    -1.639537702308    -1.131867004715     1.007825032070
           H         -5.542719963987    -1.317686702308    -1.421193004715     1.007825032070
           H         -5.356792963987     0.416699297692    -1.236682004715     1.007825032070
           H         -5.033689963986    -0.648892702308     0.118441995285     1.007825032070
           C          2.788812036013    -1.538166702308     2.514696995285    12.000000000000
           H          3.249114036013    -0.746621702308     3.088353995285     1.007825032070
           H          3.395098036014    -2.429720702308     2.554139995285     1.007825032070
           H          1.803654036013    -1.737442702308     2.911295995285     1.007825032070

  Charge       = 0
  Multiplicity = 1
  Basis Set: 6-31G*
  Basis Set:

    Orbital Energies (a.u.)
    -----------------------

    Doubly Occupied:

       1A    -20.605365     2A    -20.547305     3A    -11.374448
       4A    -11.282137     5A    -11.235260     6A    -11.219198
       7A    -11.211684     8A    -11.209421     9A    -11.208641
      10A    -11.205611    11A    -11.201613    12A     -1.471666
      13A     -1.366055    14A     -1.093430    15A     -1.064108
      16A     -1.015310    17A     -0.976380    18A     -0.924198
      19A     -0.859735    20A     -0.797543    21A     -0.785213
      22A     -0.766072    23A     -0.697208    24A     -0.683698
      25A     -0.670816    26A     -0.648283    27A     -0.622964
      28A     -0.616070    29A     -0.584494    30A     -0.577848
      31A     -0.562351    32A     -0.544979    33A     -0.536734
      34A     -0.525542    35A     -0.517885    36A     -0.501526
      37A     -0.499739    38A     -0.480022    39A     -0.469210
      40A     -0.459595    41A     -0.457056    42A     -0.451989
      43A     -0.432549    44A     -0.424865

  @DF-RHF Final Energy:  -501.03963527871440

   => Energetics <=

    Nuclear Repulsion Energy =            633.9084590343583159
    One-Electron Energy =               -1939.1244675407983777
    Two-Electron Energy =                 804.1763732277267991
    DFT Exchange-Correlation Energy =       0.0000000000000000
    Empirical Dispersion Energy =           0.0000000000000000
    PCM Polarization Energy =               0.0000000000000000
    EFP Energy =                            0.0000000000000000
    Total Energy =                       -501.0396352787133765

  Mulliken Charges: (a.u.)
   Center  Symbol    Alpha    Beta     Spin     Total
       1     O     4.28620  4.28620  0.00000 -0.57241
       2     C     2.60501  2.60501  0.00000  0.78997
       3     C     3.21144  3.21144  0.00000 -0.42288
       4     O     4.30691  4.30691  0.00000 -0.61381
       5     C     3.15506  3.15506  0.00000 -0.31011
       6     H     0.39761  0.39761  0.00000  0.20478
       7     H     0.39861  0.39861  0.00000  0.20278
       8     C     3.16878  3.16878  0.00000 -0.33756
       9     H     0.41848  0.41848  0.00000  0.16303
      10     H     0.41278  0.41278  0.00000  0.17443
      11     C     3.15313  3.15313  0.00000 -0.30627
      12     H     0.42386  0.42386  0.00000  0.15229
      13     H     0.39067  0.39067  0.00000  0.21866
      14     C     3.15000  3.15000  0.00000 -0.30000
      15     H     0.42680  0.42680  0.00000  0.14639
      16     H     0.42788  0.42788  0.00000  0.14423
      17     C     3.15106  3.15106  0.00000 -0.30213
      18     H     0.42399  0.42399  0.00000  0.15203
      19     H     0.42191  0.42191  0.00000  0.15617
      20     C     3.23917  3.23917  0.00000 -0.47835
      21     H     0.42391  0.42391  0.00000  0.15218
      22     H     0.42418  0.42418  0.00000  0.15165
      23     H     0.42020  0.42020  0.00000  0.15960
      24     H     0.42191  0.42191  0.00000  0.15617
      25     H     0.42165  0.42165  0.00000  0.15671
      26     C     3.09250  3.09250  0.00000 -0.18500
      27     H     0.40885  0.40885  0.00000  0.18229
      28     H     0.40809  0.40809  0.00000  0.18382
      29     H     0.40934  0.40934  0.00000  0.18132

   Total alpha = 44.00000, Total beta = 44.00000, Total charge =  0.00000
