  ==> Input File <==

--------------------------------------------------------------------------
set {
	reference rhf
	basis 6-31G*
}

set_num_threads( 4 )
memory 2 gb

molecule MOL {
0 1

H	 1.415034	 1.121410	 -2.390571
C	 0.684547	 0.918047	 -1.616000
C	 1.322923	 0.120767	 -0.479465
H	 0.300263	 1.870502	 -1.264536
H	 -0.136033	 0.371067	 -2.069933
C	 0.306652	 -0.176050	 0.621399
H	 2.150470	 0.677587	 -0.052210
H	 1.718010	 -0.816642	 -0.852871
N	 -1.068537	 -0.011044	 0.085269
H	 0.372515	 -1.192590	 0.973735
H	 0.391664	 0.520566	 1.441230
O	 -1.656956	 -0.997225	 -0.235017
O	 -1.478635	 1.104830	 -0.018026

	symmetry c1
}
set optking {
	frozen_dihedral = ("
		7 3 6 9
	")
}

ee = optimize('scf')
oeprop('DIPOLE', 'QUADRUPOLE', 'MULLIKEN_CHARGES')
f=open( 'psi4out.xyz', 'w' )
f.write( "13  " )
f.write( str(ee) + "\n" )
f.write( MOL.save_string_xyz() )
f.close()
--------------------------------------------------------------------------

    Molecular point group: c1
  Charge       = 0
  Multiplicity = 1
  Basis Set: 6-31G*
  Basis Set:
  @DF-RHF Final Energy:  -321.72281817146398
    Total Energy =                       -321.7228181714638708
    Molecular point group: c1
  Basis Set: 6-31G*
  Basis Set:
  Basis Set: 6-31G*
  Basis Set:
  @DF-RHF Final Energy:  -321.72425481697729
    Total Energy =                       -321.7242548169773499
  Basis Set: 6-31G*
  Basis Set:
  Basis Set: 6-31G*
  Basis Set:
  @DF-RHF Final Energy:  -321.72691062455885
    Total Energy =                       -321.7269106245589683
  Basis Set: 6-31G*
  Basis Set:
  Basis Set: 6-31G*
  Basis Set:
  @DF-RHF Final Energy:  -321.72743320833354
    Total Energy =                       -321.7274332083335366
  Basis Set: 6-31G*
  Basis Set:
  @DF-RHF Final Energy:  -321.72866776016110
    Total Energy =                       -321.7286677601611018
  @DF-RHF Final Energy:  -321.72906904322167
    Total Energy =                       -321.7290690432216138
  @DF-RHF Final Energy:  -321.72931070590840
    Total Energy =                       -321.7293107059081194
  Basis Set: 6-31G*
  Basis Set:
  @DF-RHF Final Energy:  -321.72943083895700
    Total Energy =                       -321.7294308389572279
  Basis Set: 6-31G*
  Basis Set:
  Basis Set: 6-31G*
  Basis Set:
  @DF-RHF Final Energy:  -321.72946289852291
    Total Energy =                       -321.7294628985231384
  Basis Set: 6-31G*
  Basis Set:
  Basis Set: 6-31G*
  Basis Set:
  @DF-RHF Final Energy:  -321.72947556552458
    Total Energy =                       -321.7294755655246377
  Basis Set: 6-31G*
  Basis Set:
  Charge       = 0
  Multiplicity = 1
  Basis Set: 6-31G*
  Basis Set:

    Orbital Energies (a.u.)
    -----------------------

    Doubly Occupied:

       1A    -20.602626     2A    -20.599176     3A    -15.846555
       4A    -11.299238     5A    -11.258075     6A    -11.229418
       7A     -1.630789     8A     -1.416062     9A     -1.130459
      10A     -1.022096    11A     -0.895379    12A     -0.820233
      13A     -0.751423    14A     -0.734526    15A     -0.725881
      16A     -0.667120    17A     -0.605545    18A     -0.590517
      19A     -0.534932    20A     -0.518504    21A     -0.512308
      22A     -0.479571    23A     -0.473999    24A     -0.448341

  @DF-RHF Final Energy:  -321.72947627059727

   => Energetics <=

    Nuclear Repulsion Energy =            254.5578076996486061
    One-Electron Energy =                -942.9890197109737073
    Two-Electron Energy =                 366.7017357407279405
    DFT Exchange-Correlation Energy =       0.0000000000000000
    Empirical Dispersion Energy =           0.0000000000000000
    PCM Polarization Energy =               0.0000000000000000
    EFP Energy =                            0.0000000000000000
    Total Energy =                       -321.7294762705971607
    Molecular point group: c1
  Basis Set: 6-31G*
  Basis Set:

  -Total Gradient:
     Atom            X                  Y                   Z
    ------   -----------------  -----------------  -----------------
       1        0.000004688448     0.000001989904    -0.000002668096
       2       -0.000024726919    -0.000026308939     0.000034823491
       3        0.002990212012    -0.003893530867     0.001670885505
       4       -0.000001530486     0.000002776360     0.000004644206
       5        0.000009892956    -0.000001609323     0.000014253658
       6       -0.000596658582    -0.004316936132    -0.001432039777
       7       -0.002464728966     0.004391505672    -0.001164742174
       8       -0.000000822429     0.000001586838    -0.000006787391
       9        0.000105198541     0.003839767634     0.000910143995
      10        0.000008161491    -0.000001517136    -0.000008302643
      11       -0.000018194014    -0.000003493253    -0.000013031811
      12        0.000017647937     0.000010772823     0.000014189115
      13       -0.000029139988    -0.000005003581    -0.000021368079

  **** Optimization is complete! (in 11 steps) ****
    Final optimized geometry and variables:
    Molecular point group: c1

    Geometry (in Angstrom), charge = 0, multiplicity = 1:

    H            1.920818476793     0.938122787822    -2.172909073632
    C            1.121820857763     0.758513952445    -1.462474578101
    C            1.669431161907    -0.044223953957    -0.277442621441
    H            0.731904538429     1.719320724226    -1.146345444326
    H            0.332975909445     0.224280653233    -1.977882374219
    C            0.665803671651    -0.305954604629     0.868629799083
    H            2.484860855516     0.526876567085     0.151530714836
    H            2.065409211675    -0.988004141535    -0.629442563546
    N           -0.742179148046    -0.174315093356     0.413918376763
    H            0.754441923120    -1.305803025523     1.261679871032
    H            0.768898462200     0.417499903252     1.659939562995
    O           -1.208769196350    -1.098828617767    -0.180149688071
    O           -1.305909905179     0.848538986142     0.651241707358

  Mulliken Charges: (a.u.)
   Center  Symbol    Alpha    Beta     Spin     Total
       1     H     0.41080  0.41080  0.00000  0.17840
       2     C     3.25679  3.25679  0.00000 -0.51358
       3     C     3.17044  3.17044  0.00000 -0.34088
       4     H     0.40605  0.40605  0.00000  0.18790
       5     H     0.40216  0.40216  0.00000  0.19567
       6     C     3.08534  3.08534  0.00000 -0.17068
       7     H     0.40675  0.40675  0.00000  0.18650
       8     H     0.40328  0.40328  0.00000  0.19344
       9     N     3.23020  3.23020  0.00000  0.53960
      10     H     0.38597  0.38597  0.00000  0.22805
      11     H     0.38749  0.38749  0.00000  0.22501
      12     O     4.22993  4.22993  0.00000 -0.45986
      13     O     4.22478  4.22478  0.00000 -0.44956

   Total alpha = 24.00000, Total beta = 24.00000, Total charge = -0.00000
