  ==> Input File <==

--------------------------------------------------------------------------
set {
	reference rhf
	basis 6-31G*
}

set_num_threads( 1 )
memory 2 gb

molecule MOL {
0 1

O	 -1.276010	 1.052711	 -0.768302
C	 -1.204840	 0.067374	 -0.106123
C	 -2.388195	 -0.672128	 0.458071
O	 -0.067104	 -0.527208	 0.221609
H	 -2.388023	 -1.694060	 0.097175
H	 -3.300579	 -0.174919	 0.164318
H	 -2.315377	 -0.706351	 1.539059
C	 1.118504	 0.267759	 0.364043
C	 2.283398	 -0.670207	 0.101689
C	 1.155937	 0.890519	 1.750914
H	 1.088500	 1.045347	 -0.384933
H	 2.210169	 -1.103851	 -0.889188
H	 3.221559	 -0.129454	 0.170782
H	 2.297667	 -1.476245	 0.827466
H	 2.062327	 1.474923	 1.873172
H	 0.308229	 1.547143	 1.899953
H	 1.141442	 0.118533	 2.513695

	symmetry c1
}
set optking {
	frozen_dihedral = ("
		11 8 4 2
	")
}

ee = energy('scf')
oeprop('DIPOLE', 'QUADRUPOLE', 'MULLIKEN_CHARGES')
f=open( 'psi4out.xyz', 'w' )
f.write( "17  " )
f.write( str(ee) + "\n" )
f.write( MOL.save_string_xyz() )
f.close()
--------------------------------------------------------------------------

    Molecular point group: c1

    Geometry (in Angstrom), charge = 0, multiplicity = 1:

       Center              X                  Y                   Z               Mass
    ------------   -----------------  -----------------  -----------------  -----------------
           O         -1.221677819337     0.994929503092    -1.061747752102    15.994914619560
           C         -1.150507819337     0.009592503092    -0.399568752102    12.000000000000
           C         -2.333862819337    -0.729909496908     0.164625247898    12.000000000000
           O         -0.012771819337    -0.584989496908    -0.071836752102    15.994914619560
           H         -2.333690819337    -1.751841496908    -0.196270752102     1.007825032070
           H         -3.246246819337    -0.232700496908    -0.129127752102     1.007825032070
           H         -2.261044819337    -0.764132496908     1.245613247898     1.007825032070
           C          1.172836180663     0.209977503092     0.070597247898    12.000000000000
           C          2.337730180663    -0.727988496908    -0.191756752102    12.000000000000
           C          1.210269180663     0.832737503092     1.457468247898    12.000000000000
           H          1.142832180663     0.987565503092    -0.678378752102     1.007825032070
           H          2.264501180663    -1.161632496908    -1.182633752102     1.007825032070
           H          3.275891180663    -0.187235496908    -0.122663752102     1.007825032070
           H          2.351999180663    -1.534026496908     0.534020247898     1.007825032070
           H          2.116659180663     1.417141503092     1.579726247898     1.007825032070
           H          0.362561180663     1.489361503092     1.606507247898     1.007825032070
           H          1.195774180663     0.060751503092     2.220249247898     1.007825032070

  Charge       = 0
  Multiplicity = 1
  Basis Set: 6-31G*
  Basis Set:

    Orbital Energies (a.u.)
    -----------------------

    Doubly Occupied:

       1A    -20.594458     2A    -20.544436     3A    -11.374550
       4A    -11.291768     5A    -11.231986     6A    -11.222234
       7A    -11.219527     8A     -1.463833     9A     -1.361601
      10A     -1.079022    11A     -1.006075    12A     -0.951276
      13A     -0.848610    14A     -0.765580    15A     -0.693020
      16A     -0.664230    17A     -0.663615    18A     -0.618439
      19A     -0.586990    20A     -0.578430    21A     -0.563747
      22A     -0.551916    23A     -0.535993    24A     -0.523633
      25A     -0.503141    26A     -0.484004    27A     -0.447101
      28A     -0.433798

  @DF-RHF Final Energy:  -344.90992480192244

   => Energetics <=

    Nuclear Repulsion Energy =            322.8715513890823559
    One-Electron Energy =               -1109.9570849365325103
    Two-Electron Energy =                 442.1756087455274837
    DFT Exchange-Correlation Energy =       0.0000000000000000
    Empirical Dispersion Energy =           0.0000000000000000
    PCM Polarization Energy =               0.0000000000000000
    EFP Energy =                            0.0000000000000000
    Total Energy =                       -344.9099248019226707

  Mulliken Charges: (a.u.)
   Center  Symbol    Alpha    Beta     Spin     Total
       1     O     4.28016  4.28016  0.00000 -0.56032
       2     C     2.61720  2.61720  0.00000  0.76560
       3     C     3.28274  3.28274  0.00000 -0.56547
       4     O     4.31536  4.31536  0.00000 -0.63071
       5     H     0.39987  0.39987  0.00000  0.20026
       6     H     0.39815  0.39815  0.00000  0.20369
       7     H     0.40295  0.40295  0.00000  0.19410
       8     C     2.93128  2.93128  0.00000  0.13743
       9     C     3.24258  3.24258  0.00000 -0.48516
      10     C     3.24909  3.24909  0.00000 -0.49817
      11     H     0.39707  0.39707  0.00000  0.20587
      12     H     0.40938  0.40938  0.00000  0.18124
      13     H     0.41830  0.41830  0.00000  0.16340
      14     H     0.41457  0.41457  0.00000  0.17087
      15     H     0.41551  0.41551  0.00000  0.16897
      16     H     0.41091  0.41091  0.00000  0.17818
      17     H     0.41489  0.41489  0.00000  0.17022

   Total alpha = 28.00000, Total beta = 28.00000, Total charge = -0.00000
