  ==> Input File <==

--------------------------------------------------------------------------
set {
	reference rhf
	basis 6-31G*
}

set_num_threads( 1 )
memory 2 gb

molecule MOL {
0 1

O	 -2.821601	 1.309235	 -0.001213
C	 -2.668563	 0.129746	 -0.000350
C	 -3.801572	 -0.864014	 -0.000442
O	 -1.481751	 -0.454642	 0.000584
H	 -4.417280	 -0.689587	 -0.874708
H	 -3.443784	 -1.883046	 -0.000565
H	 -4.417179	 -0.689832	 0.873954
C	 -0.334255	 0.388708	 0.000906
C	 0.891947	 -0.504646	 0.000751
H	 -0.365390	 1.025305	 -0.873475
H	 -0.365484	 1.024911	 0.875569
C	 2.191998	 0.301789	 0.000897
H	 0.855148	 -1.151283	 -0.871571
H	 0.855132	 -1.151660	 0.872805
C	 2.786289	 0.473981	 1.400002
H	 2.923223	 -0.186756	 -0.640756
H	 2.011409	 1.283118	 -0.434375
C	 4.085488	 1.278312	 1.399929
H	 2.967709	 -0.505715	 1.836302
H	 2.057748	 0.964118	 2.041925
H	 4.845844	 0.795273	 0.792849
H	 4.482164	 1.383087	 2.404870
H	 3.928988	 2.276236	 1.000349

	symmetry c1
}
set optking {
	frozen_dihedral = ("
		13 9 8 10,
		2 4 8 10,
		19 15 12 16,
		1 2 4 8
	")
}

ee = energy('scf')
oeprop('DIPOLE', 'QUADRUPOLE', 'MULLIKEN_CHARGES')
f=open( 'psi4out.xyz', 'w' )
f.write( "23  " )
f.write( str(ee) + "\n" )
f.write( MOL.save_string_xyz() )
f.close()
--------------------------------------------------------------------------

    Molecular point group: c1

    Geometry (in Angstrom), charge = 0, multiplicity = 1:

       Center              X                  Y                   Z               Mass
    ------------   -----------------  -----------------  -----------------  -----------------
           O         -2.675526090261     1.073804669008    -0.313806560012    15.994914619560
           C         -2.522488090261    -0.105684330992    -0.312943560012    12.000000000000
           C         -3.655497090261    -1.099444330992    -0.313035560012    12.000000000000
           O         -1.335676090261    -0.690072330992    -0.312009560012    15.994914619560
           H         -4.271205090261    -0.925017330992    -1.187301560012     1.007825032070
           H         -3.297709090261    -2.118476330992    -0.313158560012     1.007825032070
           H         -4.271104090261    -0.925262330992     0.561360439988     1.007825032070
           C         -0.188180090261     0.153277669008    -0.311687560012    12.000000000000
           C          1.038021909739    -0.740076330992    -0.311842560012    12.000000000000
           H         -0.219315090261     0.789874669008    -1.186068560012     1.007825032070
           H         -0.219409090261     0.789480669008     0.562975439988     1.007825032070
           C          2.338072909739     0.066358669008    -0.311696560012    12.000000000000
           H          1.001222909739    -1.386713330992    -1.184164560012     1.007825032070
           H          1.001206909739    -1.387090330992     0.560211439988     1.007825032070
           C          2.932363909739     0.238550669008     1.087408439988    12.000000000000
           H          3.069297909739    -0.422186330992    -0.953349560012     1.007825032070
           H          2.157483909739     1.047687669008    -0.746968560012     1.007825032070
           C          4.231562909739     1.042881669008     1.087335439988    12.000000000000
           H          3.113783909739    -0.741145330992     1.523708439988     1.007825032070
           H          2.203822909739     0.728687669008     1.729331439988     1.007825032070
           H          4.991918909739     0.559842669008     0.480255439988     1.007825032070
           H          4.628238909739     1.147656669008     2.092276439988     1.007825032070
           H          4.075062909739     2.040805669008     0.687755439988     1.007825032070

  Charge       = 0
  Multiplicity = 1
  Basis Set: 6-31G*
  Basis Set:

    Orbital Energies (a.u.)
    -----------------------

    Doubly Occupied:

       1A    -20.602960     2A    -20.540648     3A    -11.374146
       4A    -11.281789     5A    -11.232393     6A    -11.223359
       7A    -11.222779     8A    -11.221505     9A    -11.212498
      10A     -1.468021    11A     -1.360815    12A     -1.095148
      13A     -1.041061    14A     -1.002957    15A     -0.930833
      16A     -0.845253    17A     -0.798025    18A     -0.778443
      19A     -0.688273    20A     -0.684827    21A     -0.672936
      22A     -0.634079    23A     -0.615995    24A     -0.586218
      25A     -0.578844    26A     -0.572980    27A     -0.560790
      28A     -0.531272    29A     -0.526703    30A     -0.503677
      31A     -0.496473    32A     -0.478626    33A     -0.469437
      34A     -0.461553    35A     -0.449045    36A     -0.435626

  @DF-RHF Final Energy:  -422.97572068819528

   => Energetics <=

    Nuclear Repulsion Energy =            454.0045874425999841
    One-Electron Energy =               -1475.6006524123392865
    Two-Electron Energy =                 598.6203442815436802
    DFT Exchange-Correlation Energy =       0.0000000000000000
    Empirical Dispersion Energy =           0.0000000000000000
    PCM Polarization Energy =               0.0000000000000000
    EFP Energy =                            0.0000000000000000
    Total Energy =                       -422.9757206881955653

  Mulliken Charges: (a.u.)
   Center  Symbol    Alpha    Beta     Spin     Total
       1     O     4.28397  4.28397  0.00000 -0.56794
       2     C     2.61549  2.61549  0.00000  0.76901
       3     C     3.28779  3.28779  0.00000 -0.57558
       4     O     4.31232  4.31232  0.00000 -0.62464
       5     H     0.39750  0.39750  0.00000  0.20500
       6     H     0.39983  0.39983  0.00000  0.20033
       7     H     0.39752  0.39752  0.00000  0.20496
       8     C     2.99860  2.99860  0.00000  0.00279
       9     C     3.16617  3.16617  0.00000 -0.33234
      10     H     0.41003  0.41003  0.00000  0.17995
      11     H     0.41054  0.41054  0.00000  0.17892
      12     C     3.16384  3.16384  0.00000 -0.32768
      13     H     0.41187  0.41187  0.00000  0.17627
      14     H     0.41258  0.41258  0.00000  0.17484
      15     C     3.15315  3.15315  0.00000 -0.30630
      16     H     0.41661  0.41661  0.00000  0.16678
      17     H     0.41978  0.41978  0.00000  0.16043
      18     C     3.24008  3.24008  0.00000 -0.48016
      19     H     0.42072  0.42072  0.00000  0.15856
      20     H     0.42198  0.42198  0.00000  0.15604
      21     H     0.42106  0.42106  0.00000  0.15787
      22     H     0.41799  0.41799  0.00000  0.16402
      23     H     0.42057  0.42057  0.00000  0.15885

   Total alpha = 36.00000, Total beta = 36.00000, Total charge =  0.00000
