  ==> Input File <==

--------------------------------------------------------------------------
set {
	reference rhf
	basis cc-pvtz
}

set_num_threads( 4 )
memory 2 gb

molecule MOL {
0 1

H	 -2.592169	 -0.483557	 0.214112
N	 -1.838788	 0.170648	 0.216527
C	 -0.561396	 -0.500007	 0.035200
H	 -1.868247	 0.650813	 1.091689
C	 0.575129	 0.507849	 -0.048832
H	 -0.609517	 -1.061151	 -0.892172
H	 -0.343035	 -1.219991	 0.825362
C	 1.951750	 -0.141983	 0.035101
H	 0.478254	 1.061643	 -0.975981
H	 0.467676	 1.231891	 0.755499
H	 2.101550	 -0.848142	 -0.774949
H	 2.738260	 0.600794	 -0.026526
H	 2.078939	 -0.679792	 0.968824

	symmetry c1
}
set optking {
	frozen_dihedral = ("
		6 3 5 9
	")
}

ee = optimize('scf')
oeprop('DIPOLE', 'QUADRUPOLE', 'MULLIKEN_CHARGES')
f=open( 'psi4out.xyz', 'w' )
f.write( "13  " )
f.write( str(ee) + "\n" )
f.write( MOL.save_string_xyz() )
f.close()
--------------------------------------------------------------------------

    Molecular point group: c1
  Charge       = 0
  Multiplicity = 1
  Basis Set: CC-PVTZ
  Basis Set:
  @DF-RHF Final Energy:  -173.35195790575398
    Total Energy =                       -173.3519579057541193
    Molecular point group: c1
  Basis Set: CC-PVTZ
  Basis Set:
  Basis Set: CC-PVTZ
  Basis Set:
  @DF-RHF Final Energy:  -173.35204067914970
    Total Energy =                       -173.3520406791497521
  Basis Set: CC-PVTZ
  Basis Set:
  Basis Set: CC-PVTZ
  Basis Set:
  @DF-RHF Final Energy:  -173.35206104873754
    Total Energy =                       -173.3520610487373688
  Basis Set: CC-PVTZ
  Basis Set:
  Charge       = 0
  Multiplicity = 1
  Basis Set: CC-PVTZ
  Basis Set:

    Orbital Energies (a.u.)
    -----------------------

    Doubly Occupied:

       1A    -15.526465     2A    -11.238464     3A    -11.210555
       4A    -11.206859     5A     -1.178148     6A     -1.036074
       7A     -0.899093     8A     -0.799866     9A     -0.665914
      10A     -0.626321    11A     -0.606122    12A     -0.566513
      13A     -0.531476    14A     -0.491650    15A     -0.478404
      16A     -0.468827    17A     -0.384280

  @DF-RHF Final Energy:  -173.35206127280978

   => Energetics <=

    Nuclear Repulsion Energy =            131.9807351568698266
    One-Electron Energy =                -494.8355307531003291
    Two-Electron Energy =                 189.5027343234208672
    DFT Exchange-Correlation Energy =       0.0000000000000000
    Empirical Dispersion Energy =           0.0000000000000000
    PCM Polarization Energy =               0.0000000000000000
    EFP Energy =                            0.0000000000000000
    Total Energy =                       -173.3520612728096069
    Molecular point group: c1
  Basis Set: CC-PVTZ
  Basis Set:

  -Total Gradient:
     Atom            X                  Y                   Z
    ------   -----------------  -----------------  -----------------
       1       -0.000004225659     0.000016235832     0.000003389766
       2        0.000009528815    -0.000054242665    -0.000018237276
       3        0.002310367286    -0.002512264777     0.000976002682
       4        0.000019734911    -0.000013807022    -0.000021574236
       5       -0.002174090826     0.002554509017     0.001239723059
       6       -0.001648174206     0.001767859462    -0.000972207623
       7        0.000002825790    -0.000004732426    -0.000006528852
       8       -0.000006697748     0.000017738118     0.000013498281
       9        0.001468638734    -0.001747426607    -0.001205796329
      10        0.000002631649    -0.000010575545    -0.000004250072
      11        0.000002963901    -0.000003347381    -0.000003503441
      12        0.000006958451    -0.000001969321     0.000000380054
      13        0.000009538905    -0.000007976685    -0.000000896014

  **** Optimization is complete! (in 4 steps) ****
    Final optimized geometry and variables:
    Molecular point group: c1

    Geometry (in Angstrom), charge = 0, multiplicity = 1:

    H           -2.600625103281    -0.482059871404     0.098238005751
    N           -1.845528006930     0.169551649891     0.126341690656
    C           -0.564415913386    -0.502843937688    -0.027600057306
    H           -1.896989380245     0.643678520134     1.003618163000
    C            0.569765222847     0.510401023473    -0.108308066363
    H           -0.607849721940    -1.061490300608    -0.956354080910
    H           -0.359500132770    -1.216307541877     0.771154065337
    C            1.947671495108    -0.142020098590    -0.051243826847
    H            0.473995382672     1.066574146878    -1.034017415183
    H            0.472136104732     1.224848454818     0.704373847286
    H            2.075142802215    -0.859237023558    -0.855770880657
    H            2.734131260978     0.597741927896    -0.143700520773
    H            2.097687210250    -0.668530266677     0.885409325300

  Mulliken Charges: (a.u.)
   Center  Symbol    Alpha    Beta     Spin     Total
       1     H     0.42964  0.42964  0.00000  0.14072
       2     N     3.69088  3.69088  0.00000 -0.38175
       3     C     3.02310  3.02310  0.00000 -0.04619
       4     H     0.43077  0.43077  0.00000  0.13846
       5     C     3.07582  3.07582  0.00000 -0.15164
       6     H     0.45650  0.45650  0.00000  0.08700
       7     H     0.46967  0.46967  0.00000  0.06065
       8     C     3.15330  3.15330  0.00000 -0.30660
       9     H     0.45047  0.45047  0.00000  0.09907
      10     H     0.45952  0.45952  0.00000  0.08096
      11     H     0.45541  0.45541  0.00000  0.08918
      12     H     0.44797  0.44797  0.00000  0.10406
      13     H     0.45695  0.45695  0.00000  0.08609

   Total alpha = 17.00000, Total beta = 17.00000, Total charge =  0.00000
