  ==> Input File <==

--------------------------------------------------------------------------
set {
	reference rhf
	basis cc-pvtz
}

set_num_threads( 4 )
memory 2 gb

molecule MOL {
0 1

H	 -0.916492	 -1.948979	 -1.409865
C	 -0.930169	 -0.924339	 -1.767033
O	 -0.775228	 0.000056	 -0.739966
H	 -1.897017	 -0.736374	 -2.212033
H	 -0.176207	 -0.817095	 -2.540126
C	 0.406133	 -0.000384	 0.036994
C	 1.526415	 -0.003194	 -0.997339
C	 0.498772	 1.259027	 0.900673
C	 0.495883	 -1.257378	 0.904465
H	 1.452279	 0.872071	 -1.630204
H	 1.451276	 -0.881020	 -1.626529
H	 2.497919	 -0.002741	 -0.517601
H	 0.368981	 2.144239	 0.289753
H	 1.470064	 1.313479	 1.377660
H	 -0.248448	 1.271586	 1.684297
H	 0.363971	 -2.144195	 0.296316
H	 1.467114	 -1.312636	 1.381470
H	 -0.251246	 -1.265768	 1.688235

	symmetry c1
}
set optking {
	frozen_dihedral = ("
		2 3 6 7
	")
}

ee = optimize('scf')
oeprop('DIPOLE', 'QUADRUPOLE', 'MULLIKEN_CHARGES')
f=open( 'psi4out.xyz', 'w' )
f.write( "18  " )
f.write( str(ee) + "\n" )
f.write( MOL.save_string_xyz() )
f.close()
--------------------------------------------------------------------------

    Molecular point group: c1
  Charge       = 0
  Multiplicity = 1
  Basis Set: CC-PVTZ
  Basis Set:
  @DF-RHF Final Energy:  -271.26707044520475
    Total Energy =                       -271.2670704452050927
    Molecular point group: c1
  Basis Set: CC-PVTZ
  Basis Set:
  Basis Set: CC-PVTZ
  Basis Set:
  @DF-RHF Final Energy:  -271.27215242599340
    Total Energy =                       -271.2721524259935109
  Basis Set: CC-PVTZ
  Basis Set:
  Basis Set: CC-PVTZ
  Basis Set:
  @DF-RHF Final Energy:  -271.27561934743585
    Total Energy =                       -271.2756193474361908
  Basis Set: CC-PVTZ
  Basis Set:
  Basis Set: CC-PVTZ
  Basis Set:
  @DF-RHF Final Energy:  -271.27631074754458
    Total Energy =                       -271.2763107475446418
  Basis Set: CC-PVTZ
  Basis Set:
  Basis Set: CC-PVTZ
  Basis Set:
  @DF-RHF Final Energy:  -271.27650027296755
    Total Energy =                       -271.2765002729677235
  Basis Set: CC-PVTZ
  Basis Set:
  Basis Set: CC-PVTZ
  Basis Set:
  @DF-RHF Final Energy:  -271.27658690676344
    Total Energy =                       -271.2765869067633275
  Basis Set: CC-PVTZ
  Basis Set:
  Basis Set: CC-PVTZ
  Basis Set:
  @DF-RHF Final Energy:  -271.27661857584974
    Total Energy =                       -271.2766185758498523
  Basis Set: CC-PVTZ
  Basis Set:
  Charge       = 0
  Multiplicity = 1
  Basis Set: CC-PVTZ
  Basis Set:

    Orbital Energies (a.u.)
    -----------------------

    Doubly Occupied:

       1A    -20.540382     2A    -11.280177     3A    -11.258343
       4A    -11.208526     5A    -11.205675     6A    -11.201941
       7A     -1.373426     8A     -1.074637     9A     -0.947816
      10A     -0.939823    11A     -0.913214    12A     -0.753430
      13A     -0.656852    14A     -0.646922    15A     -0.639681
      16A     -0.592602    17A     -0.575431    18A     -0.553166
      19A     -0.534593    20A     -0.525427    21A     -0.515244
      22A     -0.489780    23A     -0.487469    24A     -0.441354
      25A     -0.406538

  @DF-RHF Final Energy:  -271.27661859423586

   => Energetics <=

    Nuclear Repulsion Energy =            272.6955322211367729
    One-Electron Energy =                -908.4194088148821038
    Two-Electron Energy =                 364.4472579995090200
    DFT Exchange-Correlation Energy =       0.0000000000000000
    Empirical Dispersion Energy =           0.0000000000000000
    PCM Polarization Energy =               0.0000000000000000
    EFP Energy =                            0.0000000000000000
    Total Energy =                       -271.2766185942363109
    Molecular point group: c1
  Basis Set: CC-PVTZ
  Basis Set:

  -Total Gradient:
     Atom            X                  Y                   Z
    ------   -----------------  -----------------  -----------------
       1       -0.000008665440     0.000007230748    -0.000017059121
       2        0.000275040833     0.000512287584    -0.000523789647
       3       -0.000387156855    -0.001024336522     0.000687367789
       4       -0.000000325456    -0.000003224474    -0.000009486430
       5       -0.000006881736     0.000004622219     0.000006439083
       6        0.000176448937     0.001163928294    -0.000107759869
       7       -0.000058474493    -0.000646836096    -0.000067768673
       8        0.000021803421     0.000018987009    -0.000020484312
       9       -0.000001337751    -0.000033925077     0.000030618111
      10        0.000010841084    -0.000004256757    -0.000028955651
      11        0.000005163957    -0.000002345098     0.000010506393
      12       -0.000022880835     0.000013711330     0.000009030187
      13       -0.000008300318     0.000028932115     0.000017098641
      14        0.000002232861     0.000010255556    -0.000020428801
      15        0.000010290332    -0.000018402730     0.000000502011
      16        0.000010763170     0.000008409365     0.000018495778
      17       -0.000015283099    -0.000004627263     0.000003717892
      18       -0.000003278614    -0.000030410205     0.000011956617

  **** Optimization is complete! (in 8 steps) ****
    Final optimized geometry and variables:
    Molecular point group: c1

    Geometry (in Angstrom), charge = 0, multiplicity = 1:

    H           -1.092682939904    -1.737139221697    -1.150705759173
    C           -1.238720921959    -0.698999991899    -1.432849013824
    O           -0.982805938857     0.182340704316    -0.388191165913
    H           -2.276433519008    -0.568102069663    -1.705325297527
    H           -0.629754859231    -0.489862967465    -2.306141628344
    C            0.259518188048     0.133392346513     0.286513960290
    C            1.436867229487     0.145994430174    -0.689605628244
    C            0.273265347780     1.398363096995     1.137082930193
    C            0.322516081542    -1.102110285676     1.187290527529
    H            1.353795236688     0.979831402457    -1.376705567514
    H            1.497610416734    -0.768420562128    -1.266434734418
    H            2.366644824432     0.249193004047    -0.143580306523
    H            0.223597397701     2.276096934966     0.505052469222
    H            1.174171884588     1.453280065447     1.736650003518
    H           -0.583557036949     1.410804123757     1.798604640386
    H            0.321642086936    -2.020531822530     0.613397655837
    H            1.227771091104    -1.091178623917     1.783063609332
    H           -0.528161284027    -1.119018366675     1.857315034966

  Mulliken Charges: (a.u.)
   Center  Symbol    Alpha    Beta     Spin     Total
       1     H     0.47030  0.47030  0.00000  0.05940
       2     C     3.04447  3.04447  0.00000 -0.08894
       3     O     4.19088  4.19088  0.00000 -0.38176
       4     H     0.44118  0.44118  0.00000  0.11764
       5     H     0.46765  0.46765  0.00000  0.06470
       6     C     2.87404  2.87404  0.00000  0.25192
       7     C     3.16932  3.16932  0.00000 -0.33864
       8     C     3.14141  3.14141  0.00000 -0.28282
       9     C     3.15783  3.15783  0.00000 -0.31566
      10     H     0.44481  0.44481  0.00000  0.11037
      11     H     0.44787  0.44787  0.00000  0.10427
      12     H     0.44634  0.44634  0.00000  0.10732
      13     H     0.44978  0.44978  0.00000  0.10044
      14     H     0.45929  0.45929  0.00000  0.08142
      15     H     0.44802  0.44802  0.00000  0.10395
      16     H     0.44955  0.44955  0.00000  0.10090
      17     H     0.45059  0.45059  0.00000  0.09882
      18     H     0.44666  0.44666  0.00000  0.10669

   Total alpha = 25.00000, Total beta = 25.00000, Total charge = -0.00000
