                              Psi4 1.0.54 Driver

  ==> Input File <==

--------------------------------------------------------------------------
set {
	reference rhf
	basis cc-pvtz
}

set_num_threads( 4 )
memory 2 gb

molecule MOL {
0 1

H	 2.614283	 2.028610	 0.296620
O	 3.358864	 1.662087	 -0.142800
C	 3.565468	 0.338079	 0.273842
C	 2.533667	 -0.637565	 -0.272227
H	 4.548038	 0.064914	 -0.086598
H	 3.593945	 0.282242	 1.360360
C	 2.779905	 -2.093624	 0.116500
H	 1.550756	 -0.328606	 0.070685
H	 2.531903	 -0.550028	 -1.356077
C	 1.743611	 -3.047130	 -0.476590
H	 2.774997	 -2.181860	 1.197793
H	 3.772027	 -2.392705	 -0.217465
C	 1.984067	 -4.528543	 -0.180193
H	 0.755246	 -2.765947	 -0.121206
H	 1.726677	 -2.911151	 -1.554408
C	 1.829075	 -4.928020	 1.286142
H	 1.285330	 -5.112516	 -0.772872
H	 2.977326	 -4.806604	 -0.525554
C	 1.980452	 -6.429673	 1.515342
H	 0.852073	 -4.608862	 1.642616
H	 2.560677	 -4.405606	 1.895113
C	 1.830000	 -6.831512	 2.978824
H	 1.242794	 -6.959691	 0.919087
H	 2.952746	 -6.751664	 1.151983
H	 0.854689	 -6.551755	 3.363197
H	 1.940185	 -7.902427	 3.105738
H	 2.578496	 -6.346933	 3.597119

	symmetry c1
}
set optking {
	frozen_dihedral = ("
		8 4 3 2
	")
}

ee,wfn = optimize('scf', return_wfn=True)
oeprop( wfn, 'DIPOLE', 'QUADRUPOLE', 'MULLIKEN_CHARGES')
f=open( 'psi4out.xyz', 'w' )
f.write( "27  " )
f.write( str(ee) + "\n" )
f.write( MOL.save_string_xyz() )
f.close()
--------------------------------------------------------------------------

    Molecular point group: c1
  Charge       = 0
  Multiplicity = 1
  Basis Set: CC-PVTZ
  Basis Set:
  @DF-RHF Final Energy:  -388.42804181645289
    Total Energy =                       -388.4280418164526054
    Molecular point group: c1
  Basis Set: CC-PVTZ
  Basis Set:
  Basis Set: CC-PVTZ
  Basis Set:
  @DF-RHF Final Energy:  -388.42825549742207
    Total Energy =                       -388.4282554974226969
  Basis Set: CC-PVTZ
  Basis Set:
  Basis Set: CC-PVTZ
  Basis Set:
  @DF-RHF Final Energy:  -388.42833670867543
    Total Energy =                       -388.4283367086754879
  Basis Set: CC-PVTZ
  Basis Set:
  Basis Set: CC-PVTZ
  Basis Set:
  @DF-RHF Final Energy:  -388.42834379700224
    Total Energy =                       -388.4283437970022987
  Basis Set: CC-PVTZ
  Basis Set:
  Basis Set: CC-PVTZ
  Basis Set:
  @DF-RHF Final Energy:  -388.42834271696609
    Total Energy =                       -388.4283427169660854
  Basis Set: CC-PVTZ
  Basis Set:
  Basis Set: CC-PVTZ
  Basis Set:
  @DF-RHF Final Energy:  -388.42834461096106
    Total Energy =                       -388.4283446109614033
  Basis Set: CC-PVTZ
  Basis Set:
  Charge       = 0
  Multiplicity = 1
  Basis Set: CC-PVTZ
  Basis Set:

    Orbital Energies (a.u.)
    -----------------------

    Doubly Occupied:

       1A    -20.545177     2A    -11.264548     3A    -11.216325
       4A    -11.214393     5A    -11.214159     6A    -11.213497
       7A    -11.212667     8A    -11.211403     9A    -11.207067
      10A     -1.363234    11A     -1.096389    12A     -1.063456
      13A     -1.012589    14A     -0.946212    15A     -0.884161
      16A     -0.824426    17A     -0.804898    18A     -0.778292
      19A     -0.694521    20A     -0.648105    21A     -0.642729
      22A     -0.610347    23A     -0.609068    24A     -0.585792
      25A     -0.573948    26A     -0.556220    27A     -0.545014
      28A     -0.521743    29A     -0.510893    30A     -0.494444
      31A     -0.482373    32A     -0.476864    33A     -0.465302
      34A     -0.460940    35A     -0.456893    36A     -0.444371
      37A     -0.423744

  @DF-RHF Final Energy:  -388.42834469986258

   => Energetics <=

    Nuclear Repulsion Energy =            454.0545688542198377
    One-Electron Energy =               -1426.4134246495873413
    Two-Electron Energy =                 583.9305110955045848
    DFT Exchange-Correlation Energy =       0.0000000000000000
    Empirical Dispersion Energy =           0.0000000000000000
    PCM Polarization Energy =               0.0000000000000000
    EFP Energy =                            0.0000000000000000
    Total Energy =                       -388.4283446998629188
    Molecular point group: c1
  Basis Set: CC-PVTZ
  Basis Set:

  -Total Gradient:
     Atom            X                  Y                   Z
    ------   -----------------  -----------------  -----------------
       1        0.000011145863    -0.000006851963    -0.000003032960
       2       -0.000048422893     0.000024993108     0.000049733722
       3        0.000052621371     0.000000826591    -0.000087730257
       4       -0.000007258728    -0.000046935003     0.000119848588
       5       -0.000004842132    -0.000000822493    -0.000002274464
       6       -0.000003802295    -0.000007281388    -0.000002931572
       7       -0.000005741719    -0.000001960841     0.000006644205
       8        0.000002094267     0.000049299450    -0.000070098522
       9        0.000002439627     0.000000546493    -0.000004939107
      10        0.000011675876     0.000006292830     0.000000186069
      11       -0.000000813428    -0.000003452850     0.000000483662
      12       -0.000003702675    -0.000002904632     0.000000053657
      13       -0.000006022883    -0.000005946847    -0.000005839345
      14        0.000001469954    -0.000002784220    -0.000002051726
      15       -0.000001608508     0.000002939020    -0.000001319423
      16       -0.000000850556     0.000000246044    -0.000000055056
      17        0.000000620441    -0.000005229138     0.000003854224
      18       -0.000003065221    -0.000002452630    -0.000000413970
      19        0.000001369520     0.000000070356     0.000000941435
      20        0.000001289216    -0.000001785034    -0.000002447357
      21       -0.000000315267     0.000001874062     0.000001912695
      22        0.000001539206     0.000000885673    -0.000000328391
      23        0.000000132423     0.000001423248     0.000000459627
      24       -0.000000066290    -0.000000987102    -0.000000070003
      25        0.000000127906     0.000000002909    -0.000000588246
      26        0.000000334336     0.000000144324    -0.000000205278
      27       -0.000000347409    -0.000000149966     0.000000207796

  **** Optimization is complete! (in 7 steps) ****
    Final optimized geometry and variables:
    Molecular point group: c1

    Geometry (in Angstrom), charge = 0, multiplicity = 1:

    H            0.130708594475     4.831851239154    -0.369691766187
    O            0.960811677976     4.518255539421    -0.679575308192
    C            1.149820708013     3.188990999315    -0.276463705428
    C            0.118964225773     2.240499491932    -0.866632104077
    H            2.141779687645     2.915194875084    -0.612120499287
    H            1.146440735250     3.116011788120     0.809197607662
    C            0.351152941609     0.786575690938    -0.464986274787
    H           -0.873821669055     2.551442485324    -0.545687159588
    H            0.139309613208     2.337705216905    -1.947511971035
    C           -0.688339913799    -0.165370504884    -1.054498669519
    H            0.350178057729     0.712394997274     0.617943321394
    H            1.341717885663     0.478549648664    -0.791960659699
    C           -0.445502830020    -1.647104142774    -0.761955182259
    H           -1.675612383892     0.113932811072    -0.693895604481
    H           -0.710699839800    -0.027411816601    -2.131783593677
    C           -0.580987769383    -2.046807459452     0.706160610855
    H           -1.152290170839    -2.230444349483    -1.345611616858
    H            0.542914310906    -1.925343285446    -1.120328190246
    C           -0.426253732883    -3.548366128491     0.933295633786
    H           -1.553587032768    -1.728305836024     1.075387421502
    H            0.158471396558    -1.524109244671     1.305109278199
    C           -0.556613538873    -3.950287644099     2.398627983017
    H           -1.171656220818    -4.078721930340     0.347066215929
    H            0.541137784321    -3.869856666819     0.556934016356
    H           -1.527069323208    -3.671729593336     2.796015713481
    H           -0.443529678503    -5.021027455997     2.524172004558
    H            0.199532285126    -3.464765508566     3.006704381522

  Mulliken Charges: (a.u.)
   Center  Symbol    Alpha    Beta     Spin     Total
       1     H     0.39521  0.39521  0.00000  0.20959
       2     O     4.20102  4.20102  0.00000 -0.40204
       3     C     2.96731  2.96731  0.00000  0.06538
       4     C     3.09453  3.09453  0.00000 -0.18906
       5     H     0.45478  0.45478  0.00000  0.09043
       6     H     0.47175  0.47175  0.00000  0.05650
       7     C     3.10252  3.10252  0.00000 -0.20505
       8     H     0.46247  0.46247  0.00000  0.07505
       9     H     0.44809  0.44809  0.00000  0.10382
      10     C     3.09857  3.09857  0.00000 -0.19714
      11     H     0.45283  0.45283  0.00000  0.09435
      12     H     0.45269  0.45269  0.00000  0.09462
      13     C     3.09814  3.09814  0.00000 -0.19629
      14     H     0.45324  0.45324  0.00000  0.09352
      15     H     0.44706  0.44706  0.00000  0.10589
      16     C     3.08818  3.08818  0.00000 -0.17637
      17     H     0.44812  0.44812  0.00000  0.10376
      18     H     0.45326  0.45326  0.00000  0.09349
      19     C     3.08400  3.08400  0.00000 -0.16800
      20     H     0.45539  0.45539  0.00000  0.08922
      21     H     0.45365  0.45365  0.00000  0.09271
      22     C     3.14973  3.14973  0.00000 -0.29946
      23     H     0.45393  0.45393  0.00000  0.09214
      24     H     0.45441  0.45441  0.00000  0.09118
      25     H     0.45535  0.45535  0.00000  0.08931
      26     H     0.44828  0.44828  0.00000  0.10344
      27     H     0.45550  0.45550  0.00000  0.08901

   Total alpha = 37.00000, Total beta = 37.00000, Total charge =  0.00000

*** Psi4 exiting successfully. Buy a developer a beer!
