                              Psi4 1.0.54 Driver

  ==> Input File <==

--------------------------------------------------------------------------
set {
	reference rhf
	basis cc-pvtz
}

set_num_threads( 4 )
memory 2 gb

molecule MOL {
0 1

H	 -3.436473	 1.252944	 -1.023892
O	 -3.458596	 0.315260	 -0.960865
C	 -3.176635	 -0.080824	 0.355601
C	 -1.763371	 0.265266	 0.799691
H	 -3.321825	 -1.153438	 0.379502
H	 -3.895468	 0.357385	 1.043382
C	 -0.673390	 -0.426948	 -0.013392
H	 -1.631049	 1.344913	 0.747560
H	 -1.664587	 -0.001624	 1.849167
C	 -0.634546	 -1.938252	 0.197377
H	 0.289577	 0.001060	 0.242374
H	 -0.830493	 -0.214330	 -1.068199
C	 0.455215	 -2.625555	 -0.623039
H	 -0.488138	 -2.142833	 1.253597
H	 -1.600714	 -2.364417	 -0.064844
C	 0.482481	 -4.150619	 -0.507782
H	 1.425509	 -2.227863	 -0.334561
H	 0.320050	 -2.362203	 -1.668504
C	 0.857110	 -4.679721	 0.874552
H	 1.193906	 -4.536444	 -1.231515
H	 -0.487015	 -4.549192	 -0.795249
H	 1.820425	 -4.292730	 1.191317
H	 0.923442	 -5.761749	 0.866977
H	 0.127038	 -4.404516	 1.626126

	symmetry c1
}
set optking {
	frozen_dihedral = ("
		11 7 4 3
	")
}

ee,wfn = optimize('scf', return_wfn=True)
oeprop( wfn, 'DIPOLE', 'QUADRUPOLE', 'MULLIKEN_CHARGES')
f=open( 'psi4out.xyz', 'w' )
f.write( "24  " )
f.write( str(ee) + "\n" )
f.write( MOL.save_string_xyz() )
f.close()
--------------------------------------------------------------------------

    Molecular point group: c1
  Charge       = 0
  Multiplicity = 1
  Basis Set: CC-PVTZ
  Basis Set:
  @DF-RHF Final Energy:  -349.37848199864533
    Total Energy =                       -349.3784819986454977
    Molecular point group: c1
  Basis Set: CC-PVTZ
  Basis Set:
  Basis Set: CC-PVTZ
  Basis Set:
  @DF-RHF Final Energy:  -349.37866971976126
    Total Energy =                       -349.3786697197607509
  Basis Set: CC-PVTZ
  Basis Set:
  Basis Set: CC-PVTZ
  Basis Set:
  @DF-RHF Final Energy:  -349.37899526193394
    Total Energy =                       -349.3789952619334258
  Basis Set: CC-PVTZ
  Basis Set:
  Basis Set: CC-PVTZ
  Basis Set:
  @DF-RHF Final Energy:  -349.37900269039193
    Total Energy =                       -349.3790026903919284
  Basis Set: CC-PVTZ
  Basis Set:
  Charge       = 0
  Multiplicity = 1
  Basis Set: CC-PVTZ
  Basis Set:

    Orbital Energies (a.u.)
    -----------------------

    Doubly Occupied:

       1A    -20.546543     2A    -11.264953     3A    -11.215643
       4A    -11.210777     5A    -11.209485     6A    -11.208660
       7A    -11.207966     8A    -11.204320     9A     -1.364277
      10A     -1.088738    11A     -1.047928    12A     -0.984095
      13A     -0.915745    14A     -0.859448    15A     -0.794992
      16A     -0.774032    17A     -0.681143    18A     -0.650905
      19A     -0.632268    20A     -0.617201    21A     -0.602539
      22A     -0.578952    23A     -0.557929    24A     -0.535276
      25A     -0.527800    26A     -0.514633    27A     -0.489302
      28A     -0.482742    29A     -0.469268    30A     -0.458460
      31A     -0.452127    32A     -0.436918    33A     -0.427910

  @DF-RHF Final Energy:  -349.37900333511573

   => Energetics <=

    Nuclear Repulsion Energy =            390.9048598701861010
    One-Electron Energy =               -1248.5417731243173876
    Two-Electron Energy =                 508.2579099190154466
    DFT Exchange-Correlation Energy =       0.0000000000000000
    Empirical Dispersion Energy =           0.0000000000000000
    PCM Polarization Energy =               0.0000000000000000
    EFP Energy =                            0.0000000000000000
    Total Energy =                       -349.3790033351158399
    Molecular point group: c1
  Basis Set: CC-PVTZ
  Basis Set:

  -Total Gradient:
     Atom            X                  Y                   Z
    ------   -----------------  -----------------  -----------------
       1       -0.000005419078     0.000025568763    -0.000017958897
       2        0.000042554885    -0.000031156158    -0.000013379017
       3       -0.000019869760     0.000230621145    -0.000111178162
       4       -0.000021771340    -0.000244899280     0.000151400452
       5        0.000003341937    -0.000057719275    -0.000032583491
       6       -0.000014172557     0.000011416367     0.000043504548
       7        0.000048726158    -0.000208661867     0.000248860362
       8        0.000025899278     0.000006505258    -0.000008209611
       9       -0.000022281876    -0.000000366677     0.000004456295
      10       -0.000033783036     0.000026762013    -0.000009584931
      11       -0.000023443975     0.000240677483    -0.000267686377
      12        0.000005357918    -0.000008847021    -0.000004834322
      13        0.000053189393     0.000010688910     0.000045897321
      14        0.000000564913     0.000032203780    -0.000017971440
      15       -0.000062347061     0.000012357194     0.000006091355
      16       -0.000047172027     0.000005655059     0.000003758224
      17        0.000021071073     0.000003167982     0.000006859260
      18        0.000018717759    -0.000015656638    -0.000008120414
      19        0.000023777213    -0.000009862218     0.000005539481
      20        0.000004869082    -0.000007688111    -0.000032159512
      21       -0.000032872291     0.000000848090     0.000004528128
      22        0.000020711007     0.000010612925     0.000021344480
      23        0.000014102529    -0.000001211460    -0.000011365280
      24        0.000000249855    -0.000031016268    -0.000007208451

  **** Optimization is complete! (in 5 steps) ****
    Final optimized geometry and variables:
    Molecular point group: c1

    Geometry (in Angstrom), charge = 0, multiplicity = 1:

    H           -2.348608497562     2.873546453858    -1.069539825418
    O           -2.448267150932     1.948016836382    -0.937908767562
    C           -2.159151093211     1.621050068200     0.395765498529
    C           -0.716085558348     1.911630119561     0.786532869234
    H           -2.380674019671     0.567663785170     0.495334356157
    H           -2.827681892342     2.151886948339     1.069048475059
    C            0.343243793475     1.184123435973    -0.043161088612
    H           -0.550218286376     2.984259651794     0.706814801946
    H           -0.594805878069     1.665846214699     1.838812848509
    C            0.388205173005    -0.328581520519     0.165767781509
    H            1.315340502957     1.601302631285     0.204748004953
    H            0.178694334965     1.396570730452    -1.093936985444
    C            1.513775028667    -0.994644084683    -0.624267755936
    H            0.505361606415    -0.535814189288     1.225468208332
    H           -0.557498104043    -0.770891127796    -0.133040157339
    C            1.552220016164    -2.520758661778    -0.527918067237
    H            2.469945447454    -0.592058938132    -0.297105760870
    H            1.411440351565    -0.718977447926    -1.670141785207
    C            1.884880668443    -3.064811810776     0.859409267613
    H            2.291733775265    -2.890066372256    -1.231961468784
    H            0.597162060342    -2.924310331868    -0.853789414086
    H            2.831030523944    -2.669918657028     1.215986236318
    H            1.966169478455    -4.145664725678     0.839128992890
    H            1.124868693915    -2.810136834007     1.588225521677

  Mulliken Charges: (a.u.)
   Center  Symbol    Alpha    Beta     Spin     Total
       1     H     0.39446  0.39446  0.00000  0.21108
       2     O     4.20463  4.20463  0.00000 -0.40927
       3     C     2.97779  2.97779  0.00000  0.04442
       4     C     3.11355  3.11355  0.00000 -0.22710
       5     H     0.45688  0.45688  0.00000  0.08623
       6     H     0.45922  0.45922  0.00000  0.08156
       7     C     3.08741  3.08741  0.00000 -0.17483
       8     H     0.45142  0.45142  0.00000  0.09715
       9     H     0.45321  0.45321  0.00000  0.09358
      10     C     3.09699  3.09699  0.00000 -0.19398
      11     H     0.44942  0.44942  0.00000  0.10116
      12     H     0.45046  0.45046  0.00000  0.09909
      13     C     3.09446  3.09446  0.00000 -0.18893
      14     H     0.45400  0.45400  0.00000  0.09200
      15     H     0.45134  0.45134  0.00000  0.09732
      16     C     3.08994  3.08994  0.00000 -0.17987
      17     H     0.45439  0.45439  0.00000  0.09123
      18     H     0.44855  0.44855  0.00000  0.10291
      19     C     3.15252  3.15252  0.00000 -0.30504
      20     H     0.44889  0.44889  0.00000  0.10221
      21     H     0.45434  0.45434  0.00000  0.09133
      22     H     0.45536  0.45536  0.00000  0.08929
      23     H     0.44659  0.44659  0.00000  0.10682
      24     H     0.45417  0.45417  0.00000  0.09166

   Total alpha = 33.00000, Total beta = 33.00000, Total charge =  0.00000

*** Psi4 exiting successfully. Buy a developer a beer!
