                              Psi4 1.0.54 Driver

  ==> Input File <==

--------------------------------------------------------------------------
set {
	reference rhf
	basis cc-pvtz
}

set_num_threads( 4 )
memory 2 gb

molecule MOL {
0 1

O	 1.159603	 -2.310976	 -1.402696
C	 0.325700	 -1.787196	 -0.746847
C	 -1.104347	 -2.236342	 -0.652557
O	 0.550743	 -0.719877	 0.000412
H	 -1.345640	 -2.465530	 0.377324
H	 -1.251334	 -3.106324	 -1.271475
H	 -1.758039	 -1.435412	 -0.972923
C	 1.863204	 -0.194033	 0.000410
H	 2.031502	 0.409177	 -0.879273
H	 2.524488	 -1.045142	 0.000793
H	 2.031291	 0.409823	 0.879686

	symmetry c1
}
set optking {
	frozen_dihedral = ("
		2 4 8 9
	")
}

ee,wfn = optimize('scf', return_wfn=True)
oeprop( wfn, 'DIPOLE', 'QUADRUPOLE', 'MULLIKEN_CHARGES')
f=open( 'psi4out.xyz', 'w' )
f.write( "11  " )
f.write( str(ee) + "\n" )
f.write( MOL.save_string_xyz() )
f.close()
--------------------------------------------------------------------------

    Molecular point group: c1
  Charge       = 0
  Multiplicity = 1
  Basis Set: CC-PVTZ
  Basis Set:
  @DF-RHF Final Energy:  -266.93699066118893
    Total Energy =                       -266.9369906611888155
    Molecular point group: c1
  Basis Set: CC-PVTZ
  Basis Set:
  Basis Set: CC-PVTZ
  Basis Set:
  @DF-RHF Final Energy:  -266.93828670551989
    Total Energy =                       -266.9382867055198858
  Basis Set: CC-PVTZ
  Basis Set:
  Basis Set: CC-PVTZ
  Basis Set:
  @DF-RHF Final Energy:  -266.93868168823968
    Total Energy =                       -266.9386816882396261
  Basis Set: CC-PVTZ
  Basis Set:
  Basis Set: CC-PVTZ
  Basis Set:
  @DF-RHF Final Energy:  -266.93839611264883
    Total Energy =                       -266.9383961126487179
  Basis Set: CC-PVTZ
  Basis Set:
  Basis Set: CC-PVTZ
  Basis Set:
  @DF-RHF Final Energy:  -266.93870988302604
    Total Energy =                       -266.9387098830258083
  Basis Set: CC-PVTZ
  Basis Set:
  Charge       = 0
  Multiplicity = 1
  Basis Set: CC-PVTZ
  Basis Set:

    Orbital Energies (a.u.)
    -----------------------

    Doubly Occupied:

       1A    -20.598579     2A    -20.535096     3A    -11.369130
       4A    -11.279691     5A    -11.233074     6A     -1.473674
       7A     -1.367838     8A     -1.037037     9A     -0.953911
      10A     -0.779888    11A     -0.698453    12A     -0.684088
      13A     -0.681172    14A     -0.596553    15A     -0.593199
      16A     -0.561740    17A     -0.528063    18A     -0.524016
      19A     -0.461700    20A     -0.445796

  @DF-RHF Final Energy:  -266.93871028921399

   => Energetics <=

    Nuclear Repulsion Energy =            183.5828230600413633
    One-Electron Energy =                -728.2376719823798794
    Two-Electron Energy =                 277.7161386331244444
    DFT Exchange-Correlation Energy =       0.0000000000000000
    Empirical Dispersion Energy =           0.0000000000000000
    PCM Polarization Energy =               0.0000000000000000
    EFP Energy =                            0.0000000000000000
    Total Energy =                       -266.9387102892140433
    Molecular point group: c1
  Basis Set: CC-PVTZ
  Basis Set:

  -Total Gradient:
     Atom            X                  Y                   Z
    ------   -----------------  -----------------  -----------------
       1        0.000016653489    -0.000028472138    -0.000036074707
       2        0.000331602984    -0.000693193200     0.000986901439
       3        0.000007403795     0.000020918024     0.000030511325
       4       -0.000555406203     0.001343102073    -0.001248244254
       5       -0.000013963621     0.000001495785     0.000005261060
       6        0.000029646842     0.000016442561     0.000002139753
       7       -0.000010156883     0.000002937488    -0.000004547816
       8        0.000723242005    -0.001832159349    -0.000417645980
       9       -0.000533788851     0.001166524531     0.000668986838
      10        0.000002303410    -0.000010450657     0.000003318310
      11        0.000002463033     0.000012854882     0.000009394032

  **** Optimization is complete! (in 6 steps) ****
    Final optimized geometry and variables:
    Molecular point group: c1

    Geometry (in Angstrom), charge = 0, multiplicity = 1:

    O            0.605131885281    -0.873622764401    -0.843716507093
    C           -0.237676695759    -0.363958191580    -0.188279801292
    C           -1.649756543722    -0.860911118500    -0.066036602220
    O           -0.045463801371     0.728278904797     0.532241684385
    H           -1.870793953010    -1.075710657879     0.971443737065
    H           -1.773094565164    -1.748647606442    -0.664543714866
    H           -2.334841652925    -0.090446513881    -0.395448016862
    C            1.249069660750     1.297257616953     0.538341466583
    H            1.403175827892     1.883385212698    -0.356866885609
    H            2.006441191695     0.533336368452     0.605704522234
    H            1.287660288603     1.942880553769     1.401204058263

  Mulliken Charges: (a.u.)
   Center  Symbol    Alpha    Beta     Spin     Total
       1     O     4.19690  4.19690  0.00000 -0.39380
       2     C     2.80078  2.80078  0.00000  0.39843
       3     C     3.13853  3.13853  0.00000 -0.27707
       4     O     4.14821  4.14821  0.00000 -0.29642
       5     H     0.44570  0.44570  0.00000  0.10860
       6     H     0.43789  0.43789  0.00000  0.12422
       7     H     0.44522  0.44522  0.00000  0.10957
       8     C     3.03361  3.03361  0.00000 -0.06721
       9     H     0.45642  0.45642  0.00000  0.08716
      10     H     0.44997  0.44997  0.00000  0.10007
      11     H     0.44678  0.44678  0.00000  0.10644

   Total alpha = 20.00000, Total beta = 20.00000, Total charge =  0.00000

*** Psi4 exiting successfully. Buy a developer a beer!
