  ==> Input File <==

--------------------------------------------------------------------------
set {
	reference rhf
	basis cc-pvtz
}

set_num_threads( 4 )
memory 2 gb

molecule MOL {
0 1

H	 -1.838548	 0.067684	 -1.061074
C	 -1.046105	 -0.484944	 -0.603724
C	 -1.039524	 -1.865044	 -0.599956
C	 0.000000	 0.179985	 0.000046
H	 -1.843877	 -2.400779	 -1.064195
C	 0.000002	 -2.552036	 -0.000013
N	 0.000000	 1.644631	 0.000076
C	 1.046105	 -0.484969	 0.603790
H	 0.000000	 -3.625035	 -0.000032
C	 1.039525	 -1.865069	 0.599962
O	 1.050559	 2.194174	 -0.000073
O	 -1.050559	 2.194174	 -0.000074
H	 1.838552	 0.067641	 1.061155
H	 1.843877	 -2.400822	 1.064183

	symmetry c1
}
set optking {
	frozen_dihedral = ("
		2 4 7 11
	")
}

ee = optimize('scf')
oeprop('DIPOLE', 'QUADRUPOLE', 'MULLIKEN_CHARGES')
f=open( 'psi4out.xyz', 'w' )
f.write( "14  " )
f.write( str(ee) + "\n" )
f.write( MOL.save_string_xyz() )
f.close()
--------------------------------------------------------------------------

    Molecular point group: c1
  Charge       = 0
  Multiplicity = 1
  Basis Set: CC-PVTZ
  Basis Set:
  @DF-RHF Final Energy:  -434.32830400294199
    Total Energy =                       -434.3283040029422182
    Molecular point group: c1
  Basis Set: CC-PVTZ
  Basis Set:
  Basis Set: CC-PVTZ
  Basis Set:
  @DF-RHF Final Energy:  -434.32086184914670
    Total Energy =                       -434.3208618491469224
  Basis Set: CC-PVTZ
  Basis Set:
  Basis Set: CC-PVTZ
  Basis Set:
  @DF-RHF Final Energy:  -434.32829717178811
    Total Energy =                       -434.3282971717883356
  Basis Set: CC-PVTZ
  Basis Set:
  Basis Set: CC-PVTZ
  Basis Set:
  @DF-RHF Final Energy:  -434.32850332055091
    Total Energy =                       -434.3285033205510217
  Basis Set: CC-PVTZ
  Basis Set:
  Basis Set: CC-PVTZ
  Basis Set:
  @DF-RHF Final Energy:  -434.32850437377510
    Total Energy =                       -434.3285043737751039
  Basis Set: CC-PVTZ
  Basis Set:
  Charge       = 0
  Multiplicity = 1
  Basis Set: CC-PVTZ
  Basis Set:

    Orbital Energies (a.u.)
    -----------------------

    Doubly Occupied:

       1A    -20.593115     2A    -20.592909     3A    -15.847503
       4A    -11.303396     5A    -11.267713     6A    -11.267575
       7A    -11.263783     8A    -11.258892     9A    -11.258713
      10A     -1.641642    11A     -1.424352    12A     -1.205311
      13A     -1.096329    14A     -1.055735    15A     -0.959544
      16A     -0.869320    17A     -0.829361    18A     -0.788216
      19A     -0.740457    20A     -0.735520    21A     -0.713512
      22A     -0.657971    23A     -0.651735    24A     -0.626412
      25A     -0.557214    26A     -0.543800    27A     -0.532147
      28A     -0.494459    29A     -0.490832    30A     -0.456957
      31A     -0.376202    32A     -0.369833

  @DF-RHF Final Energy:  -434.32850623419557

   => Energetics <=

    Nuclear Repulsion Energy =            418.1745064394286260
    One-Electron Energy =               -1420.0650968752850076
    Two-Electron Energy =                 567.5620842016608094
    DFT Exchange-Correlation Energy =       0.0000000000000000
    Empirical Dispersion Energy =           0.0000000000000000
    PCM Polarization Energy =               0.0000000000000000
    EFP Energy =                            0.0000000000000000
    Total Energy =                       -434.3285062341956291
    Molecular point group: c1
  Basis Set: CC-PVTZ
  Basis Set:

  -Total Gradient:
     Atom            X                  Y                   Z
    ------   -----------------  -----------------  -----------------
       1        0.000000743275    -0.000003440901     0.000001969082
       2        0.001486979599    -0.000067670630    -0.002518057549
       3       -0.000016726893     0.000019722113     0.000004094438
       4       -0.002116106311     0.000052237460     0.002384253467
       5        0.000000967032    -0.000000027432    -0.000002211002
       6        0.000019693927    -0.000001996011     0.000015618560
       7        0.000590678836     0.000045526822     0.003472659725
       8       -0.000023504807     0.000021293758     0.000009242662
       9       -0.000001434941     0.000000857965    -0.000000779056
      10       -0.000002746660    -0.000021233907    -0.000022137864
      11        0.000071700373    -0.000053784424    -0.003348460329
      12       -0.000014265752     0.000006416599     0.000001065828
      13        0.000003013306    -0.000001334525     0.000000023658
      14        0.000001009016     0.000003433108     0.000002718380

  **** Optimization is complete! (in 6 steps) ****
    Final optimized geometry and variables:
    Molecular point group: c1

    Geometry (in Angstrom), charge = 0, multiplicity = 1:

    H           -1.851503077222     0.073994825821    -1.034134175194
    C           -1.053498549921    -0.480714291022    -0.587162884231
    C           -1.037425724265    -1.861049571158    -0.601125810410
    C           -0.010836169743     0.180060804692     0.023488588675
    H           -1.834575785956    -2.396532949042    -1.077937104572
    C            0.002115661897    -2.548330781658    -0.001884415278
    N            0.000198110870     1.642035198029     0.002702585825
    C            1.046827131848    -0.482102642226     0.606750637566
    H            0.005995319530    -3.621192637732    -0.009734587487
    C            1.039109905829    -1.862235090559     0.603853477101
    O            1.056687984257     2.180337328774     0.010780263120
    O           -1.047300042402     2.195711944782    -0.045732850792
    H            1.847662539205     0.071770144136     1.049770180000
    H            1.843890696396    -2.398935391460     1.066264869263

  Mulliken Charges: (a.u.)
   Center  Symbol    Alpha    Beta     Spin     Total
       1     H     0.40270  0.40270  0.00000  0.19460
       2     C     3.08222  3.08222  0.00000 -0.16444
       3     C     3.07142  3.07142  0.00000 -0.14284
       4     C     2.95899  2.95899  0.00000  0.08201
       5     H     0.41699  0.41699  0.00000  0.16602
       6     C     3.06635  3.06635  0.00000 -0.13269
       7     N     3.26433  3.26433  0.00000  0.47133
       8     C     3.08078  3.08078  0.00000 -0.16155
       9     H     0.41723  0.41723  0.00000  0.16555
      10     C     3.07115  3.07115  0.00000 -0.14231
      11     O     4.17307  4.17307  0.00000 -0.34613
      12     O     4.17414  4.17414  0.00000 -0.34828
      13     H     0.40360  0.40360  0.00000  0.19281
      14     H     0.41704  0.41704  0.00000  0.16592

   Total alpha = 32.00000, Total beta = 32.00000, Total charge = -0.00000
