  ==> Input File <==

--------------------------------------------------------------------------
set {
	reference rhf
	basis 6-31G*
}

set_num_threads( 4 )
memory 2 gb

molecule MOL {
0 1

H	 3.276176	 0.174363	 -0.109463
N	 2.434251	 -0.367735	 -0.081097
C	 1.267428	 0.496480	 0.024474
H	 2.501951	 -0.965776	 0.720575
C	 -0.016086	 -0.325158	 -0.029487
H	 1.288818	 1.183521	 -0.816092
H	 1.267576	 1.109062	 0.929528
C	 -1.282277	 0.529072	 0.046735
H	 -0.012495	 -0.908639	 -0.945788
H	 -0.015903	 -1.041248	 0.791956
C	 -1.431738	 1.477780	 -1.142096
H	 -1.271972	 1.107181	 0.968510
H	 -2.155307	 -0.117985	 0.102340
H	 -0.590578	 2.162065	 -1.204738
H	 -2.336672	 2.071862	 -1.060358
H	 -1.479996	 0.928389	 -2.078078

	symmetry c1
}
set optking {
	frozen_dihedral = ("
		12 8 5 9
	")
}

ee = optimize('scf')
oeprop('DIPOLE', 'QUADRUPOLE', 'MULLIKEN_CHARGES')
f=open( 'psi4out.xyz', 'w' )
f.write( "16  " )
f.write( str(ee) + "\n" )
f.write( MOL.save_string_xyz() )
f.close()
--------------------------------------------------------------------------

    Molecular point group: c1
  Charge       = 0
  Multiplicity = 1
  Basis Set: 6-31G*
  Basis Set:
  @DF-RHF Final Energy:  -212.31485291577155
    Total Energy =                       -212.3148529157716666
    Molecular point group: c1
  Basis Set: 6-31G*
  Basis Set:
  Basis Set: 6-31G*
  Basis Set:
  @DF-RHF Final Energy:  -212.31518106572389
    Total Energy =                       -212.3151810657238912
  Basis Set: 6-31G*
  Basis Set:
  Basis Set: 6-31G*
  Basis Set:
  @DF-RHF Final Energy:  -212.31550377569511
    Total Energy =                       -212.3155037756952197
  Basis Set: 6-31G*
  Basis Set:
  Basis Set: 6-31G*
  Basis Set:
  @DF-RHF Final Energy:  -212.31552016274489
    Total Energy =                       -212.3155201627448605
  Basis Set: 6-31G*
  Basis Set:
  Basis Set: 6-31G*
  Basis Set:
  @DF-RHF Final Energy:  -212.31552141292838
    Total Energy =                       -212.3155214129284900
  Basis Set: 6-31G*
  Basis Set:
  Charge       = 0
  Multiplicity = 1
  Basis Set: 6-31G*
  Basis Set:

    Orbital Energies (a.u.)
    -----------------------

    Doubly Occupied:

       1A    -15.532620     2A    -11.239533     3A    -11.215264
       4A    -11.209887     5A    -11.207836     6A     -1.176764
       7A     -1.058442     8A     -0.954814     9A     -0.857991
      10A     -0.779892    11A     -0.664646    12A     -0.628807
      13A     -0.605952    14A     -0.596660    15A     -0.547637
      16A     -0.521676    17A     -0.516018    18A     -0.466850
      19A     -0.465584    20A     -0.455305    21A     -0.381197

  @DF-RHF Final Energy:  -212.31552151989791

   => Energetics <=

    Nuclear Repulsion Energy =            188.6244945324550599
    One-Electron Energy =                -659.7132821455703606
    Two-Electron Energy =                 258.7732660932174440
    DFT Exchange-Correlation Energy =       0.0000000000000000
    Empirical Dispersion Energy =           0.0000000000000000
    PCM Polarization Energy =               0.0000000000000000
    EFP Energy =                            0.0000000000000000
    Total Energy =                       -212.3155215198978567
    Molecular point group: c1
  Basis Set: 6-31G*
  Basis Set:

  -Total Gradient:
     Atom            X                  Y                   Z
    ------   -----------------  -----------------  -----------------
       1       -0.000004229980     0.000002061266     0.000000321515
       2        0.000000174940    -0.000005691165    -0.000006241657
       3        0.000001336876     0.000004776147     0.000003709944
       4       -0.000002797242     0.000001302618     0.000000177263
       5       -0.000020282938    -0.000038374525     0.000040818612
       6        0.000003689304    -0.000001881024    -0.000001508259
       7       -0.000006470585     0.000002715461    -0.000001758140
       8       -0.000031585406    -0.000055683464     0.000012625363
       9        0.000020217930     0.000048892463    -0.000024707983
      10       -0.000001223573    -0.000005027834     0.000001076082
      11        0.000008181337     0.000013073891     0.000001230604
      12        0.000030019514     0.000036265802    -0.000033069000
      13        0.000001573929    -0.000008378860     0.000009774502
      14        0.000001956337     0.000006772607    -0.000007623360
      15        0.000000820350     0.000000440261    -0.000000421253
      16       -0.000001380793    -0.000001263643     0.000005595766

  **** Optimization is complete! (in 6 steps) ****
    Final optimized geometry and variables:
    Molecular point group: c1

    Geometry (in Angstrom), charge = 0, multiplicity = 1:

    H            3.068444622410    -0.260065176461     0.172896328781
    N            2.209942873219    -0.775588564769     0.197825016618
    C            1.067024737222     0.125122762699     0.240989317424
    H            2.238610361515    -1.347775005674     1.020326261784
    C           -0.234182453316    -0.670271946349     0.175533990333
    H            1.142167702878     0.785097880443    -0.616068418075
    H            1.055448737131     0.762796173860     1.129049892074
    C           -1.504936548677     0.180358574086     0.272591681271
    H           -0.239462105967    -1.247697407227    -0.744725283094
    H           -0.236836423478    -1.392614301184     0.990500042721
    C           -1.724019394303     1.128638906937    -0.908176600817
    H           -1.488261253565     0.753649444779     1.197535951601
    H           -2.359598807198    -0.487044132815     0.347028241361
    H           -0.950341422841     1.887085122356    -0.970124538570
    H           -2.675842738284     1.643049925640    -0.817976703365
    H           -1.729934180873     0.584805842144    -1.848762765211

  Mulliken Charges: (a.u.)
   Center  Symbol    Alpha    Beta     Spin     Total
       1     H     0.33242  0.33242  0.00000  0.33515
       2     N     3.92191  3.92191  0.00000 -0.84383
       3     C     3.06196  3.06196  0.00000 -0.12391
       4     H     0.33535  0.33535  0.00000  0.32929
       5     C     3.15129  3.15129  0.00000 -0.30258
       6     H     0.41894  0.41894  0.00000  0.16211
       7     H     0.43527  0.43527  0.00000  0.12947
       8     C     3.15673  3.15673  0.00000 -0.31345
       9     H     0.41404  0.41404  0.00000  0.17192
      10     H     0.42625  0.42625  0.00000  0.14751
      11     C     3.24124  3.24124  0.00000 -0.48249
      12     H     0.42399  0.42399  0.00000  0.15202
      13     H     0.41977  0.41977  0.00000  0.16047
      14     H     0.42117  0.42117  0.00000  0.15767
      15     H     0.41932  0.41932  0.00000  0.16137
      16     H     0.42035  0.42035  0.00000  0.15930

   Total alpha = 21.00000, Total beta = 21.00000, Total charge =  0.00000
