  ==> Input File <==

--------------------------------------------------------------------------
set {
	reference rhf
	basis 6-31G*
}

set_num_threads( 4 )
memory 2 gb

molecule MOL {
0 1

H	 -1.546115	 0.675197	 2.225001
C	 -1.152791	 0.357188	 1.279712
C	 -1.935045	 0.420530	 0.079050
C	 0.096180	 -0.116104	 1.182321
H	 -2.942024	 0.795993	 0.124510
C	 -1.421354	 0.017006	 -1.091742
H	 0.746006	 -0.195808	 2.033072
N	 0.640212	 -0.532897	 -0.000111
H	 -1.976107	 0.049777	 -2.009092
C	 -0.062221	 -0.497932	 -1.197459
C	 2.010177	 -1.032049	 0.000042
O	 0.436182	 -0.870314	 -2.230480
H	 2.187698	 -1.635381	 -0.882279
H	 2.677579	 -0.189247	 -0.001871
H	 2.188882	 -1.632203	 0.884288

	symmetry c1
}
set optking {
	frozen_dihedral = ("
		10 8 11 13
	")
}

ee = optimize('scf')
oeprop('DIPOLE', 'QUADRUPOLE', 'MULLIKEN_CHARGES')
f=open( 'psi4out.xyz', 'w' )
f.write( "15  " )
f.write( str(ee) + "\n" )
f.write( MOL.save_string_xyz() )
f.close()
--------------------------------------------------------------------------

    Molecular point group: c1
  Charge       = 0
  Multiplicity = 1
  Basis Set: 6-31G*
  Basis Set:
  @DF-RHF Final Energy:  -360.59551351659661
    Total Energy =                       -360.5955135165963839
    Molecular point group: c1
  Basis Set: 6-31G*
  Basis Set:
  Basis Set: 6-31G*
  Basis Set:
  @DF-RHF Final Energy:  -360.59590095345862
    Total Energy =                       -360.5959009534585675
  Basis Set: 6-31G*
  Basis Set:
  Basis Set: 6-31G*
  Basis Set:
  @DF-RHF Final Energy:  -360.59593999749870
    Total Energy =                       -360.5959399974987036
  Basis Set: 6-31G*
  Basis Set:
  Basis Set: 6-31G*
  Basis Set:
  @DF-RHF Final Energy:  -360.59595544257115
    Total Energy =                       -360.5959554425713236
  Basis Set: 6-31G*
  Basis Set:
  Basis Set: 6-31G*
  Basis Set:
  @DF-RHF Final Energy:  -360.59597265142946
    Total Energy =                       -360.5959726514296335
  Basis Set: 6-31G*
  Basis Set:
  Charge       = 0
  Multiplicity = 1
  Basis Set: 6-31G*
  Basis Set:

    Orbital Energies (a.u.)
    -----------------------

    Doubly Occupied:

       1A    -20.508705     2A    -15.621505     3A    -11.343073
       4A    -11.296879     5A    -11.264734     6A    -11.260418
       7A    -11.233569     8A    -11.229124     9A     -1.384443
      10A     -1.281029    11A     -1.114824    12A     -1.025858
      13A     -0.970042    14A     -0.872256    15A     -0.835420
      16A     -0.715527    17A     -0.698320    18A     -0.660831
      19A     -0.647966    20A     -0.621901    21A     -0.606643
      22A     -0.572645    23A     -0.552164    24A     -0.547044
      25A     -0.526436    26A     -0.476487    27A     -0.413932
      28A     -0.405684    29A     -0.305077

  @DF-RHF Final Energy:  -360.59597277036681

   => Energetics <=

    Nuclear Repulsion Energy =            357.6570792803427707
    One-Electron Energy =               -1198.5210263666692754
    Two-Electron Energy =                 480.2679743159597479
    DFT Exchange-Correlation Energy =       0.0000000000000000
    Empirical Dispersion Energy =           0.0000000000000000
    PCM Polarization Energy =               0.0000000000000000
    EFP Energy =                            0.0000000000000000
    Total Energy =                       -360.5959727703668136
    Molecular point group: c1
  Basis Set: 6-31G*
  Basis Set:

  -Total Gradient:
     Atom            X                  Y                   Z
    ------   -----------------  -----------------  -----------------
       1       -0.000002405170    -0.000009089791     0.000002191096
       2        0.000011814656    -0.000023657013     0.000004247133
       3        0.000001865423     0.000012739100    -0.000016379505
       4        0.000014120257     0.000054691411     0.000004771377
       5       -0.000000366051    -0.000005054914     0.000001832740
       6       -0.000005317515     0.000011285735    -0.000001415938
       7       -0.000002567670    -0.000014625975     0.000004070774
       8        0.000210111910     0.000638893867    -0.000175823314
       9       -0.000000102295    -0.000003911332    -0.000001200632
      10       -0.000123689721    -0.000409108802     0.000090034540
      11       -0.000223865227    -0.000655502386     0.000343702486
      12       -0.000010538129     0.000007532560    -0.000020995956
      13        0.000129606277     0.000408651326    -0.000234836783
      14        0.000003685215    -0.000009430101     0.000000531055
      15       -0.000002351961    -0.000003413684    -0.000000729072

  **** Optimization is complete! (in 6 steps) ****
    Final optimized geometry and variables:
    Molecular point group: c1

    Geometry (in Angstrom), charge = 0, multiplicity = 1:

    H           -1.437662681154     0.996787661435     2.496524314419
    C           -1.043184826459     0.672887848048     1.553777550088
    C           -1.824892789272     0.727189487242     0.352547961689
    C            0.205221412783     0.196149986736     1.462068617372
    H           -2.832475668732     1.101241903606     0.395583371651
    C           -1.310353892804     0.316629384803    -0.815612904973
    H            0.852407873178     0.120360704645     2.314823193207
    N            0.747735140919    -0.233186995013     0.283761534269
    H           -1.864065674726     0.343708202256    -1.733887864784
    C            0.051937437488    -0.189763284344    -0.916703203332
    C            2.121771838251    -0.720811957952     0.271121987741
    O            0.562659327845    -0.549729139695    -1.948164625491
    H            2.272338275447    -1.299204812511    -0.623078519371
    H            2.821960797617     0.106803347722     0.275238204572
    H            2.294739257851    -1.339108535889     1.142197737514

  Mulliken Charges: (a.u.)
   Center  Symbol    Alpha    Beta     Spin     Total
       1     H     0.39290  0.39290  0.00000  0.21420
       2     C     3.16172  3.16172  0.00000 -0.32344
       3     C     3.05826  3.05826  0.00000 -0.11653
       4     C     2.92102  2.92102  0.00000  0.15797
       5     H     0.39086  0.39086  0.00000  0.21829
       6     C     3.16970  3.16970  0.00000 -0.33939
       7     H     0.38793  0.38793  0.00000  0.22414
       8     N     3.86528  3.86528  0.00000 -0.73055
       9     H     0.38637  0.38637  0.00000  0.22726
      10     C     2.59451  2.59451  0.00000  0.81098
      11     C     3.15158  3.15158  0.00000 -0.30317
      12     O     4.32194  4.32194  0.00000 -0.64387
      13     H     0.37728  0.37728  0.00000  0.24545
      14     H     0.40765  0.40765  0.00000  0.18469
      15     H     0.41302  0.41302  0.00000  0.17396

   Total alpha = 29.00000, Total beta = 29.00000, Total charge = -0.00000
