  ==> Input File <==

--------------------------------------------------------------------------
set {
	reference rhf
	basis 6-31G*
}

set_num_threads( 1 )
memory 2 gb

molecule MOL {
0 1

H	 -3.420663	 1.227371	 -1.044276
O	 -3.452007	 0.283848	 -0.965577
C	 -3.181085	 -0.079926	 0.364119
C	 -1.765924	 0.277073	 0.805136
H	 -3.327791	 -1.152017	 0.410903
H	 -3.905698	 0.375695	 1.036898
C	 -1.598950	 0.346532	 2.323627
H	 -1.070560	 -0.454222	 0.392054
H	 -1.499528	 1.233773	 0.359064
C	 -0.170274	 0.683203	 2.755732
H	 -1.899853	 -0.601371	 2.759113
H	 -2.281992	 1.095368	 2.721234
C	 -0.012304	 0.756793	 4.276823
H	 0.507662	 -0.062539	 2.347455
H	 0.125193	 1.636236	 2.318661
C	 1.381035	 1.178340	 4.757508
H	 -0.264352	 -0.209165	 4.711670
H	 -0.740659	 1.463924	 4.668335
C	 2.493433	 0.177685	 4.438656
H	 1.343685	 1.325771	 5.834151
H	 1.632000	 2.146231	 4.328083
H	 2.263605	 -0.803598	 4.845351
H	 3.436749	 0.499870	 4.868990
H	 2.645528	 0.065689	 3.370251

	symmetry c1
}
set optking {
	frozen_dihedral = ("
		20 16 13 17,
		17 13 10 7,
		13 10 7 11,
		11 7 4 3,
		1 2 3 5
	")
}

ee = energy('scf')
oeprop('DIPOLE', 'QUADRUPOLE', 'MULLIKEN_CHARGES')
f=open( 'psi4out.xyz', 'w' )
f.write( "24  " )
f.write( str(ee) + "\n" )
f.write( MOL.save_string_xyz() )
f.close()
--------------------------------------------------------------------------

    Molecular point group: c1

    Geometry (in Angstrom), charge = 0, multiplicity = 1:

       Center              X                  Y                   Z               Mass
    ------------   -----------------  -----------------  -----------------  -----------------
           H         -2.594186185000     0.775558890488    -3.330585865770     1.007825032070
           O         -2.625530185000    -0.167964109512    -3.251886865770    15.994914619560
           C         -2.354608185000    -0.531738109512    -1.922190865770    12.000000000000
           C         -0.939447185000    -0.174739109512    -1.481173865770    12.000000000000
           H         -2.501314185000    -1.603829109512    -1.875406865770     1.007825032070
           H         -3.079221185000    -0.076117109512    -1.249411865770     1.007825032070
           C         -0.772473185000    -0.105280109512     0.037317134230    12.000000000000
           H         -0.244083185000    -0.906034109512    -1.894255865770     1.007825032070
           H         -0.673051185000     0.781960890488    -1.927245865770     1.007825032070
           C          0.656202815000     0.231390890488     0.469422134230    12.000000000000
           H         -1.073376185000    -1.053183109512     0.472803134230     1.007825032070
           H         -1.455515185000     0.643555890488     0.434924134230     1.007825032070
           C          0.814172815000     0.304980890488     1.990513134230    12.000000000000
           H          1.334138815000    -0.514351109512     0.061145134230     1.007825032070
           H          0.951669815000     1.184423890488     0.032351134230     1.007825032070
           C          2.207511815000     0.726527890488     2.471198134230    12.000000000000
           H          0.562124815000    -0.660977109512     2.425360134230     1.007825032070
           H          0.085817815000     1.012111890488     2.382025134230     1.007825032070
           C          3.319909815000    -0.274127109512     2.152346134230    12.000000000000
           H          2.170161815000     0.873958890488     3.547841134230     1.007825032070
           H          2.458476815000     1.694418890488     2.041773134230     1.007825032070
           H          3.090081815000    -1.255410109512     2.559041134230     1.007825032070
           H          4.263225815000     0.048057890488     2.582680134230     1.007825032070
           H          3.472004815000    -0.386123109512     1.083941134230     1.007825032070

  Charge       = 0
  Multiplicity = 1
  Basis Set: 6-31G*
  Basis Set:

    Orbital Energies (a.u.)
    -----------------------

    Doubly Occupied:

       1A    -20.551999     2A    -11.266692     3A    -11.219900
       4A    -11.216877     5A    -11.216755     6A    -11.216519
       7A    -11.215359     8A    -11.209263     9A     -1.358464
      10A     -1.093229    11A     -1.051748    12A     -0.986836
      13A     -0.915179    14A     -0.851322    15A     -0.805093
      16A     -0.779763    17A     -0.690717    18A     -0.654592
      19A     -0.624390    20A     -0.610541    21A     -0.601434
      22A     -0.586797    23A     -0.557318    24A     -0.539633
      25A     -0.528981    26A     -0.511825    27A     -0.489933
      28A     -0.483779    29A     -0.473894    30A     -0.462399
      31A     -0.456550    32A     -0.449020    33A     -0.421241

  @DF-RHF Final Energy:  -349.24550715670631

   => Energetics <=

    Nuclear Repulsion Energy =            379.8530601245683442
    One-Electron Energy =               -1226.0011092635700152
    Two-Electron Energy =                 496.9025419822950198
    DFT Exchange-Correlation Energy =       0.0000000000000000
    Empirical Dispersion Energy =           0.0000000000000000
    PCM Polarization Energy =               0.0000000000000000
    EFP Energy =                            0.0000000000000000
    Total Energy =                       -349.2455071567065943

  Mulliken Charges: (a.u.)
   Center  Symbol    Alpha    Beta     Spin     Total
       1     H     0.28350  0.28350  0.00000  0.43300
       2     O     4.37127  4.37127  0.00000 -0.74255
       3     C     2.98934  2.98934  0.00000  0.02131
       4     C     3.16673  3.16673  0.00000 -0.33345
       5     H     0.41550  0.41550  0.00000  0.16900
       6     H     0.43143  0.43143  0.00000  0.13714
       7     C     3.15969  3.15969  0.00000 -0.31938
       8     H     0.41591  0.41591  0.00000  0.16818
       9     H     0.42688  0.42688  0.00000  0.14625
      10     C     3.15331  3.15331  0.00000 -0.30661
      11     H     0.42122  0.42122  0.00000  0.15756
      12     H     0.42347  0.42347  0.00000  0.15306
      13     C     3.15253  3.15253  0.00000 -0.30505
      14     H     0.42011  0.42011  0.00000  0.15978
      15     H     0.42371  0.42371  0.00000  0.15259
      16     C     3.15244  3.15244  0.00000 -0.30488
      17     H     0.42390  0.42390  0.00000  0.15220
      18     H     0.42254  0.42254  0.00000  0.15491
      19     C     3.24132  3.24132  0.00000 -0.48264
      20     H     0.42077  0.42077  0.00000  0.15847
      21     H     0.42341  0.42341  0.00000  0.15318
      22     H     0.42213  0.42213  0.00000  0.15575
      23     H     0.41901  0.41901  0.00000  0.16198
      24     H     0.41989  0.41989  0.00000  0.16022

   Total alpha = 33.00000, Total beta = 33.00000, Total charge = -0.00000
