                              Psi4 1.0.54 Driver

  ==> Input File <==

--------------------------------------------------------------------------
set {
	reference rhf
	basis cc-pvtz
}

set_num_threads( 4 )
memory 2 gb

molecule MOL {
0 1

O	 2.640053	 1.706200	 0.470900
C	 2.135523	 1.256464	 1.447269
C	 0.861081	 0.438440	 1.397589
C	 2.738368	 1.473128	 2.816889
C	 0.288398	 0.247429	 0.000314
H	 1.070314	 -0.522108	 1.863031
H	 0.136128	 0.921947	 2.048490
C	 -0.993089	 -0.581367	 -0.000217
H	 1.034038	 -0.226594	 -0.627729
H	 0.099156	 1.218796	 -0.442141
C	 -2.258482	 0.271340	 0.000669
H	 -1.002280	 -1.233920	 -0.870484
H	 -1.002061	 -1.235367	 0.868958
C	 -3.544441	 -0.550271	 -0.000253
H	 -2.250545	 0.925250	 -0.867923
H	 -2.250598	 0.923423	 0.870642
C	 -4.804551	 0.308747	 0.000556
H	 -3.553737	 -1.201524	 -0.870151
H	 -3.553831	 -1.203282	 0.868313
H	 -4.842050	 0.949078	 -0.874436
H	 -5.698404	 -0.304480	 -0.000254
H	 -4.842277	 0.947103	 0.876982
H	 2.970226	 0.519677	 3.278648
H	 3.637329	 2.063931	 2.731963
H	 2.028540	 1.979184	 3.461941

	symmetry c1
}
set optking {
	frozen_dihedral = ("
		9 5 8 12
	")
}

ee,wfn = optimize('scf', return_wfn=True)
oeprop( wfn, 'DIPOLE', 'QUADRUPOLE', 'MULLIKEN_CHARGES')
f=open( 'psi4out.xyz', 'w' )
f.write( "25  " )
f.write( str(ee) + "\n" )
f.write( MOL.save_string_xyz() )
f.close()
--------------------------------------------------------------------------

    Molecular point group: c1
  Charge       = 0
  Multiplicity = 1
  Basis Set: CC-PVTZ
  Basis Set:
  @DF-RHF Final Energy:  -387.27046078287276
    Total Energy =                       -387.2704607828723056
    Molecular point group: c1
  Basis Set: CC-PVTZ
  Basis Set:
  Basis Set: CC-PVTZ
  Basis Set:
  @DF-RHF Final Energy:  -387.27075560858145
    Total Energy =                       -387.2707556085809983
  Basis Set: CC-PVTZ
  Basis Set:
  Basis Set: CC-PVTZ
  Basis Set:
  @DF-RHF Final Energy:  -387.27040388394533
    Total Energy =                       -387.2704038839450504
  Basis Set: CC-PVTZ
  Basis Set:
  Basis Set: CC-PVTZ
  Basis Set:
  @DF-RHF Final Energy:  -387.27080441334886
    Total Energy =                       -387.2708044133485146
  Basis Set: CC-PVTZ
  Basis Set:
  Basis Set: CC-PVTZ
  Basis Set:
  @DF-RHF Final Energy:  -387.27081673422992
    Total Energy =                       -387.2708167342296974
  Basis Set: CC-PVTZ
  Basis Set:
  Charge       = 0
  Multiplicity = 1
  Basis Set: CC-PVTZ
  Basis Set:

    Orbital Energies (a.u.)
    -----------------------

    Doubly Occupied:

       1A    -20.538960     2A    -11.320480     3A    -11.230532
       4A    -11.226632     5A    -11.215042     6A    -11.214768
       7A    -11.214431     8A    -11.213631     9A    -11.207937
      10A     -1.398947    11A     -1.095027    12A     -1.057462
      13A     -1.015252    14A     -0.969700    15A     -0.894870
      16A     -0.816422    17A     -0.790948    18A     -0.733514
      19A     -0.660882    20A     -0.645777    21A     -0.642168
      22A     -0.623837    23A     -0.599243    24A     -0.575954
      25A     -0.571596    26A     -0.567230    27A     -0.542369
      28A     -0.524959    29A     -0.519171    30A     -0.495205
      31A     -0.486270    32A     -0.479281    33A     -0.464442
      34A     -0.460766    35A     -0.447232    36A     -0.402154

  @DF-RHF Final Energy:  -387.27081741867954

   => Energetics <=

    Nuclear Repulsion Energy =            443.4313361440279664
    One-Electron Energy =               -1403.6781312152811552
    Two-Electron Energy =                 572.9759776525741017
    DFT Exchange-Correlation Energy =       0.0000000000000000
    Empirical Dispersion Energy =           0.0000000000000000
    PCM Polarization Energy =               0.0000000000000000
    EFP Energy =                            0.0000000000000000
    Total Energy =                       -387.2708174186791439
    Molecular point group: c1
  Basis Set: CC-PVTZ
  Basis Set:

  -Total Gradient:
     Atom            X                  Y                   Z
    ------   -----------------  -----------------  -----------------
       1        0.000003771894     0.000008460614    -0.000005250305
       2       -0.000016808662    -0.000023242317     0.000036888395
       3        0.000023767464     0.000033684735    -0.000012771818
       4        0.000028611508    -0.000010387216     0.000002384572
       5        0.001544331403    -0.002825439643     0.003683281891
       6       -0.000005233250     0.000000172563    -0.000010797319
       7       -0.000003944342    -0.000015302569    -0.000014286435
       8       -0.001960682926     0.003463196429    -0.002820859413
       9       -0.000992993732     0.001807061514    -0.002621244584
      10       -0.000002001081    -0.000001651637     0.000005734301
      11        0.000002954476    -0.000003731714     0.000009167488
      12        0.001395926907    -0.002444709210     0.001749894416
      13        0.000002744926     0.000009185526     0.000006385355
      14        0.000012090652     0.000008654657     0.000014244319
      15        0.000014942807    -0.000000140880     0.000010117688
      16        0.000007757565    -0.000015168793    -0.000005339297
      17       -0.000023557275    -0.000008223017    -0.000016612599
      18       -0.000002486791     0.000000147953     0.000006120154
      19       -0.000000440889     0.000004545353    -0.000001455116
      20       -0.000000372918     0.000002163661     0.000003889580
      21       -0.000011811853     0.000006756666    -0.000004351075
      22        0.000004212524    -0.000007471271    -0.000001309164
      23       -0.000010831763     0.000025865119     0.000002155924
      24       -0.000023662644    -0.000012056191    -0.000002892007
      25        0.000013716005    -0.000002370334    -0.000013094950

  **** Optimization is complete! (in 6 steps) ****
    Final optimized geometry and variables:
    Molecular point group: c1

    Geometry (in Angstrom), charge = 0, multiplicity = 1:

    O            2.973138598545     1.181013570185    -0.171046319119
    C            2.460173530948     0.711711729409     0.791595416798
    C            1.196546794193    -0.120786852138     0.712700915439
    C            3.041365893549     0.915784594967     2.172576249489
    C            0.654083642384    -0.312488682650    -0.696695375376
    H            1.408122603717    -1.081536083407     1.175985505441
    H            0.454715972750     0.350844294254     1.353040341398
    C           -0.665412316893    -1.099226599913    -0.738587876882
    H            1.401416251438    -0.796327670730    -1.312591566252
    H            0.510183944129     0.661359317174    -1.150646482540
    C           -1.912627145134    -0.219663592541    -0.719217076750
    H           -0.679241334608    -1.736518813859    -1.616854530617
    H           -0.704137870559    -1.785109214564     0.105154024777
    C           -3.215572528716    -1.013261849882    -0.696797291758
    H           -1.902489172756     0.429330968527    -1.591079549014
    H           -1.881218105538     0.438077550302     0.146808774771
    C           -4.457573924831    -0.128185490616    -0.697328285834
    H           -3.245487350765    -1.675787463339    -1.557545290188
    H           -3.230827207354    -1.654436980709     0.180441321653
    H           -4.489637818888     0.500472922504    -1.580906435630
    H           -5.363898490672    -0.722566607106    -0.681822034989
    H           -4.474697365244     0.523046574474     0.170397130282
    H            3.280277331445    -0.041266980071     2.623017811755
    H            3.933138451368     1.519995849686     2.108869923273
    H            2.316000561335     1.402315094397     2.815349075578

  Mulliken Charges: (a.u.)
   Center  Symbol    Alpha    Beta     Spin     Total
       1     O     4.17078  4.17078  0.00000 -0.34157
       2     C     2.86249  2.86249  0.00000  0.27503
       3     C     3.10926  3.10926  0.00000 -0.21851
       4     C     3.15087  3.15087  0.00000 -0.30175
       5     C     3.09504  3.09504  0.00000 -0.19008
       6     H     0.44439  0.44439  0.00000  0.11122
       7     H     0.44564  0.44564  0.00000  0.10873
       8     C     3.10135  3.10135  0.00000 -0.20269
       9     H     0.43971  0.43971  0.00000  0.12058
      10     H     0.44658  0.44658  0.00000  0.10683
      11     C     3.08430  3.08430  0.00000 -0.16860
      12     H     0.44444  0.44444  0.00000  0.11111
      13     H     0.45794  0.45794  0.00000  0.08412
      14     C     3.08528  3.08528  0.00000 -0.17057
      15     H     0.45204  0.45204  0.00000  0.09592
      16     H     0.45686  0.45686  0.00000  0.08628
      17     C     3.14970  3.14970  0.00000 -0.29940
      18     H     0.45387  0.45387  0.00000  0.09225
      19     H     0.45476  0.45476  0.00000  0.09049
      20     H     0.45443  0.45443  0.00000  0.09114
      21     H     0.44826  0.44826  0.00000  0.10347
      22     H     0.45576  0.45576  0.00000  0.08848
      23     H     0.45031  0.45031  0.00000  0.09938
      24     H     0.43536  0.43536  0.00000  0.12928
      25     H     0.45057  0.45057  0.00000  0.09885

   Total alpha = 36.00000, Total beta = 36.00000, Total charge = -0.00000

*** Psi4 exiting successfully. Buy a developer a beer!
