                              Psi4 1.0.54 Driver

  ==> Input File <==

--------------------------------------------------------------------------
set {
	reference rhf
	basis cc-pvtz
}

set_num_threads( 4 )
memory 2 gb

molecule MOL {
0 1

O	 3.591569	 0.151638	 -0.920585
C	 2.841259	 0.166180	 -0.000295
C	 1.542794	 -0.614730	 -0.000853
C	 3.136143	 0.972905	 1.244077
C	 0.288398	 0.247429	 0.000314
H	 1.557171	 -1.273139	 -0.866508
H	 1.557484	 -1.274998	 0.863344
C	 -0.993089	 -0.581367	 -0.000217
H	 0.305153	 0.900562	 -0.864701
H	 0.305567	 0.898805	 0.866656
C	 -2.258482	 0.271340	 0.000669
H	 -1.002280	 -1.233920	 -0.870484
H	 -1.002061	 -1.235367	 0.868958
C	 -3.544441	 -0.550271	 -0.000253
H	 -2.250545	 0.925250	 -0.867923
H	 -2.250598	 0.923423	 0.870642
C	 -4.804551	 0.308747	 0.000556
H	 -3.553737	 -1.201524	 -0.870151
H	 -3.553831	 -1.203282	 0.868313
H	 -4.842050	 0.949078	 -0.874436
H	 -5.698404	 -0.304480	 -0.000254
H	 -4.842277	 0.947103	 0.876982
H	 3.171130	 0.323111	 2.111598
H	 4.080383	 1.483518	 1.134190
H	 2.347356	 1.697052	 1.415743

	symmetry c1
}
set optking {
	frozen_dihedral = ("
		1 2 3 6
	")
}

ee,wfn = optimize('scf', return_wfn=True)
oeprop( wfn, 'DIPOLE', 'QUADRUPOLE', 'MULLIKEN_CHARGES')
f=open( 'psi4out.xyz', 'w' )
f.write( "25  " )
f.write( str(ee) + "\n" )
f.write( MOL.save_string_xyz() )
f.close()
--------------------------------------------------------------------------

    Molecular point group: c1
  Charge       = 0
  Multiplicity = 1
  Basis Set: CC-PVTZ
  Basis Set:
  @DF-RHF Final Energy:  -387.27178773169601
    Total Energy =                       -387.2717877316958948
    Molecular point group: c1
  Basis Set: CC-PVTZ
  Basis Set:
  Basis Set: CC-PVTZ
  Basis Set:
  @DF-RHF Final Energy:  -387.27164765240423
    Total Energy =                       -387.2716476524043401
  Basis Set: CC-PVTZ
  Basis Set:
  Basis Set: CC-PVTZ
  Basis Set:
  @DF-RHF Final Energy:  -387.27114042581906
    Total Energy =                       -387.2711404258193397
  Basis Set: CC-PVTZ
  Basis Set:
  Basis Set: CC-PVTZ
  Basis Set:
  @DF-RHF Final Energy:  -387.27244630861861
    Total Energy =                       -387.2724463086188962
  Basis Set: CC-PVTZ
  Basis Set:
  @DF-RHF Final Energy:  -387.27247216525632
    Total Energy =                       -387.2724721652563176
  @DF-RHF Final Energy:  -387.27248255496653
    Total Energy =                       -387.2724825549660181
  @DF-RHF Final Energy:  -387.27248453770886
    Total Energy =                       -387.2724845377088059
  Basis Set: CC-PVTZ
  Basis Set:
  @DF-RHF Final Energy:  -387.27248726153846
    Total Energy =                       -387.2724872615383447
  Basis Set: CC-PVTZ
  Basis Set:
  Basis Set: CC-PVTZ
  Basis Set:
  @DF-RHF Final Energy:  -387.27248911942934
    Total Energy =                       -387.2724891194291104
  Basis Set: CC-PVTZ
  Basis Set:
  Basis Set: CC-PVTZ
  Basis Set:
  @DF-RHF Final Energy:  -387.27249018637588
    Total Energy =                       -387.2724901863758760
  Basis Set: CC-PVTZ
  Basis Set:
  Charge       = 0
  Multiplicity = 1
  Basis Set: CC-PVTZ
  Basis Set:

    Orbital Energies (a.u.)
    -----------------------

    Doubly Occupied:

       1A    -20.537249     2A    -11.318927     3A    -11.230203
       4A    -11.227701     5A    -11.225829     6A    -11.221480
       7A    -11.218024     8A    -11.217407     9A    -11.210139
      10A     -1.396743    11A     -1.102205    12A     -1.061737
      13A     -1.012446    14A     -0.971796    15A     -0.897182
      16A     -0.820701    17A     -0.797425    18A     -0.733601
      19A     -0.670023    20A     -0.649669    21A     -0.640173
      22A     -0.615275    23A     -0.606438    24A     -0.589185
      25A     -0.566281    26A     -0.560271    27A     -0.545033
      28A     -0.537509    29A     -0.510492    30A     -0.503294
      31A     -0.490034    32A     -0.480819    33A     -0.469259
      34A     -0.468863    35A     -0.457646    36A     -0.398321

  @DF-RHF Final Energy:  -387.27249030984638

   => Energetics <=

    Nuclear Repulsion Energy =            439.7168636310765351
    One-Electron Energy =               -1396.0599469480539483
    Two-Electron Energy =                 569.0705930071312650
    DFT Exchange-Correlation Energy =       0.0000000000000000
    Empirical Dispersion Energy =           0.0000000000000000
    PCM Polarization Energy =               0.0000000000000000
    EFP Energy =                            0.0000000000000000
    Total Energy =                       -387.2724903098461482
    Molecular point group: c1
  Basis Set: CC-PVTZ
  Basis Set:

  -Total Gradient:
     Atom            X                  Y                   Z
    ------   -----------------  -----------------  -----------------
       1        0.000076186237    -0.000166981161     0.000094842161
       2       -0.000140402038     0.000263174123    -0.000149777449
       3        0.000140561859    -0.000249492865     0.000164656443
       4       -0.000001105743     0.000012126018     0.000025650325
       5       -0.000006853470     0.000009109592    -0.000002218927
       6       -0.000086163822     0.000141012149    -0.000118182919
       7        0.000003423707     0.000005365456     0.000000297940
       8        0.000004692032    -0.000004567257     0.000016799428
       9        0.000003098813     0.000002402952    -0.000002365104
      10       -0.000002785907    -0.000001668256    -0.000000108640
      11        0.000000312403     0.000005332279    -0.000004085228
      12       -0.000001222548     0.000005547541     0.000000488277
      13       -0.000002130733    -0.000006595121     0.000003323851
      14        0.000004990715    -0.000005799127    -0.000015700327
      15        0.000000149433    -0.000000900304    -0.000003101022
      16        0.000003201512     0.000002256225     0.000000537450
      17        0.000004365221     0.000003108016     0.000011720628
      18       -0.000000283425    -0.000001067185    -0.000003558076
      19       -0.000000790030    -0.000000474608    -0.000001552489
      20        0.000001157180    -0.000003798584    -0.000002127243
      21       -0.000000035527    -0.000002112232     0.000003715106
      22       -0.000001616039     0.000004908899     0.000000930637
      23        0.000005736940     0.000030057714    -0.000034310778
      24       -0.000034818292    -0.000008805766     0.000011148664
      25        0.000030331522    -0.000032138498     0.000002977290

  **** Optimization is complete! (in 11 steps) ****
    Final optimized geometry and variables:
    Molecular point group: c1

    Geometry (in Angstrom), charge = 0, multiplicity = 1:

    O            3.594318796952    -0.057091689463    -0.868288945480
    C            2.865480517827     0.014435737074     0.067375104030
    C            1.549842455365    -0.737652926668     0.095674169603
    C            3.218593855130     0.862377283730     1.269076273935
    C            0.325145261221     0.181952025203     0.028363066491
    H            1.552370290549    -1.413023499531    -0.749015469921
    H            1.505331691203    -1.332270492778     1.003923261591
    C           -0.984772621444    -0.598191681800    -0.041696339292
    H            0.410250010722     0.822770913971    -0.844515610045
    H            0.303043267566     0.836433200276     0.893942455522
    C           -2.216468504494     0.299667915035    -0.112262945488
    H           -0.965011743641    -1.251294502945    -0.909901430238
    H           -1.061764456408    -1.247670056916     0.826939096320
    C           -3.527930128726    -0.477165963452    -0.186661413525
    H           -2.136728806660     0.950898093774    -0.979329281054
    H           -2.236475000023     0.952539979705     0.757300964990
    C           -4.755373513228     0.425108639404    -0.256043616688
    H           -3.510027241966    -1.128100066201    -1.056375115456
    H           -3.608621133053    -1.128692762714     0.679206063596
    H           -4.721716348391     1.064931628594    -1.131542520012
    H           -5.668112465269    -0.157139439966    -0.307429723388
    H           -4.820532349404     1.065463847949     0.617384012655
    H            3.122658370920     0.288755082465     2.183879039214
    H            4.228393549913     1.229078629209     1.168241024918
    H            2.539813001876     1.704287982137     1.342260956057

  Mulliken Charges: (a.u.)
   Center  Symbol    Alpha    Beta     Spin     Total
       1     O     4.17349  4.17349  0.00000 -0.34697
       2     C     2.85835  2.85835  0.00000  0.28331
       3     C     3.09495  3.09495  0.00000 -0.18990
       4     C     3.16084  3.16084  0.00000 -0.32169
       5     C     3.10863  3.10863  0.00000 -0.21727
       6     H     0.43882  0.43882  0.00000  0.12236
       7     H     0.44869  0.44869  0.00000  0.10262
       8     C     3.08919  3.08919  0.00000 -0.17838
       9     H     0.44435  0.44435  0.00000  0.11131
      10     H     0.45089  0.45089  0.00000  0.09823
      11     C     3.08607  3.08607  0.00000 -0.17215
      12     H     0.45016  0.45016  0.00000  0.09969
      13     H     0.45387  0.45387  0.00000  0.09227
      14     C     3.08512  3.08512  0.00000 -0.17025
      15     H     0.45338  0.45338  0.00000  0.09323
      16     H     0.45523  0.45523  0.00000  0.08954
      17     C     3.15033  3.15033  0.00000 -0.30065
      18     H     0.45357  0.45357  0.00000  0.09285
      19     H     0.45449  0.45449  0.00000  0.09101
      20     H     0.45452  0.45452  0.00000  0.09095
      21     H     0.44779  0.44779  0.00000  0.10443
      22     H     0.45522  0.45522  0.00000  0.08956
      23     H     0.44999  0.44999  0.00000  0.10002
      24     H     0.43339  0.43339  0.00000  0.13321
      25     H     0.44866  0.44866  0.00000  0.10269

   Total alpha = 36.00000, Total beta = 36.00000, Total charge =  0.00000

*** Psi4 exiting successfully. Buy a developer a beer!
