  ==> Input File <==

--------------------------------------------------------------------------
set {
	reference rhf
	basis 6-31G*
}

set_num_threads( 4 )
memory 2 gb

molecule MOL {
0 1

H	 0.942085	 1.499175	 -0.433556
O	 0.055946	 1.300438	 -0.164479
C	 0.004957	 -0.004114	 0.366649
C	 1.201664	 -0.828089	 -0.095740
C	 -1.317755	 -0.601827	 -0.081511
H	 0.013527	 0.048298	 1.454924
H	 1.216388	 -0.895289	 -1.178704
H	 2.135132	 -0.372895	 0.226467
H	 1.166770	 -1.832878	 0.313827
H	 -1.355732	 -0.658248	 -1.164429
H	 -2.141614	 0.017037	 0.254547
H	 -1.447303	 -1.600817	 0.322594

	symmetry c1
}
set optking {
	frozen_dihedral = ("
		1 2 3 4
	")
}

ee = optimize('scf')
oeprop('DIPOLE', 'QUADRUPOLE', 'MULLIKEN_CHARGES')
f=open( 'psi4out.xyz', 'w' )
f.write( "12  " )
f.write( str(ee) + "\n" )
f.write( MOL.save_string_xyz() )
f.close()
--------------------------------------------------------------------------

    Molecular point group: c1
  Charge       = 0
  Multiplicity = 1
  Basis Set: 6-31G*
  Basis Set:
  @DF-RHF Final Energy:  -193.11329465099365
    Total Energy =                       -193.1132946509936801
    Molecular point group: c1
  Basis Set: 6-31G*
  Basis Set:
  Basis Set: 6-31G*
  Basis Set:
  @DF-RHF Final Energy:  -193.11342516964584
    Total Energy =                       -193.1134251696458364
  Basis Set: 6-31G*
  Basis Set:
  Basis Set: 6-31G*
  Basis Set:
  @DF-RHF Final Energy:  -193.11349727827510
    Total Energy =                       -193.1134972782751049
  Basis Set: 6-31G*
  Basis Set:
  Charge       = 0
  Multiplicity = 1
  Basis Set: 6-31G*
  Basis Set:

    Orbital Energies (a.u.)
    -----------------------

    Doubly Occupied:

       1A    -20.549094     2A    -11.275406     3A    -11.219545
       4A    -11.206228     5A     -1.358593     6A     -1.042753
       7A     -0.943373     8A     -0.807925     9A     -0.680421
      10A     -0.641609    11A     -0.606974    12A     -0.548819
      13A     -0.540469    14A     -0.522716    15A     -0.513246
      16A     -0.468299    17A     -0.427247

  @DF-RHF Final Energy:  -193.11349783991540

   => Energetics <=

    Nuclear Repulsion Energy =            135.4993925233717960
    One-Electron Energy =                -530.5203455176582565
    Two-Electron Energy =                 201.9074551543710641
    DFT Exchange-Correlation Energy =       0.0000000000000000
    Empirical Dispersion Energy =           0.0000000000000000
    PCM Polarization Energy =               0.0000000000000000
    EFP Energy =                            0.0000000000000000
    Total Energy =                       -193.1134978399153965
    Molecular point group: c1
  Basis Set: 6-31G*
  Basis Set:

  -Total Gradient:
     Atom            X                  Y                   Z
    ------   -----------------  -----------------  -----------------
       1       -0.000368452569    -0.000692250421    -0.001855535031
       2        0.000763826156     0.001017927847     0.002693807925
       3       -0.001048704066    -0.000698033571    -0.001858980722
       4        0.000691232187     0.000412243752     0.001094496019
       5       -0.000022539490    -0.000018024174    -0.000022368739
       6        0.000024131586    -0.000032488834    -0.000020694764
       7       -0.000051075645    -0.000013217086     0.000007927330
       8        0.000019024268     0.000010337048    -0.000029230900
       9       -0.000004070064     0.000010364992    -0.000000162423
      10       -0.000012584249    -0.000004557536    -0.000006794969
      11        0.000004116699     0.000002452333    -0.000003702509
      12        0.000005095187     0.000005245646     0.000001238783

  **** Optimization is complete! (in 4 steps) ****
    Final optimized geometry and variables:
    Molecular point group: c1

    Geometry (in Angstrom), charge = 0, multiplicity = 1:

    H            0.941823578844     1.529637037122    -0.398648134251
    O            0.057842011903     1.313890523826    -0.140377527111
    C            0.002439149631    -0.003206705122     0.364829991723
    C            1.200476946177    -0.825619893576    -0.094401186906
    C           -1.322844380563    -0.605204644601    -0.072871167011
    H            0.020188702849     0.046788506580     1.451924787167
    H            1.222013526163    -0.898550787691    -1.178265374228
    H            2.131952407105    -0.372877304259     0.237127453315
    H            1.161042735396    -1.830343951583     0.312736228278
    H           -1.359293478423    -0.694920936953    -1.153825560346
    H           -2.142171005993     0.031625708919     0.240581321926
    H           -1.465585628856    -1.588990011090     0.363977554330

  Mulliken Charges: (a.u.)
   Center  Symbol    Alpha    Beta     Spin     Total
       1     H     0.28019  0.28019  0.00000  0.43961
       2     O     4.37831  4.37831  0.00000 -0.75663
       3     C     2.90534  2.90534  0.00000  0.18932
       4     C     3.26419  3.26419  0.00000 -0.52838
       5     C     3.23919  3.23919  0.00000 -0.47838
       6     H     0.42739  0.42739  0.00000  0.14522
       7     H     0.41586  0.41586  0.00000  0.16828
       8     H     0.42076  0.42076  0.00000  0.15848
       9     H     0.41479  0.41479  0.00000  0.17042
      10     H     0.41864  0.41864  0.00000  0.16273
      11     H     0.41053  0.41053  0.00000  0.17894
      12     H     0.42481  0.42481  0.00000  0.15038

   Total alpha = 17.00000, Total beta = 17.00000, Total charge =  0.00000
