  ==> Input File <==

--------------------------------------------------------------------------
set {
	reference rhf
	basis cc-pvtz
}

set_num_threads( 4 )
memory 2 gb

molecule MOL {
0 1

O	 -1.278239	 1.034789	 -0.784693
C	 -1.204115	 0.062668	 -0.112312
C	 -2.386398	 -0.667698	 0.460323
O	 -0.068058	 -0.518372	 0.226882
H	 -2.382952	 -1.693172	 0.114333
H	 -3.296656	 -0.175702	 0.158400
H	 -2.312537	 -0.685191	 1.540100
C	 1.169086	 0.037484	 -0.230612
C	 2.261501	 -0.878796	 0.283366
C	 1.308350	 1.464884	 0.267126
H	 1.156595	 0.030438	 -1.309909
H	 2.122993	 -1.885695	 -0.089084
H	 3.230158	 -0.522153	 -0.045605
H	 2.257734	 -0.911137	 1.366360
H	 2.250195	 1.883220	 -0.068169
H	 0.508810	 2.084367	 -0.114484
H	 1.288647	 1.492983	 1.350688

	symmetry c1
}
set optking {
	frozen_dihedral = ("
		11 8 4 2
	")
}

ee = optimize('scf')
oeprop('DIPOLE', 'QUADRUPOLE', 'MULLIKEN_CHARGES')
f=open( 'psi4out.xyz', 'w' )
f.write( "17  " )
f.write( str(ee) + "\n" )
f.write( MOL.save_string_xyz() )
f.close()
--------------------------------------------------------------------------

    Molecular point group: c1
  Charge       = 0
  Multiplicity = 1
  Basis Set: CC-PVTZ
  Basis Set:
  @DF-RHF Final Energy:  -345.03895532202756
    Total Energy =                       -345.0389553220279026
    Molecular point group: c1
  Basis Set: CC-PVTZ
  Basis Set:
  Basis Set: CC-PVTZ
  Basis Set:
  @DF-RHF Final Energy:  -345.04108622766307
    Total Energy =                       -345.0410862276628450
  Basis Set: CC-PVTZ
  Basis Set:
  Basis Set: CC-PVTZ
  Basis Set:
  @DF-RHF Final Energy:  -345.04115463059827
    Total Energy =                       -345.0411546305980437
  Basis Set: CC-PVTZ
  Basis Set:
  Basis Set: CC-PVTZ
  Basis Set:
  @DF-RHF Final Energy:  -345.04128408975754
    Total Energy =                       -345.0412840897579372
  Basis Set: CC-PVTZ
  Basis Set:
  @DF-RHF Final Energy:  -345.04134463930137
    Total Energy =                       -345.0413446393014283
  @DF-RHF Final Energy:  -345.04135465825982
    Total Energy =                       -345.0413546582595927
  Basis Set: CC-PVTZ
  Basis Set:
  @DF-RHF Final Energy:  -345.04135574049127
    Total Energy =                       -345.0413557404908715
  Basis Set: CC-PVTZ
  Basis Set:
  Basis Set: CC-PVTZ
  Basis Set:
  @DF-RHF Final Energy:  -345.04135356509994
    Total Energy =                       -345.0413535650998256
  Basis Set: CC-PVTZ
  Basis Set:
  Basis Set: CC-PVTZ
  Basis Set:
  @DF-RHF Final Energy:  -345.04135575811875
    Total Energy =                       -345.0413557581187547
  Basis Set: CC-PVTZ
  Basis Set:
  Charge       = 0
  Multiplicity = 1
  Basis Set: CC-PVTZ
  Basis Set:

    Orbital Energies (a.u.)
    -----------------------

    Doubly Occupied:

       1A    -20.591202     2A    -20.531280     3A    -11.366545
       4A    -11.290792     5A    -11.230257     6A    -11.217207
       7A    -11.212240     8A     -1.467750     9A     -1.364642
      10A     -1.079970    11A     -1.005435    12A     -0.947782
      13A     -0.852799    14A     -0.760933    15A     -0.694432
      16A     -0.677500    17A     -0.661410    18A     -0.616418
      19A     -0.586532    20A     -0.579055    21A     -0.557492
      22A     -0.549888    23A     -0.540496    24A     -0.520753
      25A     -0.503369    26A     -0.483955    27A     -0.451809
      28A     -0.436695

  @DF-RHF Final Energy:  -345.04135608703700

   => Energetics <=

    Nuclear Repulsion Energy =            324.3263573335235606
    One-Electron Energy =               -1113.1781547033735933
    Two-Electron Energy =                 443.8104412828130876
    DFT Exchange-Correlation Energy =       0.0000000000000000
    Empirical Dispersion Energy =           0.0000000000000000
    PCM Polarization Energy =               0.0000000000000000
    EFP Energy =                            0.0000000000000000
    Total Energy =                       -345.0413560870369452
    Molecular point group: c1
  Basis Set: CC-PVTZ
  Basis Set:

  -Total Gradient:
     Atom            X                  Y                   Z
    ------   -----------------  -----------------  -----------------
       1       -0.000002026175    -0.000027078841    -0.000038112865
       2        0.000026794168     0.002530307262     0.003686439749
       3       -0.000000259668     0.000023129076     0.000024861730
       4        0.000519255340    -0.004864152187    -0.005326178662
       5       -0.000005125078    -0.000005978919    -0.000026399445
       6        0.000000371421     0.000006459085     0.000006788071
       7        0.000004896703    -0.000025379498    -0.000009996050
       8       -0.002726562528     0.006740663205     0.001631588838
       9       -0.000084100074    -0.000036107055     0.000057680461
      10        0.000095267168     0.000005241656    -0.000044289775
      11        0.002155708463    -0.004346709028     0.000041889466
      12       -0.000008018777     0.000005117316     0.000005011462
      13        0.000007397834    -0.000001427804    -0.000006437095
      14        0.000009418100     0.000003192411    -0.000000432218
      15       -0.000007481864    -0.000002372566    -0.000000312686
      16        0.000009813132    -0.000004021446    -0.000006536778
      17        0.000004651832    -0.000000882669     0.000004435794

  **** Optimization is complete! (in 10 steps) ****
    Final optimized geometry and variables:
    Molecular point group: c1

    Geometry (in Angstrom), charge = 0, multiplicity = 1:

    O           -1.299856970690     0.853545197083    -0.928819158524
    C           -1.188352016190    -0.045120898405    -0.165935715367
    C           -2.342075196541    -0.743381820741     0.498439412298
    O           -0.034459243787    -0.577035659513     0.192139775556
    H           -2.314422311908    -1.798685691499     0.259984459506
    H           -3.269650991602    -0.309692859192     0.161827051375
    H           -2.253904445896    -0.647246002992     1.573019727467
    C            1.201212401345     0.015478469316    -0.223745557006
    C            2.276303274892    -0.934402940220     0.273710673152
    C            1.382315502296     1.419456807349     0.324755023252
    H            1.219167306646     0.012718223048    -1.305574016256
    H            2.112036952952    -1.931746661183    -0.113190587638
    H            3.251743516046    -0.595538297943    -0.053513181629
    H            2.274582426466    -0.983107657948     1.356091664971
    H            2.364641982335     1.784384017780     0.048850277289
    H            0.643421999677     2.100908679707    -0.064271250853
    H            1.319964906232     1.408413243744     1.407619198340

  Mulliken Charges: (a.u.)
   Center  Symbol    Alpha    Beta     Spin     Total
       1     O     4.19956  4.19956  0.00000 -0.39912
       2     C     2.80652  2.80652  0.00000  0.38696
       3     C     3.13805  3.13805  0.00000 -0.27610
       4     O     4.16157  4.16157  0.00000 -0.32314
       5     H     0.44523  0.44523  0.00000  0.10953
       6     H     0.43842  0.43842  0.00000  0.12316
       7     H     0.44691  0.44691  0.00000  0.10618
       8     C     2.92793  2.92793  0.00000  0.14413
       9     C     3.13908  3.13908  0.00000 -0.27816
      10     C     3.16208  3.16208  0.00000 -0.32415
      11     H     0.44707  0.44707  0.00000  0.10586
      12     H     0.44639  0.44639  0.00000  0.10722
      13     H     0.45477  0.45477  0.00000  0.09046
      14     H     0.45279  0.45279  0.00000  0.09443
      15     H     0.44915  0.44915  0.00000  0.10171
      16     H     0.43044  0.43044  0.00000  0.13912
      17     H     0.45404  0.45404  0.00000  0.09191

   Total alpha = 28.00000, Total beta = 28.00000, Total charge = -0.00000
