                              Psi4 1.0.54 Driver

  ==> Input File <==

--------------------------------------------------------------------------
set {
	reference rhf
	basis cc-pvtz
}

set_num_threads( 4 )
memory 2 gb

molecule MOL {
0 1

H	 -0.975824	 -2.377658	 -0.642290
N	 -0.258607	 -1.691175	 -0.741860
C	 -0.561396	 -0.500007	 0.035200
H	 -0.190876	 -1.474665	 -1.714420
C	 0.575129	 0.507849	 -0.048832
H	 -0.693965	 -0.802428	 1.068731
H	 -1.490690	 -0.017230	 -0.270993
C	 1.951750	 -0.141983	 0.035101
H	 0.478254	 1.061643	 -0.975981
H	 0.467676	 1.231891	 0.755499
H	 2.101550	 -0.848142	 -0.774949
H	 2.738260	 0.600794	 -0.026526
H	 2.078939	 -0.679792	 0.968824

	symmetry c1
}
set optking {
	frozen_dihedral = ("
		6 3 5 9
	")
}

ee,wfn = optimize('scf', return_wfn=True)
oeprop( wfn, 'DIPOLE', 'QUADRUPOLE', 'MULLIKEN_CHARGES')
f=open( 'psi4out.xyz', 'w' )
f.write( "13  " )
f.write( str(ee) + "\n" )
f.write( MOL.save_string_xyz() )
f.close()
--------------------------------------------------------------------------

    Molecular point group: c1
  Charge       = 0
  Multiplicity = 1
  Basis Set: CC-PVTZ
  Basis Set:
  @DF-RHF Final Energy:  -173.34891339556756
    Total Energy =                       -173.3489133955674788
    Molecular point group: c1
  Basis Set: CC-PVTZ
  Basis Set:
  Basis Set: CC-PVTZ
  Basis Set:
  @DF-RHF Final Energy:  -173.34964419118072
    Total Energy =                       -173.3496441911805732
  Basis Set: CC-PVTZ
  Basis Set:
  Basis Set: CC-PVTZ
  Basis Set:
  @DF-RHF Final Energy:  -173.35018926313538
    Total Energy =                       -173.3501892631355474
  Basis Set: CC-PVTZ
  Basis Set:
  Basis Set: CC-PVTZ
  Basis Set:
  @DF-RHF Final Energy:  -173.35021457384846
    Total Energy =                       -173.3502145738485183
  Basis Set: CC-PVTZ
  Basis Set:
  Charge       = 0
  Multiplicity = 1
  Basis Set: CC-PVTZ
  Basis Set:

    Orbital Energies (a.u.)
    -----------------------

    Doubly Occupied:

       1A    -15.527534     2A    -11.239070     3A    -11.211143
       4A    -11.197943     5A     -1.179219     6A     -1.029551
       7A     -0.905158     8A     -0.789511     9A     -0.666985
      10A     -0.624390    11A     -0.605208    12A     -0.560268
      13A     -0.532022    14A     -0.493096    15A     -0.471427
      16A     -0.464135    17A     -0.383310

  @DF-RHF Final Energy:  -173.35021597756941

   => Energetics <=

    Nuclear Repulsion Energy =            133.9268894440630220
    One-Electron Energy =                -498.7942736672313231
    Two-Electron Energy =                 191.5171682455988389
    DFT Exchange-Correlation Energy =       0.0000000000000000
    Empirical Dispersion Energy =           0.0000000000000000
    PCM Polarization Energy =               0.0000000000000000
    EFP Energy =                            0.0000000000000000
    Total Energy =                       -173.3502159775694622
    Molecular point group: c1
  Basis Set: CC-PVTZ
  Basis Set:

  -Total Gradient:
     Atom            X                  Y                   Z
    ------   -----------------  -----------------  -----------------
       1       -0.000014009965    -0.000008025765    -0.000006899311
       2        0.000030836758     0.000029631548     0.000044708507
       3        0.003187336313    -0.003542587311    -0.000348576426
       4        0.000006943533     0.000011728899    -0.000013079714
       5        0.002550873784    -0.003222309984    -0.002739859504
       6       -0.003098680997     0.003514545487     0.000759935462
       7       -0.000013280864    -0.000032895517    -0.000020676983
       8       -0.000011580851     0.000040895697     0.000050143892
       9       -0.002660475479     0.003243536066     0.002281682543
      10        0.000015835863     0.000003840768     0.000013300071
      11       -0.000014887550    -0.000011510418    -0.000027799101
      12        0.000004330078    -0.000012586202    -0.000000344700
      13        0.000016759378    -0.000014263266     0.000007465264

  **** Optimization is complete! (in 5 steps) ****
    Final optimized geometry and variables:
    Molecular point group: c1

    Geometry (in Angstrom), charge = 0, multiplicity = 1:

    H           -1.476727790096    -1.880978874526    -0.451641542405
    N           -0.743817549836    -1.216534406386    -0.580826990372
    C           -0.958139893778    -0.040571036994     0.245369430248
    H           -0.734823909417    -0.973756976309    -1.549949505999
    C            0.180813220182     0.972606786464     0.143232987964
    H           -1.067411182557    -0.352785584630     1.278676423905
    H           -1.886684993467     0.477500753830     0.001095749315
    C            1.581626390053     0.384874589516     0.261325618842
    H            0.075694023905     1.544891990746    -0.775585126813
    H            0.031805001863     1.699780140982     0.937240715893
    H            1.797861866813    -0.298323232175    -0.548118586827
    H            2.326457164185     1.172847492529     0.250826652894
    H            1.692032457728    -0.166446352737     1.189087075637

  Mulliken Charges: (a.u.)
   Center  Symbol    Alpha    Beta     Spin     Total
       1     H     0.42902  0.42902  0.00000  0.14197
       2     N     3.68849  3.68849  0.00000 -0.37698
       3     C     3.03408  3.03408  0.00000 -0.06816
       4     H     0.43060  0.43060  0.00000  0.13880
       5     C     3.09160  3.09160  0.00000 -0.18320
       6     H     0.45621  0.45621  0.00000  0.08757
       7     H     0.46267  0.46267  0.00000  0.07466
       8     C     3.13793  3.13793  0.00000 -0.27587
       9     H     0.45496  0.45496  0.00000  0.09008
      10     H     0.45342  0.45342  0.00000  0.09316
      11     H     0.45132  0.45132  0.00000  0.09735
      12     H     0.45287  0.45287  0.00000  0.09427
      13     H     0.45682  0.45682  0.00000  0.08636

   Total alpha = 17.00000, Total beta = 17.00000, Total charge =  0.00000

*** Psi4 exiting successfully. Buy a developer a beer!
