  ==> Input File <==

--------------------------------------------------------------------------
set {
	reference rhf
	basis cc-pvtz
}

set_num_threads( 4 )
memory 2 gb

molecule MOL {
0 1

H	 -0.366580	 2.045936	 -0.305741
C	 0.351829	 1.335402	 0.083179
N	 -0.000018	 0.000080	 -0.334836
H	 1.327156	 1.599860	 -0.305475
H	 0.380566	 1.445403	 1.171445
C	 1.044823	 -0.950635	 -0.040167
C	 -1.274208	 -0.415123	 0.200220
H	 0.778080	 -1.925299	 -0.428716
H	 1.968586	 -0.643552	 -0.514032
H	 1.233524	 -1.054462	 1.032531
H	 -2.045879	 0.283295	 -0.097972
H	 -1.538388	 -1.390480	 -0.188386
H	 -1.276408	 -0.474578	 1.292727

	symmetry c1
}
set optking {
	frozen_dihedral = ("
		6 3 2 1
	")
}

ee = optimize('scf')
oeprop('DIPOLE', 'QUADRUPOLE', 'MULLIKEN_CHARGES')
f=open( 'psi4out.xyz', 'w' )
f.write( "13  " )
f.write( str(ee) + "\n" )
f.write( MOL.save_string_xyz() )
f.close()
--------------------------------------------------------------------------

    Molecular point group: c1
  Charge       = 0
  Multiplicity = 1
  Basis Set: CC-PVTZ
  Basis Set:
  @DF-RHF Final Energy:  -173.33385236651168
    Total Energy =                       -173.3338523665117066
    Molecular point group: c1
  Basis Set: CC-PVTZ
  Basis Set:
  Basis Set: CC-PVTZ
  Basis Set:
  @DF-RHF Final Energy:  -173.33388350534068
    Total Energy =                       -173.3338835053406228
  Basis Set: CC-PVTZ
  Basis Set:
  Charge       = 0
  Multiplicity = 1
  Basis Set: CC-PVTZ
  Basis Set:

    Orbital Energies (a.u.)
    -----------------------

    Doubly Occupied:

       1A    -15.538976     2A    -11.234303     3A    -11.234261
       4A    -11.234207     5A     -1.226820     6A     -0.952645
       7A     -0.952465     8A     -0.806447     9A     -0.643240
      10A     -0.631649    11A     -0.631199    12A     -0.544875
      13A     -0.543570    14A     -0.516815    15A     -0.502713
      16A     -0.502548    17A     -0.348291

  @DF-RHF Final Energy:  -173.33388625650932

   => Energetics <=

    Nuclear Repulsion Energy =            139.4086726054789835
    One-Electron Energy =                -509.3950704800507197
    Two-Electron Energy =                 196.6525116180623627
    DFT Exchange-Correlation Energy =       0.0000000000000000
    Empirical Dispersion Energy =           0.0000000000000000
    PCM Polarization Energy =               0.0000000000000000
    EFP Energy =                            0.0000000000000000
    Total Energy =                       -173.3338862565093450
    Molecular point group: c1
  Basis Set: CC-PVTZ
  Basis Set:

  -Total Gradient:
     Atom            X                  Y                   Z
    ------   -----------------  -----------------  -----------------
       1        0.000738685915     0.000106849991    -0.001168302845
       2       -0.000674294337    -0.000056896017     0.001140787878
       3       -0.000406178562    -0.000181054288     0.000823521818
       4       -0.000040761405     0.000013086711    -0.000009061433
       5        0.000013478794    -0.000011904346     0.000016729834
       6        0.000548109975     0.000131794656    -0.000801806799
       7       -0.000090364191    -0.000105143759     0.000096688329
       8       -0.000055021033     0.000048761971    -0.000024245596
       9       -0.000033715979     0.000021100538    -0.000019479437
      10       -0.000011477444    -0.000000074439    -0.000012556386
      11        0.000028646060     0.000012021375    -0.000021154795
      12       -0.000015784379     0.000010838717    -0.000010973883
      13       -0.000001323417     0.000010618892    -0.000010146683

  **** Optimization is complete! (in 3 steps) ****
    Final optimized geometry and variables:
    Molecular point group: c1

    Geometry (in Angstrom), charge = 0, multiplicity = 1:

    H           -0.407044249477     2.051894852800    -0.302981552451
    C            0.316519708281     1.345572646886     0.085081219423
    N           -0.030413801719     0.007176614805    -0.326631940774
    H            1.284184030689     1.614843944115    -0.318956719548
    H            0.361879335845     1.460586617892     1.172201482194
    C            1.014642834674    -0.944031936724    -0.037161956084
    C           -1.308962901850    -0.406993228779     0.196425724629
    H            0.742688083020    -1.918533882161    -0.422876863000
    H            1.935252595737    -0.639594228626    -0.518497259490
    H            1.211985959538    -1.049342253440     1.034301794679
    H           -2.075284137860     0.297675437653    -0.101619423071
    H           -1.575735114728    -1.378060610381    -0.201344335063
    H           -1.319673812167    -0.474262072618     1.288737558236

  Mulliken Charges: (a.u.)
   Center  Symbol    Alpha    Beta     Spin     Total
       1     H     0.45218  0.45218  0.00000  0.09564
       2     C     3.08890  3.08890  0.00000 -0.17779
       3     N     3.59567  3.59567  0.00000 -0.19134
       4     H     0.45343  0.45343  0.00000  0.09314
       5     H     0.47357  0.47357  0.00000  0.05286
       6     C     3.08862  3.08862  0.00000 -0.17725
       7     C     3.08899  3.08899  0.00000 -0.17798
       8     H     0.45276  0.45276  0.00000  0.09449
       9     H     0.45249  0.45249  0.00000  0.09502
      10     H     0.47420  0.47420  0.00000  0.05160
      11     H     0.45282  0.45282  0.00000  0.09437
      12     H     0.45267  0.45267  0.00000  0.09465
      13     H     0.47370  0.47370  0.00000  0.05261

   Total alpha = 17.00000, Total beta = 17.00000, Total charge =  0.00000
