  ==> Input File <==

--------------------------------------------------------------------------
set {
	reference rhf
	basis 6-31G*
}

set_num_threads( 4 )
memory 2 gb

molecule MOL {
0 1

H	 2.822660	 1.908748	 -0.180739
C	 2.277897	 0.990010	 0.017732
C	 0.786421	 1.192633	 -0.230386
H	 2.448429	 0.703670	 1.049571
H	 2.698846	 0.217039	 -0.616186
N	 -0.000257	 -0.000071	 0.054619
H	 0.444076	 1.990281	 0.416865
H	 0.619725	 1.539915	 -1.254249
C	 -1.363055	 0.315058	 0.462241
C	 0.046929	 -0.971450	 -1.030210
C	 -2.412078	 -0.285320	 -0.468531
H	 -1.482241	 1.391144	 0.451970
H	 -1.549931	 -0.001174	 1.492681
C	 -0.136725	 -2.406697	 -0.546910
H	 1.014945	 -0.900616	 -1.509879
H	 -0.692149	 -0.737408	 -1.802074
H	 -2.262839	 0.075384	 -1.480151
H	 -2.369300	 -1.368867	 -0.491760
H	 -3.410332	 -0.003975	 -0.144961
H	 0.632503	 -2.658251	 0.174645
H	 -1.100389	 -2.561097	 -0.073556
H	 -0.067424	 -3.098752	 -1.381526

	symmetry c1
}
set optking {
	frozen_dihedral = ("
		3 6 9 11
	")
}

ee = optimize('scf')
oeprop('DIPOLE', 'QUADRUPOLE', 'MULLIKEN_CHARGES')
f=open( 'psi4out.xyz', 'w' )
f.write( "22  " )
f.write( str(ee) + "\n" )
f.write( MOL.save_string_xyz() )
f.close()
--------------------------------------------------------------------------

    Molecular point group: c1
  Charge       = 0
  Multiplicity = 1
  Basis Set: 6-31G*
  Basis Set:
  @DF-RHF Final Energy:  -290.34855517810360
    Total Energy =                       -290.3485551781038794
    Molecular point group: c1
  Basis Set: 6-31G*
  Basis Set:
  Basis Set: 6-31G*
  Basis Set:
  @DF-RHF Final Energy:  -290.35728374273799
    Total Energy =                       -290.3572837427378772
  Basis Set: 6-31G*
  Basis Set:
  Basis Set: 6-31G*
  Basis Set:
  @DF-RHF Final Energy:  -290.36087977662277
    Total Energy =                       -290.3608797766232215
  Basis Set: 6-31G*
  Basis Set:
  Basis Set: 6-31G*
  Basis Set:
  @DF-RHF Final Energy:  -290.36183105673393
    Total Energy =                       -290.3618310567337062
  Basis Set: 6-31G*
  Basis Set:
  @DF-RHF Final Energy:  -290.36234785850814
    Total Energy =                       -290.3623478585082012
  @DF-RHF Final Energy:  -290.36266669082397
    Total Energy =                       -290.3626666908245397
  @DF-RHF Final Energy:  -290.36294641250646
    Total Energy =                       -290.3629464125068012
  @DF-RHF Final Energy:  -290.36316436338711
    Total Energy =                       -290.3631643633872272
  @DF-RHF Final Energy:  -290.36357844689712
    Total Energy =                       -290.3635784468972361
  @DF-RHF Final Energy:  -290.36415061921286
    Total Energy =                       -290.3641506192128645
  @DF-RHF Final Energy:  -290.36465165666891
    Total Energy =                       -290.3646516566687978
  @DF-RHF Final Energy:  -290.36499496737707
    Total Energy =                       -290.3649949673773563
  @DF-RHF Final Energy:  -290.36560320547210
    Total Energy =                       -290.3656032054718139
  @DF-RHF Final Energy:  -290.36611159068468
    Total Energy =                       -290.3661115906848522
  @DF-RHF Final Energy:  -290.36619867094646
    Total Energy =                       -290.3661986709464600
  @DF-RHF Final Energy:  -290.36637281846617
    Total Energy =                       -290.3663728184661750
  @DF-RHF Final Energy:  -290.36666522750465
    Total Energy =                       -290.3666652275050524
  @DF-RHF Final Energy:  -290.36674677980091
    Total Energy =                       -290.3667467798004509
  @DF-RHF Final Energy:  -290.36684374562992
    Total Energy =                       -290.3668437456302058
  @DF-RHF Final Energy:  -290.36685845591433
    Total Energy =                       -290.3668584559144392
  Basis Set: 6-31G*
  Basis Set:
  @DF-RHF Final Energy:  -290.36688628110556
    Total Energy =                       -290.3668862811050531
  Basis Set: 6-31G*
  Basis Set:
  Basis Set: 6-31G*
  Basis Set:
  @DF-RHF Final Energy:  -290.36689282059217
    Total Energy =                       -290.3668928205919997
  Basis Set: 6-31G*
  Basis Set:
  Basis Set: 6-31G*
  Basis Set:
  @DF-RHF Final Energy:  -290.36689403838932
    Total Energy =                       -290.3668940383890913
  Basis Set: 6-31G*
  Basis Set:
  Charge       = 0
  Multiplicity = 1
  Basis Set: 6-31G*
  Basis Set:

    Orbital Energies (a.u.)
    -----------------------

    Doubly Occupied:

       1A    -15.529086     2A    -11.242583     3A    -11.241777
       4A    -11.240855     5A    -11.204464     6A    -11.204308
       7A    -11.201798     8A     -1.218240     9A     -1.021884
      10A     -1.020387    11A     -0.955793    12A     -0.857218
      13A     -0.851407    14A     -0.756117    15A     -0.657193
      16A     -0.650200    17A     -0.608218    18A     -0.575220
      19A     -0.572933    20A     -0.566608    21A     -0.540503
      22A     -0.522117    23A     -0.519637    24A     -0.505077
      25A     -0.497848    26A     -0.479852    27A     -0.469908
      28A     -0.461574    29A     -0.318548

  @DF-RHF Final Energy:  -290.36689425204673

   => Energetics <=

    Nuclear Repulsion Energy =            338.5329974657251455
    One-Electron Energy =               -1062.8170722927104634
    Two-Electron Energy =                 433.9171805749386976
    DFT Exchange-Correlation Energy =       0.0000000000000000
    Empirical Dispersion Energy =           0.0000000000000000
    PCM Polarization Energy =               0.0000000000000000
    EFP Energy =                            0.0000000000000000
    Total Energy =                       -290.3668942520465635
    Molecular point group: c1
  Basis Set: 6-31G*
  Basis Set:

  -Total Gradient:
     Atom            X                  Y                   Z
    ------   -----------------  -----------------  -----------------
       1        0.000000325811     0.000000202124    -0.000000784178
       2        0.000002504292     0.000005568753     0.000004514894
       3       -0.000368463024     0.000448082026    -0.000381205590
       4        0.000002280617    -0.000000867499    -0.000000497523
       5        0.000002726100    -0.000002800311    -0.000004646981
       6        0.000577989673    -0.000418100718     0.000600434025
       7        0.000001055626     0.000005758924     0.000000080169
       8       -0.000002509052    -0.000000365097     0.000001909674
       9       -0.000308970362    -0.000655546017    -0.000276485643
      10       -0.000001564027    -0.000004269960    -0.000019975057
      11        0.000095469550     0.000625094439     0.000063642472
      12       -0.000003890155     0.000003964355     0.000002375232
      13       -0.000001968388     0.000000449960    -0.000001806607
      14        0.000011995317    -0.000000752296    -0.000003135236
      15       -0.000002923429    -0.000003476324    -0.000000414744
      16       -0.000003880028    -0.000000331163     0.000005368366
      17        0.000004600093     0.000000895378    -0.000000743375
      18       -0.000000507042    -0.000001315387    -0.000001408335
      19       -0.000002253709    -0.000001734448     0.000002204114
      20       -0.000000045865     0.000000037451     0.000008667645
      21       -0.000001021232    -0.000002428450     0.000003591120
      22       -0.000000950771     0.000001934256    -0.000001684441

  **** Optimization is complete! (in 24 steps) ****
    Final optimized geometry and variables:
    Molecular point group: c1

    Geometry (in Angstrom), charge = 0, multiplicity = 1:

    H            2.666395388877     1.821270430536     0.875441870178
    C            1.941345904567     1.011829483582     0.900647811870
    C            0.963513941656     1.149870458782    -0.274457468039
    H            1.426214987926     1.063799707196     1.854886154216
    H            2.488043376708     0.077085264881     0.869927848228
    N           -0.136571480722     0.215019964641    -0.344410117399
    H            0.546475165950     2.153818125548    -0.250818349542
    H            1.517356719231     1.077532919052    -1.205679762094
    C           -1.155731145263     0.294591929956     0.682747209947
    C            0.065607776282    -1.070547179391    -0.972165663919
    C           -2.544173968723     0.582745244413     0.112064756588
    H           -0.895763524066     1.090134707079     1.372470751810
    H           -1.191178701051    -0.615015356431     1.281003565460
    C            0.836790277565    -2.136408169654    -0.181135244510
    H            0.568211740932    -0.907324068083    -1.921390666333
    H           -0.912634082983    -1.472074115763    -1.219477007956
    H           -2.543039677012     1.524185877141    -0.426969958835
    H           -2.857981628813    -0.193960924336    -0.577915365532
    H           -3.284501156776     0.641001843385     0.906040081517
    H            1.880117971730    -1.871253166037    -0.055450281561
    H            0.410054391142    -2.291512076180     0.804772144941
    H            0.801569785401    -3.085878246388    -0.708960948637

  Mulliken Charges: (a.u.)
   Center  Symbol    Alpha    Beta     Spin     Total
       1     H     0.42360  0.42360  0.00000  0.15280
       2     C     3.24430  3.24430  0.00000 -0.48860
       3     C     3.04993  3.04993  0.00000 -0.09986
       4     H     0.42128  0.42128  0.00000  0.15745
       5     H     0.41978  0.41978  0.00000  0.16043
       6     N     3.79818  3.79818  0.00000 -0.59636
       7     H     0.42076  0.42076  0.00000  0.15848
       8     H     0.42096  0.42096  0.00000  0.15809
       9     C     3.05609  3.05609  0.00000 -0.11218
      10     C     3.05005  3.05005  0.00000 -0.10010
      11     C     3.23034  3.23034  0.00000 -0.46068
      12     H     0.42011  0.42011  0.00000  0.15977
      13     H     0.42672  0.42672  0.00000  0.14655
      14     C     3.24440  3.24440  0.00000 -0.48879
      15     H     0.42033  0.42033  0.00000  0.15934
      16     H     0.42045  0.42045  0.00000  0.15910
      17     H     0.41922  0.41922  0.00000  0.16155
      18     H     0.42184  0.42184  0.00000  0.15632
      19     H     0.42674  0.42674  0.00000  0.14652
      20     H     0.42110  0.42110  0.00000  0.15780
      21     H     0.42049  0.42049  0.00000  0.15901
      22     H     0.42333  0.42333  0.00000  0.15334

   Total alpha = 29.00000, Total beta = 29.00000, Total charge = -0.00000
