  ==> Input File <==

--------------------------------------------------------------------------
set {
	reference rhf
	basis cc-pvtz
}

set_num_threads( 4 )
memory 2 gb

molecule MOL {
0 1

H	 -2.747400	 0.464390	 0.428049
C	 -2.473692	 0.204902	 -0.585840
C	 -1.209985	 -0.640822	 -0.610526
H	 -2.333633	 1.128175	 -1.131885
H	 -3.297387	 -0.337075	 -1.034940
C	 0.000000	 0.039916	 0.000014
H	 -0.951895	 -0.920106	 -1.628508
H	 -1.362051	 -1.578158	 -0.082161
C	 1.286532	 -0.763243	 0.000268
O	 -0.056584	 1.137017	 0.451175
C	 2.547023	 0.087626	 -0.000114
H	 1.264245	 -1.421103	 -0.864380
H	 1.264290	 -1.420353	 0.865489
H	 2.584452	 0.725630	 -0.872909
H	 3.427035	 -0.544422	 0.000125
H	 2.584484	 0.726356	 0.872143

	symmetry c1
}
set optking {
	frozen_dihedral = ("
		3 6 9 12
	")
}

ee = optimize('scf')
oeprop('DIPOLE', 'QUADRUPOLE', 'MULLIKEN_CHARGES')
f=open( 'psi4out.xyz', 'w' )
f.write( "16  " )
f.write( str(ee) + "\n" )
f.write( MOL.save_string_xyz() )
f.close()
--------------------------------------------------------------------------

    Molecular point group: c1
  Charge       = 0
  Multiplicity = 1
  Basis Set: CC-PVTZ
  Basis Set:
  @DF-RHF Final Energy:  -270.13099096518624
    Total Energy =                       -270.1309909651860153
    Molecular point group: c1
  Basis Set: CC-PVTZ
  Basis Set:
  Basis Set: CC-PVTZ
  Basis Set:
  @DF-RHF Final Energy:  -270.13125961937044
    Total Energy =                       -270.1312596193704962
  Basis Set: CC-PVTZ
  Basis Set:
  Basis Set: CC-PVTZ
  Basis Set:
  @DF-RHF Final Energy:  -270.13015020619548
    Total Energy =                       -270.1301502061955375
  Basis Set: CC-PVTZ
  Basis Set:
  Basis Set: CC-PVTZ
  Basis Set:
  @DF-RHF Final Energy:  -270.13136734342908
    Total Energy =                       -270.1313673434291331
  Basis Set: CC-PVTZ
  Basis Set:
  Basis Set: CC-PVTZ
  Basis Set:
  @DF-RHF Final Energy:  -270.13138111066041
    Total Energy =                       -270.1313811106601293
  Basis Set: CC-PVTZ
  Basis Set:
  Charge       = 0
  Multiplicity = 1
  Basis Set: CC-PVTZ
  Basis Set:

    Orbital Energies (a.u.)
    -----------------------

    Doubly Occupied:

       1A    -20.538211     2A    -11.318009     3A    -11.232659
       4A    -11.232019     5A    -11.213436     6A    -11.211980
       7A     -1.398841     8A     -1.069748     9A     -1.037446
      10A     -0.917033    11A     -0.847631    12A     -0.726016
      13A     -0.669115    14A     -0.646002    15A     -0.622407
      16A     -0.606900    17A     -0.561918    18A     -0.532069
      19A     -0.526757    20A     -0.511813    21A     -0.503955
      22A     -0.494809    23A     -0.484464    24A     -0.400056

  @DF-RHF Final Energy:  -270.13138154814794

   => Energetics <=

    Nuclear Repulsion Energy =            240.2992388170894458
    One-Electron Energy =                -842.2546522065663339
    Two-Electron Energy =                 331.8240318413288605
    DFT Exchange-Correlation Energy =       0.0000000000000000
    Empirical Dispersion Energy =           0.0000000000000000
    PCM Polarization Energy =               0.0000000000000000
    EFP Energy =                            0.0000000000000000
    Total Energy =                       -270.1313815481480560
    Molecular point group: c1
  Basis Set: CC-PVTZ
  Basis Set:

  -Total Gradient:
     Atom            X                  Y                   Z
    ------   -----------------  -----------------  -----------------
       1       -0.000005673733     0.000007260240    -0.000004399722
       2       -0.000020006414    -0.000014659942     0.000035480306
       3        0.000277590306     0.000339010249    -0.000939067012
       4        0.000010290454    -0.000009888835    -0.000001748803
       5       -0.000004650747     0.000001572158    -0.000002828516
       6       -0.000515829007    -0.000669239808     0.001466374058
       7       -0.000001514658    -0.000018052196     0.000000417277
       8       -0.000000122568     0.000016573858     0.000008880172
       9        0.000856859803     0.001196571000    -0.001332030483
      10       -0.000001181335     0.000007081942     0.000001762130
      11        0.000010221503     0.000001338571     0.000005263204
      12       -0.000602443817    -0.000840712422     0.000752267828
      13        0.000002160358    -0.000005885619     0.000016035832
      14       -0.000001643214    -0.000006911503     0.000002947150
      15        0.000001340542    -0.000000038899    -0.000006500078
      16       -0.000005397476    -0.000004018792    -0.000002853342

  **** Optimization is complete! (in 6 steps) ****
    Final optimized geometry and variables:
    Molecular point group: c1

    Geometry (in Angstrom), charge = 0, multiplicity = 1:

    H           -2.753672195966     0.327056859401     0.662710394664
    C           -2.514402274695     0.143254801350    -0.376733021517
    C           -1.225533285088    -0.652683911068    -0.507449780475
    H           -2.427184177019     1.103693420127    -0.865753781519
    H           -3.338642880231    -0.397858221806    -0.825828035267
    C           -0.009706358012     0.035259154996     0.078437248448
    H           -0.999351183868    -0.851841904958    -1.552392788195
    H           -1.318652465158    -1.629552242999    -0.040424846596
    C            1.257550247627    -0.795628313863     0.155083937789
    O           -0.043825760549     1.159271611345     0.460705169180
    C            2.535891759412     0.029926902637     0.176570251454
    H            1.262490018613    -1.518338752211    -0.653712118387
    H            1.174924808779    -1.382400690687     1.068160841260
    H            2.643949442786     0.602769471433    -0.736537775138
    H            3.400440731401    -0.615451346810     0.274331862818
    H            2.529724365185     0.726377617937     1.002645541133

  Mulliken Charges: (a.u.)
   Center  Symbol    Alpha    Beta     Spin     Total
       1     H     0.44973  0.44973  0.00000  0.10055
       2     C     3.14111  3.14111  0.00000 -0.28223
       3     C     3.10053  3.10053  0.00000 -0.20105
       4     H     0.44578  0.44578  0.00000  0.10843
       5     H     0.45069  0.45069  0.00000  0.09862
       6     C     2.87146  2.87146  0.00000  0.25708
       7     H     0.44553  0.44553  0.00000  0.10894
       8     H     0.44540  0.44540  0.00000  0.10920
       9     C     3.09787  3.09787  0.00000 -0.19573
      10     O     4.17377  4.17377  0.00000 -0.34753
      11     C     3.14206  3.14206  0.00000 -0.28412
      12     H     0.44514  0.44514  0.00000  0.10971
      13     H     0.44586  0.44586  0.00000  0.10828
      14     H     0.45281  0.45281  0.00000  0.09439
      15     H     0.45021  0.45021  0.00000  0.09959
      16     H     0.44206  0.44206  0.00000  0.11587

   Total alpha = 24.00000, Total beta = 24.00000, Total charge = -0.00000
