  ==> Input File <==

--------------------------------------------------------------------------
set {
	reference rhf
	basis 6-31G*
}

set_num_threads( 4 )
memory 2 gb

molecule MOL {
0 1

O	 0.126779	 0.795696	 0.945232
C	 0.486307	 0.169203	 0.000779
C	 1.608116	 -0.841643	 0.000302
O	 -0.061759	 0.280810	 -1.201209
C	 2.990107	 -0.200498	 -0.000684
H	 1.468623	 -1.481519	 -0.865924
H	 1.469683	 -1.481289	 0.866878
H	 3.129736	 0.423364	 -0.875135
H	 3.757882	 -0.966877	 -0.001197
H	 3.130964	 0.423383	 0.873533
C	 -1.136441	 1.202749	 -1.351166
C	 -1.583076	 1.147867	 -2.796786
H	 -0.794139	 2.190975	 -1.075805
H	 -1.934477	 0.927010	 -0.675372
H	 -0.771144	 1.421339	 -3.460969
H	 -2.404666	 1.838709	 -2.956083
H	 -1.917807	 0.150496	 -3.058437

	symmetry c1
}
set optking {
	frozen_dihedral = ("
		4 2 3 6
	")
}

ee = optimize('scf')
oeprop('DIPOLE', 'QUADRUPOLE', 'MULLIKEN_CHARGES')
f=open( 'psi4out.xyz', 'w' )
f.write( "17  " )
f.write( str(ee) + "\n" )
f.write( MOL.save_string_xyz() )
f.close()
--------------------------------------------------------------------------

    Molecular point group: c1
  Charge       = 0
  Multiplicity = 1
  Basis Set: 6-31G*
  Basis Set:
  @DF-RHF Final Energy:  -344.90930226404538
    Total Energy =                       -344.9093022640456638
    Molecular point group: c1
  Basis Set: 6-31G*
  Basis Set:
  Basis Set: 6-31G*
  Basis Set:
  @DF-RHF Final Energy:  -344.90955889852859
    Total Energy =                       -344.9095588985280756
  Basis Set: 6-31G*
  Basis Set:
  Basis Set: 6-31G*
  Basis Set:
  @DF-RHF Final Energy:  -344.90998576617665
    Total Energy =                       -344.9099857661767601
  Basis Set: 6-31G*
  Basis Set:
  Basis Set: 6-31G*
  Basis Set:
  @DF-RHF Final Energy:  -344.91005140605319
    Total Energy =                       -344.9100514060532419
  Basis Set: 6-31G*
  Basis Set:
  Basis Set: 6-31G*
  Basis Set:
  @DF-RHF Final Energy:  -344.91005281231770
    Total Energy =                       -344.9100528123176446
  Basis Set: 6-31G*
  Basis Set:
  Charge       = 0
  Multiplicity = 1
  Basis Set: 6-31G*
  Basis Set:

    Orbital Energies (a.u.)
    -----------------------

    Doubly Occupied:

       1A    -20.602713     2A    -20.541047     3A    -11.370270
       4A    -11.284651     5A    -11.235850     6A    -11.225756
       7A    -11.222434     8A     -1.467393     9A     -1.360243
      10A     -1.071460    11A     -1.032063    12A     -0.908774
      13A     -0.852750    14A     -0.776879    15A     -0.693961
      16A     -0.683904    17A     -0.666819    18A     -0.616237
      19A     -0.599097    20A     -0.574144    21A     -0.554650
      22A     -0.536079    23A     -0.526543    24A     -0.509274
      25A     -0.501511    26A     -0.495594    27A     -0.451024
      28A     -0.431817

  @DF-RHF Final Energy:  -344.91005287116286

   => Energetics <=

    Nuclear Repulsion Energy =            315.8635464635644894
    One-Electron Energy =               -1095.9613283139692612
    Two-Electron Energy =                 435.1877289792416832
    DFT Exchange-Correlation Energy =       0.0000000000000000
    Empirical Dispersion Energy =           0.0000000000000000
    PCM Polarization Energy =               0.0000000000000000
    EFP Energy =                            0.0000000000000000
    Total Energy =                       -344.9100528711630886
    Molecular point group: c1
  Basis Set: 6-31G*
  Basis Set:

  -Total Gradient:
     Atom            X                  Y                   Z
    ------   -----------------  -----------------  -----------------
       1       -0.000004949723     0.000017858358    -0.000000478155
       2        0.000130920849     0.000125062294    -0.000071285584
       3       -0.000114136824    -0.000162371681     0.000098978784
       4       -0.000054790875    -0.000048103120     0.000042002508
       5       -0.000009530754     0.000013641804     0.000010074623
       6        0.000068567411     0.000078850822    -0.000069985576
       7        0.000005539961     0.000005647289    -0.000017947536
       8       -0.000005741834    -0.000002178711     0.000001905134
       9       -0.000006128195    -0.000005442738     0.000001179720
      10        0.000013491459     0.000008875061     0.000002477700
      11       -0.000065559838    -0.000074700600     0.000019131561
      12        0.000014706161     0.000018479701    -0.000008144434
      13        0.000021345470     0.000007003199     0.000004018475
      14        0.000003235655     0.000016747460    -0.000011415663
      15       -0.000001543794    -0.000000723827    -0.000008763796
      16        0.000002793019     0.000001020461     0.000000788041
      17        0.000001781851     0.000000334229     0.000007464197

  **** Optimization is complete! (in 6 steps) ****
    Final optimized geometry and variables:
    Molecular point group: c1

    Geometry (in Angstrom), charge = 0, multiplicity = 1:

    O           -0.197177202819     0.393513334982     1.579966371011
    C            0.141231134159    -0.239543082669     0.630817935855
    C            1.265562495000    -1.247113190320     0.643660880795
    O           -0.410033969967    -0.110440020749    -0.566499665215
    C            2.625325995448    -0.537724333545     0.632033881448
    H            1.173965710905    -1.906738545269    -0.209251958805
    H            1.164862498204    -1.832147829047     1.549819029684
    H            2.751121385885     0.050311498335    -0.271182494514
    H            3.428064320977    -1.265429193791     0.672034759753
    H            2.719792266104     0.122193358598     1.486180628946
    C           -1.457765777203     0.843770975652    -0.707376637134
    C           -1.915784191468     0.805416513489    -2.149953962500
    H           -1.083748341642     1.820371795821    -0.431849140817
    H           -2.258364544241     0.590198004243    -0.026197387931
    H           -1.100782634427     1.055948769781    -2.819495931746
    H           -2.717365353950     1.520928618876    -2.302067428387
    H           -2.282139422923    -0.180855223564    -2.411216288847

  Mulliken Charges: (a.u.)
   Center  Symbol    Alpha    Beta     Spin     Total
       1     O     4.28712  4.28712  0.00000 -0.57424
       2     C     2.61239  2.61239  0.00000  0.77523
       3     C     3.19639  3.19639  0.00000 -0.39277
       4     O     4.30933  4.30933  0.00000 -0.61867
       5     C     3.25037  3.25037  0.00000 -0.50073
       6     H     0.40252  0.40252  0.00000  0.19496
       7     H     0.40031  0.40031  0.00000  0.19937
       8     H     0.41319  0.41319  0.00000  0.17362
       9     H     0.41229  0.41229  0.00000  0.17543
      10     H     0.40465  0.40465  0.00000  0.19069
      11     C     3.00322  3.00322  0.00000 -0.00643
      12     C     3.24857  3.24857  0.00000 -0.49713
      13     H     0.41010  0.41010  0.00000  0.17980
      14     H     0.40959  0.40959  0.00000  0.18082
      15     H     0.41204  0.41204  0.00000  0.17592
      16     H     0.41620  0.41620  0.00000  0.16759
      17     H     0.41173  0.41173  0.00000  0.17654

   Total alpha = 28.00000, Total beta = 28.00000, Total charge =  0.00000
