  ==> Input File <==

--------------------------------------------------------------------------
set {
	reference rhf
	basis 6-31G*
}

set_num_threads( 4 )
memory 2 gb

molecule MOL {
0 1

H	 1.840552	 0.652620	 -1.146191
O	 1.057645	 0.113741	 -1.204480
C	 0.489431	 0.077273	 0.000046
C	 -0.764129	 -0.759190	 0.000191
O	 0.948132	 0.649097	 0.934485
C	 -2.038368	 0.075731	 -0.000248
H	 -0.717284	 -1.412404	 -0.866059
H	 -0.717458	 -1.411724	 0.866967
H	 -2.086483	 0.712501	 -0.875098
H	 -2.908485	 -0.571682	 -0.000042
H	 -2.086576	 0.713280	 0.874068

	symmetry c1
}
set optking {
	frozen_dihedral = ("
		2 3 4 7
	")
}

ee = optimize('scf')
oeprop('DIPOLE', 'QUADRUPOLE', 'MULLIKEN_CHARGES')
f=open( 'psi4out.xyz', 'w' )
f.write( "11  " )
f.write( str(ee) + "\n" )
f.write( MOL.save_string_xyz() )
f.close()
--------------------------------------------------------------------------

    Molecular point group: c1
  Charge       = 0
  Multiplicity = 1
  Basis Set: 6-31G*
  Basis Set:
  @DF-RHF Final Energy:  -266.84329423846577
    Total Energy =                       -266.8432942384657736
    Molecular point group: c1
  Basis Set: 6-31G*
  Basis Set:
  Basis Set: 6-31G*
  Basis Set:
  @DF-RHF Final Energy:  -266.84355855040843
    Total Energy =                       -266.8435585504084884
  Basis Set: 6-31G*
  Basis Set:
  Basis Set: 6-31G*
  Basis Set:
  @DF-RHF Final Energy:  -266.84398588225264
    Total Energy =                       -266.8439858822528095
  Basis Set: 6-31G*
  Basis Set:
  Basis Set: 6-31G*
  Basis Set:
  @DF-RHF Final Energy:  -266.84405149244941
    Total Energy =                       -266.8440514924494664
  Basis Set: 6-31G*
  Basis Set:
  Charge       = 0
  Multiplicity = 1
  Basis Set: 6-31G*
  Basis Set:

    Orbital Energies (a.u.)
    -----------------------

    Doubly Occupied:

       1A    -20.615373     2A    -20.549535     3A    -11.381225
       4A    -11.242582     5A    -11.230328     6A     -1.475588
       7A     -1.365468     8A     -1.067161     9A     -0.913951
      10A     -0.812860    11A     -0.702777    12A     -0.687068
      13A     -0.642820    14A     -0.615409    15A     -0.592753
      16A     -0.540525    17A     -0.526737    18A     -0.512573
      19A     -0.474395    20A     -0.441605

  @DF-RHF Final Energy:  -266.84405286626998

   => Energetics <=

    Nuclear Repulsion Energy =            179.8649360489000912
    One-Electron Energy =                -720.6365085999016173
    Two-Electron Energy =                 273.9275196847313509
    DFT Exchange-Correlation Energy =       0.0000000000000000
    Empirical Dispersion Energy =           0.0000000000000000
    PCM Polarization Energy =               0.0000000000000000
    EFP Energy =                            0.0000000000000000
    Total Energy =                       -266.8440528662702036
    Molecular point group: c1
  Basis Set: 6-31G*
  Basis Set:

  -Total Gradient:
     Atom            X                  Y                   Z
    ------   -----------------  -----------------  -----------------
       1        0.000024111188    -0.000000033492    -0.000004289735
       2        0.000055928723    -0.000108126048     0.000073275831
       3       -0.000146422564     0.000163875099    -0.000066311142
       4        0.000030902779    -0.000115236497     0.000100786425
       5        0.000001207601    -0.000015638806    -0.000031758846
       6        0.000067685154    -0.000019794768     0.000042463954
       7       -0.000026277934     0.000066637719    -0.000115909798
       8        0.000019816396     0.000009489323    -0.000014050538
       9        0.000002202070    -0.000017692279     0.000017772263
      10        0.000002707486    -0.000002007245    -0.000007728449
      11       -0.000031860900     0.000038526995     0.000005750032

  **** Optimization is complete! (in 5 steps) ****
    Final optimized geometry and variables:
    Molecular point group: c1

    Geometry (in Angstrom), charge = 0, multiplicity = 1:

    H            1.850182054848     0.671283678048    -1.055901551365
    O            1.093792026600     0.096935615724    -1.129324123940
    C            0.520271198095     0.014418937172     0.068916672302
    C           -0.721432642585    -0.840142055110     0.067615875157
    O            0.948112117771     0.589146892088     1.017237744802
    C           -1.979297563630     0.038029015307     0.069726590405
    H           -0.713692886683    -1.492333807070    -0.795850352801
    H           -0.695071224271    -1.447260939500     0.964126250337
    H           -2.028766136367     0.652120588026    -0.823195285657
    H           -2.867134209772    -0.583219699847     0.098654893802
    H           -1.989666280746     0.689721638728     0.935166002702

  Mulliken Charges: (a.u.)
   Center  Symbol    Alpha    Beta     Spin     Total
       1     H     0.26808  0.26808  0.00000  0.46384
       2     O     4.34682  4.34682  0.00000 -0.69364
       3     C     2.63111  2.63111  0.00000  0.73778
       4     C     3.19975  3.19975  0.00000 -0.39950
       5     O     4.27933  4.27933  0.00000 -0.55866
       6     C     3.25092  3.25092  0.00000 -0.50184
       7     H     0.40019  0.40019  0.00000  0.19961
       8     H     0.39781  0.39781  0.00000  0.20438
       9     H     0.41130  0.41130  0.00000  0.17740
      10     H     0.41084  0.41084  0.00000  0.17833
      11     H     0.40385  0.40385  0.00000  0.19231

   Total alpha = 20.00000, Total beta = 20.00000, Total charge = -0.00000
