  ==> Input File <==

--------------------------------------------------------------------------
set {
	reference rhf
	basis cc-pvtz
}

set_num_threads( 4 )
memory 2 gb

molecule MOL {
0 1

O	 0.074770	 1.259872	 0.000487
C	 0.029490	 0.077183	 0.000078
C	 -1.232113	 -0.748027	 0.000015
O	 1.106773	 -0.690081	 -0.000204
C	 -2.501422	 0.088592	 -0.000052
H	 -1.188777	 -1.400384	 -0.865133
H	 -1.188857	 -1.400312	 0.865225
H	 -2.548170	 0.725504	 -0.873205
H	 -3.371613	 -0.556398	 -0.000040
H	 -2.548215	 0.725571	 0.873047
C	 2.319843	 -0.105560	 0.429256
H	 2.586143	 0.728255	 -0.203257
H	 3.065673	 -0.880406	 0.357297
H	 2.236867	 0.238513	 1.449537

	symmetry c1
}
set optking {
	frozen_dihedral = ("
		11 4 2 3
	")
}

ee = optimize('scf')
oeprop('DIPOLE', 'QUADRUPOLE', 'MULLIKEN_CHARGES')
f=open( 'psi4out.xyz', 'w' )
f.write( "14  " )
f.write( str(ee) + "\n" )
f.write( MOL.save_string_xyz() )
f.close()
--------------------------------------------------------------------------

    Molecular point group: c1
  Charge       = 0
  Multiplicity = 1
  Basis Set: CC-PVTZ
  Basis Set:
  @DF-RHF Final Energy:  -305.98531854077595
    Total Energy =                       -305.9853185407760066
    Molecular point group: c1
  Basis Set: CC-PVTZ
  Basis Set:
  Basis Set: CC-PVTZ
  Basis Set:
  @DF-RHF Final Energy:  -305.98327439388925
    Total Energy =                       -305.9832743938894737
  Basis Set: CC-PVTZ
  Basis Set:
  Basis Set: CC-PVTZ
  Basis Set:
  @DF-RHF Final Energy:  -305.98559947360224
    Total Energy =                       -305.9855994736020648
  Basis Set: CC-PVTZ
  Basis Set:
  Basis Set: CC-PVTZ
  Basis Set:
  @DF-RHF Final Energy:  -305.98567365026179
    Total Energy =                       -305.9856736502619015
  Basis Set: CC-PVTZ
  Basis Set:
  Basis Set: CC-PVTZ
  Basis Set:
  @DF-RHF Final Energy:  -305.98570518557301
    Total Energy =                       -305.9857051855728969
  Basis Set: CC-PVTZ
  Basis Set:
  Basis Set: CC-PVTZ
  Basis Set:
  @DF-RHF Final Energy:  -305.98571135858015
    Total Energy =                       -305.9857113585800334
  Basis Set: CC-PVTZ
  Basis Set:
  Charge       = 0
  Multiplicity = 1
  Basis Set: CC-PVTZ
  Basis Set:

    Orbital Energies (a.u.)
    -----------------------

    Doubly Occupied:

       1A    -20.595502     2A    -20.535706     3A    -11.365578
       4A    -11.279945     5A    -11.237663     6A    -11.215187
       7A     -1.471977     8A     -1.366922     9A     -1.065359
      10A     -0.980817    11A     -0.880254    12A     -0.770698
      13A     -0.702631    14A     -0.684850    15A     -0.675724
      16A     -0.621707    17A     -0.604706    18A     -0.549274
      19A     -0.539324    20A     -0.521910    21A     -0.514698
      22A     -0.497581    23A     -0.461077    24A     -0.442044

  @DF-RHF Final Energy:  -305.98571153484511

   => Energetics <=

    Nuclear Repulsion Energy =            247.4666244680778675
    One-Electron Energy =                -907.7424062933711184
    Two-Electron Energy =                 354.2900702904482841
    DFT Exchange-Correlation Energy =       0.0000000000000000
    Empirical Dispersion Energy =           0.0000000000000000
    PCM Polarization Energy =               0.0000000000000000
    EFP Energy =                            0.0000000000000000
    Total Energy =                       -305.9857115348449952
    Molecular point group: c1
  Basis Set: CC-PVTZ
  Basis Set:

  -Total Gradient:
     Atom            X                  Y                   Z
    ------   -----------------  -----------------  -----------------
       1        0.000014384340    -0.000050157297    -0.000052669621
       2       -0.000702135168    -0.000165112320    -0.003766548865
       3        0.000175724839    -0.000445742194     0.004206722717
       4        0.001244705316     0.002504334312    -0.004759123245
       5        0.000007260317    -0.000019494942     0.000005567513
       6        0.000007650603    -0.000004385937    -0.000001695193
       7       -0.000001444604     0.000001071252    -0.000000398560
       8        0.000002870157    -0.000001642971     0.000000380214
       9       -0.000001584341     0.000005002081     0.000001229641
      10       -0.000005461340     0.000007511718     0.000004549130
      11       -0.000758191628    -0.001854862722     0.004383155673
      12       -0.000000626081     0.000005280090    -0.000008846022
      13        0.000008761606     0.000007981059    -0.000006767448
      14        0.000008085988     0.000010217874    -0.000005555935

  **** Optimization is complete! (in 7 steps) ****
    Final optimized geometry and variables:
    Molecular point group: c1

    Geometry (in Angstrom), charge = 0, multiplicity = 1:

    O            0.071662697587     1.263844372826     0.142181943431
    C            0.032559117120     0.095702469962    -0.040672479795
    C           -1.222869175583    -0.736968031251    -0.076335763414
    O            1.116496262358    -0.655030816067    -0.170413169949
    C           -2.497191327345     0.088154471486    -0.157316553211
    H           -1.144010146284    -1.433472473068    -0.902472231500
    H           -1.205100258453    -1.341240194018     0.825235168163
    H           -2.520641217205     0.680435116390    -1.063043791737
    H           -3.363025347864    -0.562595255852    -0.154609641648
    H           -2.574769735797     0.766796648095     0.680772435131
    C            2.342461121284    -0.104721098639     0.268337255926
    H            2.623573090897     0.744688676841    -0.335792719508
    H            3.074466780673    -0.889580571833     0.168482027839
    H            2.267725916356     0.205350272958     1.300771423889

  Mulliken Charges: (a.u.)
   Center  Symbol    Alpha    Beta     Spin     Total
       1     O     4.19433  4.19433  0.00000 -0.38867
       2     C     2.80304  2.80304  0.00000  0.39393
       3     C     3.09298  3.09298  0.00000 -0.18595
       4     O     4.14893  4.14893  0.00000 -0.29785
       5     C     3.14069  3.14069  0.00000 -0.28137
       6     H     0.43934  0.43934  0.00000  0.12133
       7     H     0.44412  0.44412  0.00000  0.11175
       8     H     0.45023  0.45023  0.00000  0.09954
       9     H     0.45022  0.45022  0.00000  0.09955
      10     H     0.44599  0.44599  0.00000  0.10802
      11     C     3.03562  3.03562  0.00000 -0.07124
      12     H     0.45105  0.45105  0.00000  0.09791
      13     H     0.44554  0.44554  0.00000  0.10892
      14     H     0.45793  0.45793  0.00000  0.08413

   Total alpha = 24.00000, Total beta = 24.00000, Total charge = -0.00000
