  ==> Input File <==

--------------------------------------------------------------------------
set {
	reference rhf
	basis cc-pvtz
}

set_num_threads( 4 )
memory 2 gb

molecule MOL {
0 1

H	 -2.481720	 -0.367550	 -0.636461
N	 -1.851927	 0.161443	 -0.071573
C	 -0.561396	 -0.500007	 0.035200
H	 -2.275994	 0.262745	 0.826893
C	 0.575129	 0.507849	 -0.048832
H	 -0.478089	 -1.200753	 -0.788956
H	 -0.456191	 -1.081816	 0.952176
C	 1.951750	 -0.141983	 0.035101
H	 0.478254	 1.061643	 -0.975981
H	 0.467676	 1.231891	 0.755499
H	 2.101550	 -0.848142	 -0.774949
H	 2.738260	 0.600794	 -0.026526
H	 2.078939	 -0.679792	 0.968824

	symmetry c1
}
set optking {
	frozen_dihedral = ("
		1 2 3 6
	")
}

ee = optimize('scf')
oeprop('DIPOLE', 'QUADRUPOLE', 'MULLIKEN_CHARGES')
f=open( 'psi4out.xyz', 'w' )
f.write( "13  " )
f.write( str(ee) + "\n" )
f.write( MOL.save_string_xyz() )
f.close()
--------------------------------------------------------------------------

    Molecular point group: c1
  Charge       = 0
  Multiplicity = 1
  Basis Set: CC-PVTZ
  Basis Set:
  @DF-RHF Final Energy:  -173.35027181146967
    Total Energy =                       -173.3502718114696393
    Molecular point group: c1
  Basis Set: CC-PVTZ
  Basis Set:
  Basis Set: CC-PVTZ
  Basis Set:
  @DF-RHF Final Energy:  -173.35056155072670
    Total Energy =                       -173.3505615507266384
  Basis Set: CC-PVTZ
  Basis Set:
  Basis Set: CC-PVTZ
  Basis Set:
  @DF-RHF Final Energy:  -173.35064156171663
    Total Energy =                       -173.3506415617165715
  Basis Set: CC-PVTZ
  Basis Set:
  Basis Set: CC-PVTZ
  Basis Set:
  @DF-RHF Final Energy:  -173.35064520308552
    Total Energy =                       -173.3506452030856906
  Basis Set: CC-PVTZ
  Basis Set:
  Charge       = 0
  Multiplicity = 1
  Basis Set: CC-PVTZ
  Basis Set:

    Orbital Energies (a.u.)
    -----------------------

    Doubly Occupied:

       1A    -15.524867     2A    -11.238893     3A    -11.205482
       4A    -11.204573     5A     -1.175502     6A     -1.034344
       7A     -0.899071     8A     -0.796113     9A     -0.675157
      10A     -0.616761    11A     -0.603877    12A     -0.572615
      13A     -0.520059    14A     -0.491584    15A     -0.484703
      16A     -0.464269    17A     -0.379489

  @DF-RHF Final Energy:  -173.35064565042910

   => Energetics <=

    Nuclear Repulsion Energy =            131.6859421431868213
    One-Electron Energy =                -494.2984544477578197
    Two-Electron Energy =                 189.2618666541420680
    DFT Exchange-Correlation Energy =       0.0000000000000000
    Empirical Dispersion Energy =           0.0000000000000000
    PCM Polarization Energy =               0.0000000000000000
    EFP Energy =                            0.0000000000000000
    Total Energy =                       -173.3506456504289304
    Molecular point group: c1
  Basis Set: CC-PVTZ
  Basis Set:

  -Total Gradient:
     Atom            X                  Y                   Z
    ------   -----------------  -----------------  -----------------
       1        0.000725346946     0.001164108574    -0.001945472468
       2       -0.001156552095    -0.001797378766     0.002726401267
       3        0.001254764415     0.002184536337    -0.002032209642
       4        0.000013312778     0.000009385374     0.000002689982
       5       -0.000051298687    -0.000050009219     0.000037597004
       6       -0.000827161609    -0.001529366059     0.001215226647
       7        0.000014864653     0.000004694615     0.000012203699
       8        0.000017402454     0.000021089085    -0.000019654381
       9        0.000001881680    -0.000005705731     0.000007882074
      10       -0.000005880668    -0.000001784456    -0.000000748589
      11       -0.000002575487     0.000000031005     0.000004877905
      12        0.000023540805    -0.000010291119    -0.000002731758
      13       -0.000007645181     0.000010690360    -0.000006061738

  **** Optimization is complete! (in 5 steps) ****
    Final optimized geometry and variables:
    Molecular point group: c1

    Geometry (in Angstrom), charge = 0, multiplicity = 1:

    H           -2.505456485119    -0.372896596158    -0.599836803764
    N           -1.859176156766     0.153388155745    -0.056333404681
    C           -0.555443487549    -0.491241291217     0.026327857792
    H           -2.259872853026     0.318752473684     0.840055779130
    C            0.581479569273     0.518661324433    -0.042684651870
    H           -0.466164901878    -1.199757331530    -0.790539148316
    H           -0.453502884857    -1.080248725431     0.937100728556
    C            1.958245758619    -0.129947077318     0.048741203753
    H            0.490445372137     1.078048385892    -0.967269918421
    H            0.459867457388     1.237862972935     0.762389852508
    H            2.115379149075    -0.834784459441    -0.761590548620
    H            2.745269663538     0.612964500381    -0.005247215277
    H            2.079576282255    -0.670398033696     0.982057712624

  Mulliken Charges: (a.u.)
   Center  Symbol    Alpha    Beta     Spin     Total
       1     H     0.42473  0.42473  0.00000  0.15053
       2     N     3.69781  3.69781  0.00000 -0.39562
       3     C     3.03501  3.03501  0.00000 -0.07003
       4     H     0.42759  0.42759  0.00000  0.14482
       5     C     3.06388  3.06388  0.00000 -0.12776
       6     H     0.45725  0.45725  0.00000  0.08550
       7     H     0.46378  0.46378  0.00000  0.07244
       8     C     3.15522  3.15522  0.00000 -0.31044
       9     H     0.45381  0.45381  0.00000  0.09239
      10     H     0.45928  0.45928  0.00000  0.08143
      11     H     0.45668  0.45668  0.00000  0.08664
      12     H     0.44768  0.44768  0.00000  0.10464
      13     H     0.45726  0.45726  0.00000  0.08548

   Total alpha = 17.00000, Total beta = 17.00000, Total charge = -0.00000
