                              Psi4 1.0.54 Driver

  ==> Input File <==

--------------------------------------------------------------------------
set {
	reference rhf
	basis cc-pvtz
}

set_num_threads( 4 )
memory 2 gb

molecule MOL {
0 1

O	 2.841872	 1.394581	 -0.208384
C	 2.760590	 0.291319	 -0.640029
C	 1.464848	 -0.493815	 -0.618840
C	 3.956831	 -0.408262	 -1.244857
C	 0.288398	 0.247429	 0.000314
H	 1.241460	 -0.784489	 -1.642888
H	 1.654977	 -1.425132	 -0.090158
C	 -0.993089	 -0.581367	 -0.000217
H	 0.128242	 1.173893	 -0.539250
H	 0.542222	 0.532793	 1.014846
C	 -2.258482	 0.271340	 0.000669
H	 -1.002280	 -1.233920	 -0.870484
H	 -1.002061	 -1.235367	 0.868958
C	 -3.544441	 -0.550271	 -0.000253
H	 -2.250545	 0.925250	 -0.867923
H	 -2.250598	 0.923423	 0.870642
C	 -4.804551	 0.308747	 0.000556
H	 -3.553737	 -1.201524	 -0.870151
H	 -3.553831	 -1.203282	 0.868313
H	 -4.842050	 0.949078	 -0.874436
H	 -5.698404	 -0.304480	 -0.000254
H	 -4.842277	 0.947103	 0.876982
H	 3.749574	 -0.681796	 -2.273580
H	 4.817982	 0.240925	 -1.207889
H	 4.166905	 -1.324493	 -0.704088

	symmetry c1
}
set optking {
	frozen_dihedral = ("
		9 5 8 12
	")
}

ee,wfn = optimize('scf', return_wfn=True)
oeprop( wfn, 'DIPOLE', 'QUADRUPOLE', 'MULLIKEN_CHARGES')
f=open( 'psi4out.xyz', 'w' )
f.write( "25  " )
f.write( str(ee) + "\n" )
f.write( MOL.save_string_xyz() )
f.close()
--------------------------------------------------------------------------

    Molecular point group: c1
  Charge       = 0
  Multiplicity = 1
  Basis Set: CC-PVTZ
  Basis Set:
  @DF-RHF Final Energy:  -387.27236208765487
    Total Energy =                       -387.2723620876546420
    Molecular point group: c1
  Basis Set: CC-PVTZ
  Basis Set:
  Basis Set: CC-PVTZ
  Basis Set:
  @DF-RHF Final Energy:  -387.27257951454862
    Total Energy =                       -387.2725795145486245
  Basis Set: CC-PVTZ
  Basis Set:
  Basis Set: CC-PVTZ
  Basis Set:
  @DF-RHF Final Energy:  -387.27233032035269
    Total Energy =                       -387.2723303203528076
  Basis Set: CC-PVTZ
  Basis Set:
  Basis Set: CC-PVTZ
  Basis Set:
  @DF-RHF Final Energy:  -387.27267020648895
    Total Energy =                       -387.2726702064890105
  Basis Set: CC-PVTZ
  Basis Set:
  Basis Set: CC-PVTZ
  Basis Set:
  @DF-RHF Final Energy:  -387.27267190317207
    Total Energy =                       -387.2726719031720677
  Basis Set: CC-PVTZ
  Basis Set:
  Charge       = 0
  Multiplicity = 1
  Basis Set: CC-PVTZ
  Basis Set:

    Orbital Energies (a.u.)
    -----------------------

    Doubly Occupied:

       1A    -20.539001     2A    -11.320589     3A    -11.230656
       4A    -11.226672     5A    -11.214993     6A    -11.214377
       7A    -11.213655     8A    -11.212086     9A    -11.206630
      10A     -1.399011    11A     -1.094592    12A     -1.057838
      13A     -1.015363    14A     -0.970401    15A     -0.891743
      16A     -0.815334    17A     -0.791997    18A     -0.731795
      19A     -0.660999    20A     -0.653034    21A     -0.634775
      22A     -0.626412    23A     -0.596742    24A     -0.584457
      25A     -0.567875    26A     -0.561121    27A     -0.541524
      28A     -0.527231    29A     -0.513873    30A     -0.493849
      31A     -0.488778    32A     -0.473188    33A     -0.464896
      34A     -0.460680    35A     -0.452037    36A     -0.401557

  @DF-RHF Final Energy:  -387.27267222321223

   => Energetics <=

    Nuclear Repulsion Energy =            439.0791973622012847
    One-Electron Energy =               -1395.0042178676967524
    Two-Electron Energy =                 568.6523482822830147
    DFT Exchange-Correlation Energy =       0.0000000000000000
    Empirical Dispersion Energy =           0.0000000000000000
    PCM Polarization Energy =               0.0000000000000000
    EFP Energy =                            0.0000000000000000
    Total Energy =                       -387.2726722232124530
    Molecular point group: c1
  Basis Set: CC-PVTZ
  Basis Set:

  -Total Gradient:
     Atom            X                  Y                   Z
    ------   -----------------  -----------------  -----------------
       1       -0.000006719894     0.000025553780     0.000014550024
       2        0.000016160007    -0.000014560571    -0.000013916542
       3        0.000014494216     0.000009320542     0.000008725411
       4        0.000001131663    -0.000002906539    -0.000012778925
       5        0.001916489755    -0.002954676853    -0.003810518105
       6       -0.000004468446     0.000004815542     0.000003630221
       7       -0.000007746305    -0.000000229924    -0.000000199701
       8       -0.002610767629     0.004063863891    -0.001817380286
       9       -0.001173999047     0.001798335521     0.003463672223
      10       -0.000000064696    -0.000004071683    -0.000001280138
      11        0.000004230486    -0.000002230897     0.000013292429
      12        0.001869415747    -0.002905462677     0.002136256732
      13       -0.000007197194     0.000001522736     0.000004353455
      14       -0.000008792939     0.000005672590     0.000016401358
      15        0.000013592257     0.000001413586     0.000001919845
      16        0.000004053557    -0.000003007449     0.000003586280
      17       -0.000010087599    -0.000014782961    -0.000015829427
      18       -0.000005367352    -0.000002742102    -0.000000893386
      19       -0.000001697785    -0.000001783394     0.000005586018
      20       -0.000001593432     0.000007723328    -0.000004861422
      21       -0.000012463175     0.000000881661    -0.000003659714
      22        0.000004825655    -0.000002944488     0.000005432342
      23        0.000002424328    -0.000009755631    -0.000002033985
      24        0.000001135928     0.000006133558     0.000003603807
      25        0.000003011896    -0.000006081564     0.000002341486

  **** Optimization is complete! (in 6 steps) ****
    Final optimized geometry and variables:
    Molecular point group: c1

    Geometry (in Angstrom), charge = 0, multiplicity = 1:

    O            2.890217359753     1.324298602656     0.145830640505
    C            2.816024477815     0.229365094826    -0.307578742702
    C            1.511853641520    -0.540506130082    -0.358243704158
    C            4.030092363435    -0.474623475338    -0.870513528839
    C            0.316235915180     0.204517678854     0.214168626796
    H            1.333788064097    -0.815686191164    -1.395140460207
    H            1.665478232172    -1.480845881628     0.166930199655
    C           -0.969664624453    -0.627492161014     0.208025525534
    H            0.164622902558     1.135659548213    -0.319866540102
    H            0.543624122128     0.505439790202     1.230536366837
    C           -2.239471228522     0.214393497089     0.261628675929
    H           -0.988419842475    -1.280485896812    -0.661641673650
    H           -0.954431852145    -1.301419351995     1.061842115333
    C           -3.517713904303    -0.615643053424     0.334028359270
    H           -2.278364179962     0.858225261272    -0.613594762359
    H           -2.192467254935     0.877075016211     1.122660532503
    C           -4.783093820697     0.234673951122     0.374096692862
    H           -3.560339314603    -1.283994106462    -0.521912847077
    H           -3.483500882411    -1.251385433018     1.214565950363
    H           -4.864642353523     0.857032078132    -0.510858176651
    H           -5.671376717844    -0.384482990961     0.425489889602
    H           -4.786494726937     0.890235361738     1.238558234412
    H            3.866013102824    -0.728212678608    -1.912044669143
    H            4.896210531899     0.163206341265    -0.783975225179
    H            4.205090085341    -1.402305406176    -0.336782711049

  Mulliken Charges: (a.u.)
   Center  Symbol    Alpha    Beta     Spin     Total
       1     O     4.17039  4.17039  0.00000 -0.34079
       2     C     2.86267  2.86267  0.00000  0.27466
       3     C     3.11363  3.11363  0.00000 -0.22727
       4     C     3.15122  3.15122  0.00000 -0.30244
       5     C     3.08578  3.08578  0.00000 -0.17156
       6     H     0.44514  0.44514  0.00000  0.10972
       7     H     0.44449  0.44449  0.00000  0.11103
       8     C     3.09150  3.09150  0.00000 -0.18299
       9     H     0.44650  0.44650  0.00000  0.10699
      10     H     0.44527  0.44527  0.00000  0.10947
      11     C     3.08617  3.08617  0.00000 -0.17233
      12     H     0.45700  0.45700  0.00000  0.08601
      13     H     0.45430  0.45430  0.00000  0.09139
      14     C     3.08452  3.08452  0.00000 -0.16903
      15     H     0.45432  0.45432  0.00000  0.09136
      16     H     0.45257  0.45257  0.00000  0.09486
      17     C     3.15017  3.15017  0.00000 -0.30034
      18     H     0.45518  0.45518  0.00000  0.08964
      19     H     0.45467  0.45467  0.00000  0.09066
      20     H     0.45506  0.45506  0.00000  0.08988
      21     H     0.44865  0.44865  0.00000  0.10269
      22     H     0.45464  0.45464  0.00000  0.09071
      23     H     0.45041  0.45041  0.00000  0.09918
      24     H     0.43534  0.43534  0.00000  0.12932
      25     H     0.45041  0.45041  0.00000  0.09918

   Total alpha = 36.00000, Total beta = 36.00000, Total charge = -0.00000

*** Psi4 exiting successfully. Buy a developer a beer!
