                              Psi4 1.0.54 Driver

  ==> Input File <==

--------------------------------------------------------------------------
set {
	reference rhf
	basis cc-pvtz
}

set_num_threads( 4 )
memory 2 gb

molecule MOL {
0 1

H	 2.614283	 2.028610	 0.296620
O	 3.358864	 1.662087	 -0.142800
C	 3.565468	 0.338079	 0.273842
C	 2.533667	 -0.637565	 -0.272227
H	 4.548038	 0.064914	 -0.086598
H	 3.593945	 0.282242	 1.360360
C	 1.140717	 -0.039509	 -0.456265
H	 2.893291	 -1.025766	 -1.220451
H	 2.475644	 -1.480358	 0.412414
C	 0.124609	 -1.056318	 -0.974396
H	 1.197757	 0.797169	 -1.144538
H	 0.792006	 0.360415	 0.494392
C	 -1.305756	 -0.530379	 -1.107443
H	 0.458415	 -1.435639	 -1.937161
H	 0.115516	 -1.908841	 -0.300905
C	 -1.504556	 0.538079	 -2.181043
H	 -1.958222	 -1.369962	 -1.330862
H	 -1.635167	 -0.140569	 -0.146875
C	 -2.963264	 0.958061	 -2.342902
H	 -1.133060	 0.163031	 -3.132252
H	 -0.911174	 1.417028	 -1.947915
C	 -3.164822	 2.027429	 -3.411414
H	 -3.562435	 0.085807	 -2.589366
H	 -3.338451	 1.325121	 -1.391291
H	 -2.828657	 1.678779	 -4.382329
H	 -4.210008	 2.300265	 -3.502256
H	 -2.607820	 2.927956	 -3.174450

	symmetry c1
}
set optking {
	frozen_dihedral = ("
		8 4 3 2
	")
}

ee,wfn = optimize('scf', return_wfn=True)
oeprop( wfn, 'DIPOLE', 'QUADRUPOLE', 'MULLIKEN_CHARGES')
f=open( 'psi4out.xyz', 'w' )
f.write( "27  " )
f.write( str(ee) + "\n" )
f.write( MOL.save_string_xyz() )
f.close()
--------------------------------------------------------------------------

    Molecular point group: c1
  Charge       = 0
  Multiplicity = 1
  Basis Set: CC-PVTZ
  Basis Set:
  @DF-RHF Final Energy:  -388.42317236961952
    Total Energy =                       -388.4231723696188965
    Molecular point group: c1
  Basis Set: CC-PVTZ
  Basis Set:
  Basis Set: CC-PVTZ
  Basis Set:
  @DF-RHF Final Energy:  -388.42368664893752
    Total Energy =                       -388.4236866489378599
  Basis Set: CC-PVTZ
  Basis Set:
  Basis Set: CC-PVTZ
  Basis Set:
  @DF-RHF Final Energy:  -388.42389804587322
    Total Energy =                       -388.4238980458736705
  Basis Set: CC-PVTZ
  Basis Set:
  Basis Set: CC-PVTZ
  Basis Set:
  @DF-RHF Final Energy:  -388.42390484136729
    Total Energy =                       -388.4239048413671753
  Basis Set: CC-PVTZ
  Basis Set:
  Charge       = 0
  Multiplicity = 1
  Basis Set: CC-PVTZ
  Basis Set:

    Orbital Energies (a.u.)
    -----------------------

    Doubly Occupied:

       1A    -20.544888     2A    -11.265659     3A    -11.216140
       4A    -11.214277     5A    -11.213920     6A    -11.213060
       7A    -11.212683     8A    -11.210767     9A    -11.206322
      10A     -1.363226    11A     -1.095304    12A     -1.061049
      13A     -1.010878    14A     -0.949147    15A     -0.889450
      16A     -0.820174    17A     -0.800338    18A     -0.777384
      19A     -0.695262    20A     -0.649460    21A     -0.637562
      22A     -0.617886    23A     -0.603443    24A     -0.585610
      25A     -0.577745    26A     -0.555276    27A     -0.543474
      28A     -0.529177    29A     -0.505072    30A     -0.493714
      31A     -0.484097    32A     -0.473407    33A     -0.469034
      34A     -0.460584    35A     -0.447069    36A     -0.443588
      37A     -0.425209

  @DF-RHF Final Energy:  -388.42390536719557

   => Energetics <=

    Nuclear Repulsion Energy =            461.1861159536701393
    One-Electron Energy =               -1440.6973639100151559
    Two-Electron Energy =                 591.0873425891495572
    DFT Exchange-Correlation Energy =       0.0000000000000000
    Empirical Dispersion Energy =           0.0000000000000000
    PCM Polarization Energy =               0.0000000000000000
    EFP Energy =                            0.0000000000000000
    Total Energy =                       -388.4239053671954025
    Molecular point group: c1
  Basis Set: CC-PVTZ
  Basis Set:

  -Total Gradient:
     Atom            X                  Y                   Z
    ------   -----------------  -----------------  -----------------
       1       -0.000011355322     0.000023709948     0.000006278053
       2       -0.002877720458     0.000835139072     0.003848946532
       3        0.004599885852    -0.002319537939    -0.004635577140
       4       -0.004339751426     0.006079465436    -0.002195769049
       5        0.000011643966    -0.000004636133     0.000002787223
       6       -0.000013483767     0.000015468126    -0.000007423698
       7        0.000017185527    -0.000022917236     0.000013417927
       8        0.002635145104    -0.004581032381     0.002971368724
       9       -0.000017246460    -0.000033269220     0.000014114225
      10       -0.000016866566     0.000001856307     0.000001364768
      11        0.000007166606     0.000005160694    -0.000007533854
      12        0.000011824503    -0.000001860092    -0.000008073977
      13       -0.000012353732    -0.000011825076    -0.000008998854
      14       -0.000002955477     0.000010026172     0.000005018906
      15        0.000003418630     0.000005774345     0.000000692049
      16        0.000002362566    -0.000003722869    -0.000000339566
      17       -0.000003851422     0.000000140624    -0.000001981608
      18        0.000002458539    -0.000002189048     0.000002204297
      19       -0.000000419459     0.000000333931     0.000000572997
      20       -0.000002491916     0.000002951173    -0.000001900022
      21        0.000006800763     0.000002384631     0.000002125310
      22       -0.000000485684    -0.000001756376    -0.000001849476
      23       -0.000000553476     0.000000190817     0.000000592339
      24        0.000001415142    -0.000000212057     0.000000612232
      25        0.000000361591     0.000000542744    -0.000001229087
      26        0.000000233063    -0.000000253942    -0.000000102938
      27       -0.000000366691     0.000000068353     0.000000683692

  **** Optimization is complete! (in 5 steps) ****
    Final optimized geometry and variables:
    Molecular point group: c1

    Geometry (in Angstrom), charge = 0, multiplicity = 1:

    H            2.441373607152     1.690695235649     1.380995979051
    O            3.208227586787     1.319960809139     0.986378262682
    C            3.360932726185    -0.013675626812     1.394463050230
    C            2.313671532519    -0.979335713572     0.827113522121
    H            4.350572679340    -0.316060388374     1.083072432415
    H            3.339566062750    -0.060513753274     2.481007990732
    C            0.909509358501    -0.403318266241     0.680251201253
    H            2.661947464041    -1.390031382802    -0.115815025158
    H            2.274785064000    -1.833224536221     1.500328974233
    C           -0.105084093460    -1.446230260212     0.213876143259
    H            0.935913226480     0.424659041144    -0.016608633939
    H            0.581094968412     0.001474132197     1.637406431718
    C           -1.544919925995    -0.940569131518     0.106045531383
    H            0.208470959220    -1.842324968170    -0.748958948885
    H           -0.085752683126    -2.283669839401     0.905608112343
    C           -1.785204060275     0.096299309998    -0.989766711880
    H           -2.193064151599    -1.793071697185    -0.077299790137
    H           -1.853312042203    -0.529194457687     1.064659099159
    C           -3.251423109740     0.501232170577    -1.117864521100
    H           -1.440550879801    -0.303000046834    -1.941124705041
    H           -1.191347939503     0.985158950561    -0.800423999438
    C           -3.494450515064     1.537558035731    -2.209981976100
    H           -3.851378868203    -0.381854442522    -1.319949638123
    H           -3.599590073434     0.893439230201    -0.166026133163
    H           -3.187088719610     1.162556616539    -3.180581021016
    H           -4.543846993893     1.801377655451    -2.275096266764
    H           -2.936208839175     2.447772514463    -2.017471622913

  Mulliken Charges: (a.u.)
   Center  Symbol    Alpha    Beta     Spin     Total
       1     H     0.39006  0.39006  0.00000  0.21989
       2     O     4.20495  4.20495  0.00000 -0.40990
       3     C     2.97889  2.97889  0.00000  0.04221
       4     C     3.09322  3.09322  0.00000 -0.18645
       5     H     0.45072  0.45072  0.00000  0.09857
       6     H     0.46908  0.46908  0.00000  0.06184
       7     C     3.10401  3.10401  0.00000 -0.20803
       8     H     0.45179  0.45179  0.00000  0.09641
       9     H     0.45649  0.45649  0.00000  0.08702
      10     C     3.10101  3.10101  0.00000 -0.20202
      11     H     0.44264  0.44264  0.00000  0.11473
      12     H     0.45843  0.45843  0.00000  0.08313
      13     C     3.09816  3.09816  0.00000 -0.19632
      14     H     0.45200  0.45200  0.00000  0.09600
      15     H     0.44820  0.44820  0.00000  0.10361
      16     C     3.08812  3.08812  0.00000 -0.17623
      17     H     0.44808  0.44808  0.00000  0.10385
      18     H     0.45439  0.45439  0.00000  0.09122
      19     C     3.08414  3.08414  0.00000 -0.16829
      20     H     0.45438  0.45438  0.00000  0.09124
      21     H     0.45382  0.45382  0.00000  0.09236
      22     C     3.14957  3.14957  0.00000 -0.29915
      23     H     0.45404  0.45404  0.00000  0.09192
      24     H     0.45498  0.45498  0.00000  0.09004
      25     H     0.45495  0.45495  0.00000  0.09010
      26     H     0.44854  0.44854  0.00000  0.10291
      27     H     0.45533  0.45533  0.00000  0.08934

   Total alpha = 37.00000, Total beta = 37.00000, Total charge =  0.00000

*** Psi4 exiting successfully. Buy a developer a beer!
