  ==> Input File <==

--------------------------------------------------------------------------
set {
	reference rhf
	basis cc-pvtz
}

set_num_threads( 4 )
memory 2 gb

molecule MOL {
0 1

H	 -3.923984	 -1.304253	 1.198588
O	 -3.330493	 -1.128629	 0.492104
C	 -2.103685	 -0.669687	 0.994828
C	 -1.175688	 -0.398187	 -0.171891
H	 -2.246152	 0.239997	 1.574440
H	 -1.660967	 -1.412599	 1.655064
C	 0.196029	 0.106276	 0.266738
H	 -1.648362	 0.328549	 -0.825078
H	 -1.070599	 -1.312288	 -0.747472
C	 1.330220	 -0.826136	 -0.155230
H	 0.359542	 1.097229	 -0.145561
H	 0.212134	 0.218135	 1.348778
C	 2.719700	 -0.407669	 0.328325
H	 1.339388	 -0.911200	 -1.239363
H	 1.119001	 -1.821953	 0.224128
C	 3.241564	 0.893452	 -0.276737
H	 3.418299	 -1.204729	 0.093035
H	 2.711776	 -0.323368	 1.411960
H	 3.254204	 0.841071	 -1.360784
H	 2.634460	 1.745075	 0.005842
H	 4.254264	 1.092401	 0.054971

	symmetry c1
}
set optking {
	frozen_dihedral = ("
		8 4 7 10
	")
}

ee = optimize('scf')
oeprop('DIPOLE', 'QUADRUPOLE', 'MULLIKEN_CHARGES')
f=open( 'psi4out.xyz', 'w' )
f.write( "21  " )
f.write( str(ee) + "\n" )
f.write( MOL.save_string_xyz() )
f.close()
--------------------------------------------------------------------------

    Molecular point group: c1
  Charge       = 0
  Multiplicity = 1
  Basis Set: CC-PVTZ
  Basis Set:
  @DF-RHF Final Energy:  -310.32791792532100
    Total Energy =                       -310.3279179253207758
    Molecular point group: c1
  Basis Set: CC-PVTZ
  Basis Set:
  Basis Set: CC-PVTZ
  Basis Set:
  @DF-RHF Final Energy:  -310.32813054193133
    Total Energy =                       -310.3281305419308751
  Basis Set: CC-PVTZ
  Basis Set:
  Basis Set: CC-PVTZ
  Basis Set:
  @DF-RHF Final Energy:  -310.32818081840355
    Total Energy =                       -310.3281808184034389
  Basis Set: CC-PVTZ
  Basis Set:
  Charge       = 0
  Multiplicity = 1
  Basis Set: CC-PVTZ
  Basis Set:

    Orbital Energies (a.u.)
    -----------------------

    Doubly Occupied:

       1A    -20.545632     2A    -11.265652     3A    -11.213258
       4A    -11.213109     5A    -11.211873     6A    -11.208641
       7A    -11.206054     8A     -1.363756     9A     -1.086198
      10A     -1.033177    11A     -0.954901    12A     -0.877570
      13A     -0.809037    14A     -0.779447    15A     -0.697740
      16A     -0.655136    17A     -0.625836    18A     -0.610018
      19A     -0.592326    20A     -0.556163    21A     -0.552709
      22A     -0.517541    23A     -0.506611    24A     -0.496707
      25A     -0.475619    26A     -0.459497    27A     -0.453524
      28A     -0.447687    29A     -0.433993

  @DF-RHF Final Energy:  -310.32818141468198

   => Energetics <=

    Nuclear Repulsion Energy =            313.5443414826457342
    One-Electron Energy =               -1042.0462209043344046
    Two-Electron Energy =                 418.1736980070064646
    DFT Exchange-Correlation Energy =       0.0000000000000000
    Empirical Dispersion Energy =           0.0000000000000000
    PCM Polarization Energy =               0.0000000000000000
    EFP Energy =                            0.0000000000000000
    Total Energy =                       -310.3281814146822626
    Molecular point group: c1
  Basis Set: CC-PVTZ
  Basis Set:

  -Total Gradient:
     Atom            X                  Y                   Z
    ------   -----------------  -----------------  -----------------
       1       -0.000043258539    -0.000022209599    -0.000009253599
       2       -0.000098717976    -0.000031130446     0.000018050258
       3        0.000054194423     0.000025258215    -0.000041692357
       4        0.000033946895     0.000084172142     0.000120880853
       5        0.000013356163    -0.000001112311     0.000005782604
       6        0.000003840263     0.000013354006    -0.000006752496
       7       -0.000004636341    -0.000059383373     0.000001668361
       8        0.000026763441    -0.000047643797    -0.000053547303
       9       -0.000007563381    -0.000004411826     0.000004917214
      10       -0.000002786932     0.000037837060    -0.000043598250
      11        0.000018766485     0.000001363233     0.000000740006
      12       -0.000004785218    -0.000003744911     0.000000228405
      13        0.000019051091    -0.000000214709    -0.000017457872
      14       -0.000001936671     0.000001583365     0.000005518225
      15       -0.000019051725     0.000003599643     0.000000168330
      16        0.000000240054    -0.000004244698     0.000015101048
      17        0.000013202119     0.000002499274     0.000001512357
      18        0.000004616309     0.000002431971    -0.000007099841
      19        0.000000354582    -0.000004986509     0.000004402387
      20       -0.000005705368     0.000001598537    -0.000001439676
      21        0.000000110335     0.000005384733     0.000001871347

  **** Optimization is complete! (in 4 steps) ****
    Final optimized geometry and variables:
    Molecular point group: c1

    Geometry (in Angstrom), charge = 0, multiplicity = 1:

    H           -3.986556025668    -0.949837382345     0.987025434016
    O           -3.396205894347    -0.779645345037     0.276574572019
    C           -2.169947815297    -0.309943304317     0.767875570705
    C           -1.247560799545    -0.039877918221    -0.404513872164
    H           -2.312741453152     0.603060177870     1.342342141862
    H           -1.716418276902    -1.044987544852     1.430335917960
    C            0.141195727553     0.461568994437     0.036741565375
    H           -1.729379072846     0.679648470556    -1.055605412493
    H           -1.155967229958    -0.955643007346    -0.977624858313
    C            1.279536982308    -0.468185562020    -0.383366990515
    H            0.311566399708     1.452981097699    -0.364090758955
    H            0.165509828063     0.571448935593     1.118558558896
    C            2.666906790049    -0.049125370431     0.104456659878
    H            1.290222999950    -0.551352732312    -1.467628609911
    H            1.067055799985    -1.465383641271    -0.007076051327
    C            3.189548945039     1.252766272189    -0.498395979817
    H            3.367061364520    -0.845362439265    -0.129155618477
    H            2.655778886651     0.034792012891     1.188187034407
    H            3.204603775806     1.200991752157    -1.582383188713
    H            2.581529405817     2.103910141262    -0.216705035683
    H            4.201439196221     1.451769249229    -0.164326662327

  Mulliken Charges: (a.u.)
   Center  Symbol    Alpha    Beta     Spin     Total
       1     H     0.39737  0.39737  0.00000  0.20525
       2     O     4.19463  4.19463  0.00000 -0.38926
       3     C     2.96129  2.96129  0.00000  0.07741
       4     C     3.08920  3.08920  0.00000 -0.17840
       5     H     0.47385  0.47385  0.00000  0.05231
       6     H     0.47524  0.47524  0.00000  0.04952
       7     C     3.11239  3.11239  0.00000 -0.22479
       8     H     0.44694  0.44694  0.00000  0.10612
       9     H     0.45109  0.45109  0.00000  0.09783
      10     C     3.09355  3.09355  0.00000 -0.18709
      11     H     0.44495  0.44495  0.00000  0.11009
      12     H     0.45698  0.45698  0.00000  0.08604
      13     C     3.09032  3.09032  0.00000 -0.18063
      14     H     0.45195  0.45195  0.00000  0.09610
      15     H     0.44896  0.44896  0.00000  0.10208
      16     C     3.15231  3.15231  0.00000 -0.30462
      17     H     0.44860  0.44860  0.00000  0.10280
      18     H     0.45528  0.45528  0.00000  0.08944
      19     H     0.45455  0.45455  0.00000  0.09090
      20     H     0.45391  0.45391  0.00000  0.09218
      21     H     0.44664  0.44664  0.00000  0.10673

   Total alpha = 29.00000, Total beta = 29.00000, Total charge = -0.00000
