  ==> Input File <==

--------------------------------------------------------------------------
set {
	reference rhf
	basis cc-pvtz
}

set_num_threads( 4 )
memory 2 gb

molecule MOL {
0 1

H	 -0.939693	 0.000281	 1.681345
O	 -0.046262	 -0.000157	 1.387678
C	 -0.000837	 0.000006	 -0.025491
C	 -1.086921	 -0.924523	 -0.572132
C	 -0.191475	 1.424405	 -0.543071
C	 1.383081	 -0.523130	 -0.385061
H	 -1.053562	 -0.973100	 -1.654408
H	 -2.073046	 -0.570649	 -0.286824
H	 -0.961058	 -1.925186	 -0.178058
H	 -0.125275	 1.461817	 -1.624277
H	 -1.165299	 1.810604	 -0.257432
H	 0.565212	 2.078632	 -0.128489
H	 1.515034	 -0.560094	 -1.460007
H	 1.522336	 -1.519690	 0.014546
H	 2.147034	 0.118925	 0.034886

	symmetry c1
}
set optking {
	frozen_dihedral = ("
		4 3 2 1
	")
}

ee = optimize('scf')
oeprop('DIPOLE', 'QUADRUPOLE', 'MULLIKEN_CHARGES')
f=open( 'psi4out.xyz', 'w' )
f.write( "15  " )
f.write( str(ee) + "\n" )
f.write( MOL.save_string_xyz() )
f.close()
--------------------------------------------------------------------------

    Molecular point group: c1
  Charge       = 0
  Multiplicity = 1
  Basis Set: CC-PVTZ
  Basis Set:
  @DF-RHF Final Energy:  -232.24621468842196
    Total Energy =                       -232.2462146884217873
    Molecular point group: c1
  Basis Set: CC-PVTZ
  Basis Set:
  Basis Set: CC-PVTZ
  Basis Set:
  @DF-RHF Final Energy:  -232.24624769393100
    Total Energy =                       -232.2462476939309681
  Basis Set: CC-PVTZ
  Basis Set:
  Basis Set: CC-PVTZ
  Basis Set:
  @DF-RHF Final Energy:  -232.24626238094740
    Total Energy =                       -232.2462623809476554
  Basis Set: CC-PVTZ
  Basis Set:
  Basis Set: CC-PVTZ
  Basis Set:
  @DF-RHF Final Energy:  -232.24626345527889
    Total Energy =                       -232.2462634552790064
  Basis Set: CC-PVTZ
  Basis Set:
  Charge       = 0
  Multiplicity = 1
  Basis Set: CC-PVTZ
  Basis Set:

    Orbital Energies (a.u.)
    -----------------------

    Doubly Occupied:

       1A    -20.541706     2A    -11.280898     3A    -11.212840
       4A    -11.206041     5A    -11.203827     6A     -1.364413
       7A     -1.065351     8A     -0.944068     9A     -0.938641
      10A     -0.778542    11A     -0.672467    12A     -0.624519
      13A     -0.622673    14A     -0.576229    15A     -0.557377
      16A     -0.533407    17A     -0.517064    18A     -0.511410
      19A     -0.504129    20A     -0.459054    21A     -0.427888

  @DF-RHF Final Energy:  -232.24626388808665

   => Energetics <=

    Nuclear Repulsion Energy =            200.6515408462742869
    One-Electron Energy =                -712.7105165054963436
    Two-Electron Energy =                 279.8127117711352980
    DFT Exchange-Correlation Energy =       0.0000000000000000
    Empirical Dispersion Energy =           0.0000000000000000
    PCM Polarization Energy =               0.0000000000000000
    EFP Energy =                            0.0000000000000000
    Total Energy =                       -232.2462638880867303
    Molecular point group: c1
  Basis Set: CC-PVTZ
  Basis Set:

  -Total Gradient:
     Atom            X                  Y                   Z
    ------   -----------------  -----------------  -----------------
       1       -0.000024152103    -0.001613719346     0.000023976007
       2       -0.000228406336     0.002250271716    -0.000034689203
       3        0.000879914927    -0.001401890782     0.000053820153
       4       -0.000646087253     0.000771528566    -0.000010929709
       5        0.000000838487    -0.000014642085    -0.000019095091
       6        0.000006571667    -0.000004811440    -0.000009370649
       7        0.000004672087     0.000005108524    -0.000007914897
       8       -0.000001743134    -0.000008842580     0.000004201757
       9        0.000009234454     0.000012281659    -0.000001920122
      10       -0.000005335471     0.000005216591     0.000003631002
      11       -0.000004955321     0.000000844864     0.000000452118
      12        0.000007544292    -0.000001411606    -0.000000507348
      13        0.000002829919    -0.000006595833    -0.000002496342
      14        0.000000298267     0.000005584809    -0.000001399526
      15       -0.000001224484     0.000001076943     0.000002241847

  **** Optimization is complete! (in 5 steps) ****
    Final optimized geometry and variables:
    Molecular point group: c1

    Geometry (in Angstrom), charge = 0, multiplicity = 1:

    H           -0.937633122041     0.022406598602     1.684548011840
    O           -0.045607865743     0.014179237360     1.388795039380
    C            0.001551243800     0.000434251535    -0.025279132250
    C           -1.086687855443    -0.921627030040    -0.569736898858
    C           -0.193242879402     1.424050301743    -0.545200786978
    C            1.386280716221    -0.519270384042    -0.386729435391
    H           -1.051305434968    -0.971804776269    -1.651376984228
    H           -2.072307511418    -0.561601477159    -0.289169607670
    H           -0.966220145585    -1.923866979048    -0.176403222361
    H           -0.128545272229     1.461586213479    -1.626867281921
    H           -1.165334658452     1.807817713104    -0.253641246998
    H            0.563336920485     2.078743062534    -0.131497760276
    H            1.527877886539    -0.530481896410    -1.461122934477
    H            1.521699219197    -1.524656655286    -0.008437644399
    H            2.147500641710     0.112248531725     0.053871021161

  Mulliken Charges: (a.u.)
   Center  Symbol    Alpha    Beta     Spin     Total
       1     H     0.39477  0.39477  0.00000  0.21045
       2     O     4.21224  4.21224  0.00000 -0.42447
       3     C     2.87856  2.87856  0.00000  0.24288
       4     C     3.15458  3.15458  0.00000 -0.30915
       5     C     3.14636  3.14636  0.00000 -0.29273
       6     C     3.14207  3.14207  0.00000 -0.28413
       7     H     0.45341  0.45341  0.00000  0.09318
       8     H     0.45590  0.45590  0.00000  0.08819
       9     H     0.44562  0.44562  0.00000  0.10876
      10     H     0.45732  0.45732  0.00000  0.08537
      11     H     0.45516  0.45516  0.00000  0.08969
      12     H     0.44775  0.44775  0.00000  0.10451
      13     H     0.45891  0.45891  0.00000  0.08218
      14     H     0.45010  0.45010  0.00000  0.09980
      15     H     0.44727  0.44727  0.00000  0.10547

   Total alpha = 21.00000, Total beta = 21.00000, Total charge = -0.00000
