  ==> Input File <==

--------------------------------------------------------------------------
set {
	reference rhf
	basis 6-31G*
}

set_num_threads( 4 )
memory 2 gb

molecule MOL {
0 1

H	 -4.344221	 0.047492	 -1.178891
O	 -3.452007	 0.283848	 -0.965577
C	 -3.181085	 -0.079926	 0.364119
C	 -1.765924	 0.277073	 0.805136
H	 -3.327791	 -1.152017	 0.410903
H	 -3.905698	 0.375695	 1.036898
C	 -0.677594	 -0.417312	 -0.014550
H	 -1.637766	 1.358238	 0.744969
H	 -1.659588	 0.017670	 1.857098
C	 0.738335	 -0.034840	 0.421385
H	 -0.814977	 -0.178223	 -1.064632
H	 -0.802730	 -1.495410	 0.071702
C	 1.822265	 -0.738362	 -0.399735
H	 0.853533	 1.043532	 0.342250
H	 0.871597	 -0.279636	 1.474438
C	 3.258060	 -0.455774	 0.057203
H	 1.718003	 -0.459167	 -1.447053
H	 1.651028	 -1.811884	 -0.354513
C	 3.709143	 0.994797	 -0.123830
H	 3.930637	 -1.101717	 -0.501982
H	 3.365259	 -0.739518	 1.102287
H	 3.601178	 1.310569	 -1.158127
H	 4.753787	 1.110486	 0.148516
H	 3.135362	 1.678896	 0.492569

	symmetry c1
}
set optking {
	frozen_dihedral = ("
		1 2 3 5
	")
}

ee = optimize('scf')
oeprop('DIPOLE', 'QUADRUPOLE', 'MULLIKEN_CHARGES')
f=open( 'psi4out.xyz', 'w' )
f.write( "24  " )
f.write( str(ee) + "\n" )
f.write( MOL.save_string_xyz() )
f.close()
--------------------------------------------------------------------------

    Molecular point group: c1
  Charge       = 0
  Multiplicity = 1
  Basis Set: 6-31G*
  Basis Set:
  @DF-RHF Final Energy:  -349.24584177720584
    Total Energy =                       -349.2458417772056123
    Molecular point group: c1
  Basis Set: 6-31G*
  Basis Set:
  Basis Set: 6-31G*
  Basis Set:
  @DF-RHF Final Energy:  -349.24736309342018
    Total Energy =                       -349.2473630934204607
  Basis Set: 6-31G*
  Basis Set:
  Basis Set: 6-31G*
  Basis Set:
  @DF-RHF Final Energy:  -349.24771502699201
    Total Energy =                       -349.2477150269922959
  Basis Set: 6-31G*
  Basis Set:
  Basis Set: 6-31G*
  Basis Set:
  @DF-RHF Final Energy:  -349.24772028281598
    Total Energy =                       -349.2477202828166583
  Basis Set: 6-31G*
  Basis Set:
  Basis Set: 6-31G*
  Basis Set:
  @DF-RHF Final Energy:  -349.24772293091195
    Total Energy =                       -349.2477229309118343
  Basis Set: 6-31G*
  Basis Set:
  Charge       = 0
  Multiplicity = 1
  Basis Set: 6-31G*
  Basis Set:

    Orbital Energies (a.u.)
    -----------------------

    Doubly Occupied:

       1A    -20.552895     2A    -11.267821     3A    -11.211718
       4A    -11.211358     5A    -11.208617     6A    -11.207835
       7A    -11.206027     8A    -11.204484     9A     -1.359624
      10A     -1.084829    11A     -1.045677    12A     -0.983721
      13A     -0.911735    14A     -0.843077    15A     -0.788046
      16A     -0.772879    17A     -0.704722    18A     -0.643675
      19A     -0.632293    20A     -0.609367    21A     -0.587289
      22A     -0.575388    23A     -0.555834    24A     -0.531477
      25A     -0.519400    26A     -0.503210    27A     -0.490761
      28A     -0.478498    29A     -0.465972    30A     -0.454904
      31A     -0.449130    32A     -0.438604    33A     -0.424651

  @DF-RHF Final Energy:  -349.24772347476164

   => Energetics <=

    Nuclear Repulsion Energy =            384.7399121471717081
    One-Electron Energy =               -1236.1242348021592079
    Two-Electron Energy =                 502.1365991802258009
    DFT Exchange-Correlation Energy =       0.0000000000000000
    Empirical Dispersion Energy =           0.0000000000000000
    PCM Polarization Energy =               0.0000000000000000
    EFP Energy =                            0.0000000000000000
    Total Energy =                       -349.2477234747616990
    Molecular point group: c1
  Basis Set: 6-31G*
  Basis Set:

  -Total Gradient:
     Atom            X                  Y                   Z
    ------   -----------------  -----------------  -----------------
       1       -0.000074763812     0.000236861464     0.000109731395
       2        0.000166353223    -0.000318563835    -0.000114246440
       3       -0.000294847446     0.000083494454     0.000051103307
       4       -0.000018912884    -0.000002913888     0.000062903974
       5        0.000213077219    -0.000007617675    -0.000062101770
       6        0.000028379358    -0.000005708570    -0.000003659032
       7       -0.000024317296    -0.000013739442    -0.000027486275
       8       -0.000019330505     0.000007690239    -0.000005368740
       9        0.000006136326     0.000013806887    -0.000005087979
      10       -0.000008014739    -0.000010060140     0.000009903286
      11        0.000009516902     0.000002876942    -0.000005853157
      12        0.000001846980     0.000005121470    -0.000004557107
      13        0.000008107965     0.000014498320    -0.000007386325
      14       -0.000015983867    -0.000022787889    -0.000009447673
      15        0.000001464678     0.000007696469     0.000009139139
      16       -0.000008575669     0.000002724510     0.000019215692
      17       -0.000002137205     0.000016094983     0.000002855470
      18        0.000010231997    -0.000002489508    -0.000013132406
      19        0.000012451534    -0.000000201516    -0.000008767446
      20       -0.000002273091    -0.000011657824     0.000008540210
      21       -0.000007556022     0.000012191201     0.000005799018
      22       -0.000004739066     0.000005662749    -0.000003870758
      23        0.000000972213    -0.000004773287    -0.000007106906
      24        0.000022913218    -0.000008206115    -0.000001119472

  **** Optimization is complete! (in 6 steps) ****
    Final optimized geometry and variables:
    Molecular point group: c1

    Geometry (in Angstrom), charge = 0, multiplicity = 1:

    H           -4.262097797097     0.119641800468    -1.218727122853
    O           -3.382196946841     0.335706474719    -0.945069113346
    C           -3.179161388662    -0.094867081645     0.377221977795
    C           -1.768219914377     0.277689611474     0.799737401180
    H           -3.316657218787    -1.172818956690     0.452970152625
    H           -3.898291236334     0.376357020033     1.044761461941
    C           -0.680649887360    -0.420225062238    -0.018475933886
    H           -1.660202961229     1.355788537136     0.714129117010
    H           -1.652801814827     0.030501650021     1.853494323608
    C            0.733535737764    -0.032389465180     0.418458554758
    H           -0.817606963627    -0.181033366463    -1.067984628489
    H           -0.802161518448    -1.498908966106     0.071843321559
    C            1.820907092421    -0.731814196904    -0.401585634670
    H            0.843576077661     1.046113164673     0.338121563579
    H            0.867421552577    -0.276096272729     1.471876514927
    C            3.255396070867    -0.442946314137     0.055602276747
    H            1.715837266593    -0.453553160762    -1.449001971126
    H            1.654506980502    -1.806271242569    -0.355880919813
    C            3.702297863497     1.008091401352    -0.131850740372
    H            3.930721699154    -1.089578307159    -0.499588335139
    H            3.362114754044    -0.721274197388     1.102255760898
    H            3.593770626086     1.318796562180    -1.167572770215
    H            4.746526398956     1.128140652730     0.140508465448
    H            3.125884440190     1.693157344132     0.480838225909

  Mulliken Charges: (a.u.)
   Center  Symbol    Alpha    Beta     Spin     Total
       1     H     0.28059  0.28059  0.00000  0.43882
       2     O     4.36969  4.36969  0.00000 -0.73938
       3     C     2.99736  2.99736  0.00000  0.00527
       4     C     3.16009  3.16009  0.00000 -0.32018
       5     H     0.43250  0.43250  0.00000  0.13501
       6     H     0.42943  0.42943  0.00000  0.14114
       7     C     3.15390  3.15390  0.00000 -0.30781
       8     H     0.41538  0.41538  0.00000  0.16923
       9     H     0.42424  0.42424  0.00000  0.15152
      10     C     3.15406  3.15406  0.00000 -0.30811
      11     H     0.40750  0.40750  0.00000  0.18499
      12     H     0.42737  0.42737  0.00000  0.14527
      13     C     3.15209  3.15209  0.00000 -0.30417
      14     H     0.42117  0.42117  0.00000  0.15765
      15     H     0.42659  0.42659  0.00000  0.14682
      16     C     3.15211  3.15211  0.00000 -0.30421
      17     H     0.42345  0.42345  0.00000  0.15310
      18     H     0.42327  0.42327  0.00000  0.15345
      19     C     3.24091  3.24091  0.00000 -0.48181
      20     H     0.42179  0.42179  0.00000  0.15643
      21     H     0.42421  0.42421  0.00000  0.15159
      22     H     0.42209  0.42209  0.00000  0.15582
      23     H     0.42019  0.42019  0.00000  0.15962
      24     H     0.42003  0.42003  0.00000  0.15993

   Total alpha = 33.00000, Total beta = 33.00000, Total charge =  0.00000
