  ==> Input File <==

--------------------------------------------------------------------------
set {
	reference rhf
	basis cc-pvtz
}

set_num_threads( 4 )
memory 2 gb

molecule MOL {
0 1

H	 -0.368932	 0.067705	 -2.090439
C	 -0.209919	 -0.484932	 -1.189418
C	 -0.208597	 -1.865032	 -1.181964
C	 0.000000	 0.179985	 0.000046
H	 -0.370006	 -2.400757	 -2.096546
C	 0.000003	 -2.552036	 -0.000011
N	 0.000000	 1.644631	 0.000076
C	 0.209918	 -0.484981	 1.189483
H	 0.000000	 -3.625035	 -0.000032
C	 0.208599	 -1.865081	 1.181972
O	 1.050559	 2.194174	 -0.000073
O	 -1.050559	 2.194174	 -0.000074
H	 0.368940	 0.067620	 2.090525
H	 0.370004	 -2.400843	 2.096533

	symmetry c1
}
set optking {
	frozen_dihedral = ("
		2 4 7 11
	")
}

ee = optimize('scf')
oeprop('DIPOLE', 'QUADRUPOLE', 'MULLIKEN_CHARGES')
f=open( 'psi4out.xyz', 'w' )
f.write( "14  " )
f.write( str(ee) + "\n" )
f.write( MOL.save_string_xyz() )
f.close()
--------------------------------------------------------------------------

    Molecular point group: c1
  Charge       = 0
  Multiplicity = 1
  Basis Set: CC-PVTZ
  Basis Set:
  @DF-RHF Final Energy:  -434.32010414226335
    Total Energy =                       -434.3201041422634034
    Molecular point group: c1
  Basis Set: CC-PVTZ
  Basis Set:
  Basis Set: CC-PVTZ
  Basis Set:
  @DF-RHF Final Energy:  -434.31632066994644
    Total Energy =                       -434.3163206699463217
  Basis Set: CC-PVTZ
  Basis Set:
  Basis Set: CC-PVTZ
  Basis Set:
  @DF-RHF Final Energy:  -434.31985469673765
    Total Energy =                       -434.3198546967374796
  Basis Set: CC-PVTZ
  Basis Set:
  Basis Set: CC-PVTZ
  Basis Set:
  @DF-RHF Final Energy:  -434.32038728244754
    Total Energy =                       -434.3203872824474274
  Basis Set: CC-PVTZ
  Basis Set:
  Charge       = 0
  Multiplicity = 1
  Basis Set: CC-PVTZ
  Basis Set:

    Orbital Energies (a.u.)
    -----------------------

    Doubly Occupied:

       1A    -20.598548     2A    -20.598480     3A    -15.848369
       4A    -11.308155     5A    -11.267347     6A    -11.267295
       7A    -11.260875     8A    -11.260556     9A    -11.258002
      10A     -1.645758    11A     -1.428984    12A     -1.206496
      13A     -1.096678    14A     -1.056873    15A     -0.959248
      16A     -0.874931    17A     -0.831530    18A     -0.786427
      19A     -0.740725    20A     -0.738677    21A     -0.718221
      22A     -0.651978    23A     -0.650490    24A     -0.625876
      25A     -0.561710    26A     -0.552997    27A     -0.533699
      28A     -0.500856    29A     -0.485674    30A     -0.459486
      31A     -0.371588    32A     -0.370573

  @DF-RHF Final Energy:  -434.32038844251116

   => Energetics <=

    Nuclear Repulsion Energy =            417.3164136096708603
    One-Electron Energy =               -1418.2393991718565758
    Two-Electron Energy =                 566.6025971196747832
    DFT Exchange-Correlation Energy =       0.0000000000000000
    Empirical Dispersion Energy =           0.0000000000000000
    PCM Polarization Energy =               0.0000000000000000
    EFP Energy =                            0.0000000000000000
    Total Energy =                       -434.3203884425108754
    Molecular point group: c1
  Basis Set: CC-PVTZ
  Basis Set:

  -Total Gradient:
     Atom            X                  Y                   Z
    ------   -----------------  -----------------  -----------------
       1       -0.000006329945    -0.000014098269     0.000033769977
       2        0.002257998165    -0.000073944239    -0.000437345511
       3       -0.000061939250     0.000007932756    -0.000020625172
       4       -0.003130237521     0.000233835659    -0.000455187306
       5        0.000012556503     0.000001936211    -0.000008249950
       6        0.000001727480     0.000001420677    -0.000009976570
       7        0.000935083084    -0.000035093029     0.003363692644
       8       -0.000064939048    -0.000079914463     0.000098432420
       9       -0.000003360249     0.000005201119     0.000000650591
      10        0.000063865110     0.000022392266     0.000041657145
      11        0.000181487763    -0.000052387250    -0.002594828653
      12       -0.000172717390    -0.000001807959     0.000016506465
      13       -0.000004400147    -0.000013820975    -0.000035279232
      14       -0.000008794552    -0.000001652501     0.000006783151

  **** Optimization is complete! (in 5 steps) ****
    Final optimized geometry and variables:
    Molecular point group: c1

    Geometry (in Angstrom), charge = 0, multiplicity = 1:

    H           -0.386662307518     0.076025885403    -2.086930109015
    C           -0.219277117646    -0.476412303894    -1.183798580157
    C           -0.206410876946    -1.857761701080    -1.179293684646
    C           -0.016803374144     0.178007191992     0.007089022975
    H           -0.359804634024    -2.391946117381    -2.096366486894
    C            0.002980750988    -2.547261553335     0.000460216952
    N            0.000556232202     1.643708708898     0.002949108602
    C            0.209151034585    -0.479228584533     1.192111249825
    H            0.008433207546    -3.619836009347    -0.001834752724
    C            0.208261308791    -1.860669851397     1.182569611725
    O            1.061577279014     2.169536943542     0.014839552111
    O           -1.046450413096     2.196183037123    -0.032224729775
    H            0.380424677896     0.071107068661     2.095816056892
    H            0.372926598790    -2.397073988333     2.096383786828

  Mulliken Charges: (a.u.)
   Center  Symbol    Alpha    Beta     Spin     Total
       1     H     0.41418  0.41418  0.00000  0.17164
       2     C     3.08463  3.08463  0.00000 -0.16926
       3     C     3.06419  3.06419  0.00000 -0.12838
       4     C     2.92416  2.92416  0.00000  0.15168
       5     H     0.41735  0.41735  0.00000  0.16530
       6     C     3.07818  3.07818  0.00000 -0.15637
       7     N     3.29229  3.29229  0.00000  0.41543
       8     C     3.08484  3.08484  0.00000 -0.16968
       9     H     0.41801  0.41801  0.00000  0.16397
      10     C     3.06400  3.06400  0.00000 -0.12800
      11     O     4.16285  4.16285  0.00000 -0.32571
      12     O     4.16338  4.16338  0.00000 -0.32675
      13     H     0.41458  0.41458  0.00000  0.17083
      14     H     0.41735  0.41735  0.00000  0.16529

   Total alpha = 32.00000, Total beta = 32.00000, Total charge = -0.00000
