  ==> Input File <==

--------------------------------------------------------------------------
set {
	reference rhf
	basis 6-31G*
}

set_num_threads( 1 )
memory 2 gb

molecule MOL {
0 1

H	 3.641292	 -0.900605	 0.540831
O	 2.826016	 -1.159218	 0.122261
C	 2.077727	 -0.067559	 -0.035091
C	 0.624473	 -0.343591	 0.253101
O	 2.542965	 0.974826	 -0.363729
C	 -0.265902	 0.883932	 0.072916
H	 0.324016	 -1.163849	 -0.390541
H	 0.565024	 -0.726111	 1.268924
C	 -1.728698	 0.646073	 0.462102
H	 -0.209144	 1.219470	 -0.958188
H	 0.135059	 1.692851	 0.673903
C	 -2.482460	 -0.343073	 -0.431425
H	 -2.245265	 1.602650	 0.432430
H	 -1.779332	 0.308348	 1.496285
C	 -3.960546	 -0.461025	 -0.060175
H	 -2.395034	 -0.026811	 -1.468912
H	 -2.024850	 -1.327147	 -0.371646
H	 -4.472726	 -1.168004	 -0.705284
H	 -4.465146	 0.496508	 -0.151489
H	 -4.081218	 -0.800940	 0.964585

	symmetry c1
}
set optking {
	frozen_dihedral = ("
		16 12 9 6,
		7 4 6 10,
		12 9 6 10,
		5 3 4 7
	")
}

ee = energy('scf')
oeprop('DIPOLE', 'QUADRUPOLE', 'MULLIKEN_CHARGES')
f=open( 'psi4out.xyz', 'w' )
f.write( "20  " )
f.write( str(ee) + "\n" )
f.write( MOL.save_string_xyz() )
f.close()
--------------------------------------------------------------------------

    Molecular point group: c1

    Geometry (in Angstrom), charge = 0, multiplicity = 1:

       Center              X                  Y                   Z               Mass
    ------------   -----------------  -----------------  -----------------  -----------------
           H          3.642057707365    -0.900845338979     0.535522863553     1.007825032070
           O          2.826781707365    -1.159458338979     0.116952863553    15.994914619560
           C          2.078492707365    -0.067799338979    -0.040399136447    12.000000000000
           C          0.625238707365    -0.343831338979     0.247792863553    12.000000000000
           O          2.543730707365     0.974585661021    -0.369037136447    15.994914619560
           C         -0.265136292635     0.883691661021     0.067607863553    12.000000000000
           H          0.324781707365    -1.164089338979    -0.395849136447     1.007825032070
           H          0.565789707365    -0.726351338979     1.263615863553     1.007825032070
           C         -1.727932292635     0.645832661021     0.456793863553    12.000000000000
           H         -0.208378292635     1.219229661021    -0.963496136447     1.007825032070
           H          0.135824707365     1.692610661021     0.668594863553     1.007825032070
           C         -2.481694292635    -0.343313338979    -0.436733136447    12.000000000000
           H         -2.244499292635     1.602409661021     0.427121863553     1.007825032070
           H         -1.778566292635     0.308107661021     1.490976863553     1.007825032070
           C         -3.959780292635    -0.461265338979    -0.065483136447    12.000000000000
           H         -2.394268292635    -0.027051338979    -1.474220136447     1.007825032070
           H         -2.024084292635    -1.327387338979    -0.376954136447     1.007825032070
           H         -4.471960292635    -1.168244338979    -0.710592136447     1.007825032070
           H         -4.464380292635     0.496267661021    -0.156797136447     1.007825032070
           H         -4.080452292635    -0.801180338979     0.959276863553     1.007825032070

  Charge       = 0
  Multiplicity = 1
  Basis Set: 6-31G*
  Basis Set:

    Orbital Energies (a.u.)
    -----------------------

    Doubly Occupied:

       1A    -20.606604     2A    -20.554163     3A    -11.380606
       4A    -11.239833     5A    -11.222518     6A    -11.220613
       7A    -11.220020     8A    -11.212370     9A     -1.472438
      10A     -1.366138    11A     -1.095918    12A     -1.040373
      13A     -0.960191    14A     -0.867710    15A     -0.816135
      16A     -0.778294    17A     -0.703558    18A     -0.687806
      19A     -0.661203    20A     -0.639621    21A     -0.608283
      22A     -0.586017    23A     -0.573082    24A     -0.556178
      25A     -0.530765    26A     -0.515069    27A     -0.494144
      28A     -0.485630    29A     -0.469817    30A     -0.464980
      31A     -0.457384    32A     -0.443195

  @DF-RHF Final Energy:  -383.93976731361425

   => Energetics <=

    Nuclear Repulsion Energy =            375.9217416612974034
    One-Electron Energy =               -1267.8617156255195368
    Two-Electron Energy =                 508.0002066506088454
    DFT Exchange-Correlation Energy =       0.0000000000000000
    Empirical Dispersion Energy =           0.0000000000000000
    PCM Polarization Energy =               0.0000000000000000
    EFP Energy =                            0.0000000000000000
    Total Energy =                       -383.9397673136133449

  Mulliken Charges: (a.u.)
   Center  Symbol    Alpha    Beta     Spin     Total
       1     H     0.26629  0.26629  0.00000  0.46742
       2     O     4.35425  4.35425  0.00000 -0.70850
       3     C     2.62755  2.62755  0.00000  0.74490
       4     C     3.21214  3.21214  0.00000 -0.42428
       5     O     4.26960  4.26960  0.00000 -0.53920
       6     C     3.15475  3.15475  0.00000 -0.30949
       7     H     0.39644  0.39644  0.00000  0.20712
       8     H     0.40210  0.40210  0.00000  0.19581
       9     C     3.15538  3.15538  0.00000 -0.31077
      10     H     0.41174  0.41174  0.00000  0.17652
      11     H     0.40913  0.40913  0.00000  0.18175
      12     C     3.15481  3.15481  0.00000 -0.30963
      13     H     0.41798  0.41798  0.00000  0.16404
      14     H     0.42428  0.42428  0.00000  0.15144
      15     C     3.23921  3.23921  0.00000 -0.47842
      16     H     0.42119  0.42119  0.00000  0.15763
      17     H     0.42273  0.42273  0.00000  0.15453
      18     H     0.41825  0.41825  0.00000  0.16349
      19     H     0.42065  0.42065  0.00000  0.15869
      20     H     0.42153  0.42153  0.00000  0.15695

   Total alpha = 32.00000, Total beta = 32.00000, Total charge =  0.00000
