  ==> Input File <==

--------------------------------------------------------------------------
set {
	reference rhf
	basis 6-31G*
}

set_num_threads( 4 )
memory 2 gb

molecule MOL {
0 1

O	 -1.276010	 1.052711	 -0.768302
C	 -1.204840	 0.067374	 -0.106123
C	 -2.388195	 -0.672128	 0.458071
O	 -0.067104	 -0.527208	 0.221609
H	 -2.388023	 -1.694060	 0.097175
H	 -3.300579	 -0.174919	 0.164318
H	 -2.315377	 -0.706351	 1.539059
C	 1.170111	 0.034140	 -0.238951
C	 2.181789	 -1.097454	 -0.199091
C	 1.558939	 1.211961	 0.640932
H	 1.024237	 0.369705	 -1.255132
H	 1.859537	 -1.921415	 -0.825581
H	 3.145160	 -0.750337	 -0.557919
H	 2.305277	 -1.465916	 0.813648
H	 2.506238	 1.626965	 0.311673
H	 0.811613	 1.993463	 0.588647
H	 1.665017	 0.895050	 1.673561

	symmetry c1
}
set optking {
	frozen_dihedral = ("
		11 8 4 2
	")
}

ee = optimize('scf')
oeprop('DIPOLE', 'QUADRUPOLE', 'MULLIKEN_CHARGES')
f=open( 'psi4out.xyz', 'w' )
f.write( "17  " )
f.write( str(ee) + "\n" )
f.write( MOL.save_string_xyz() )
f.close()
--------------------------------------------------------------------------

    Molecular point group: c1
  Charge       = 0
  Multiplicity = 1
  Basis Set: 6-31G*
  Basis Set:
  @DF-RHF Final Energy:  -344.91461481377507
    Total Energy =                       -344.9146148137749606
    Molecular point group: c1
  Basis Set: 6-31G*
  Basis Set:
  Basis Set: 6-31G*
  Basis Set:
  @DF-RHF Final Energy:  -344.91454395545759
    Total Energy =                       -344.9145439554579298
  Basis Set: 6-31G*
  Basis Set:
  Basis Set: 6-31G*
  Basis Set:
  @DF-RHF Final Energy:  -344.91460753195639
    Total Energy =                       -344.9146075319565625
  Basis Set: 6-31G*
  Basis Set:
  Basis Set: 6-31G*
  Basis Set:
  @DF-RHF Final Energy:  -344.91463493345503
    Total Energy =                       -344.9146349334547494
  Basis Set: 6-31G*
  Basis Set:
  Charge       = 0
  Multiplicity = 1
  Basis Set: 6-31G*
  Basis Set:

    Orbital Energies (a.u.)
    -----------------------

    Doubly Occupied:

       1A    -20.598987     2A    -20.543097     3A    -11.374704
       4A    -11.290328     5A    -11.232432     6A    -11.219401
       7A    -11.215181     8A     -1.465518     9A     -1.361580
      10A     -1.078440    11A     -1.005012    12A     -0.947741
      13A     -0.848559    14A     -0.764647    15A     -0.691861
      16A     -0.670759    17A     -0.658647    18A     -0.613277
      19A     -0.585808    20A     -0.578397    21A     -0.561574
      22A     -0.550380    23A     -0.537703    24A     -0.519715
      25A     -0.501725    26A     -0.482682    27A     -0.447145
      28A     -0.435508

  @DF-RHF Final Energy:  -344.91463503552995

   => Energetics <=

    Nuclear Repulsion Energy =            323.2701876856468743
    One-Electron Energy =               -1110.8080297353690185
    Two-Electron Energy =                 442.6232070141924169
    DFT Exchange-Correlation Energy =       0.0000000000000000
    Empirical Dispersion Energy =           0.0000000000000000
    PCM Polarization Energy =               0.0000000000000000
    EFP Energy =                            0.0000000000000000
    Total Energy =                       -344.9146350355297272
    Molecular point group: c1
  Basis Set: 6-31G*
  Basis Set:

  -Total Gradient:
     Atom            X                  Y                   Z
    ------   -----------------  -----------------  -----------------
       1        0.000005992628     0.000013410919    -0.000011444302
       2        0.000037852777     0.000302897362     0.000489264874
       3        0.000000600929     0.000007065271     0.000004274799
       4       -0.000023724679    -0.000602788038    -0.000735232193
       5       -0.000002004698    -0.000001767564    -0.000002710009
       6        0.000003020627    -0.000000143187    -0.000000732491
       7       -0.000001120987    -0.000004852931    -0.000000268535
       8       -0.000167411624     0.000872179556     0.000472154638
       9       -0.000012153754     0.000002328652    -0.000000690301
      10       -0.000032957377     0.000012058129    -0.000002611905
      11        0.000173612214    -0.000583149881    -0.000216193177
      12        0.000001030238    -0.000003370909     0.000000570679
      13        0.000000743844    -0.000001384149    -0.000000071765
      14        0.000002187661    -0.000000802052     0.000000012254
      15        0.000005053156    -0.000005431138    -0.000001376534
      16        0.000003599031    -0.000005632644     0.000002807601
      17        0.000005680017    -0.000000617395     0.000002246369

  **** Optimization is complete! (in 5 steps) ****
    Final optimized geometry and variables:
    Molecular point group: c1

    Geometry (in Angstrom), charge = 0, multiplicity = 1:

    O           -1.275581801406     1.031570959638    -0.787746482002
    C           -1.202830402905     0.052442333373    -0.116732646432
    C           -2.384515109830    -0.680868878976     0.459263612508
    O           -0.063806513755    -0.537160166205     0.215660092463
    H           -2.385330622091    -1.706697695990     0.109527508186
    H           -3.297689357852    -0.186908966424     0.162541538673
    H           -2.308691022373    -0.703010520604     1.540354998105
    C            1.173056941419     0.029470866408    -0.238917236977
    C            2.184161369777    -1.103209810392    -0.201827548356
    C            1.565129446985     1.203084709233     0.645188512091
    H            1.029806760195     0.364823222735    -1.255961232084
    H            1.860725264111    -1.925425825448    -0.829866744318
    H            3.147677820105    -0.756168477521    -0.560211507394
    H            2.307498793460    -1.474143482357     0.810027183695
    H            2.515007325182     1.613650723688     0.317789481184
    H            0.822438525787     1.988643013120     0.596042792499
    H            1.669978016357     0.881049282941     1.676448174390

  Mulliken Charges: (a.u.)
   Center  Symbol    Alpha    Beta     Spin     Total
       1     O     4.28549  4.28549  0.00000 -0.57099
       2     C     2.61761  2.61761  0.00000  0.76479
       3     C     3.28142  3.28142  0.00000 -0.56284
       4     O     4.31388  4.31388  0.00000 -0.62776
       5     H     0.40075  0.40075  0.00000  0.19851
       6     H     0.39733  0.39733  0.00000  0.20533
       7     H     0.40088  0.40088  0.00000  0.19824
       8     C     2.92661  2.92661  0.00000  0.14679
       9     C     3.24177  3.24177  0.00000 -0.48354
      10     C     3.25209  3.25209  0.00000 -0.50418
      11     H     0.40261  0.40261  0.00000  0.19479
      12     H     0.41200  0.41200  0.00000  0.17601
      13     H     0.41761  0.41761  0.00000  0.16477
      14     H     0.41410  0.41410  0.00000  0.17181
      15     H     0.41817  0.41817  0.00000  0.16367
      16     H     0.40046  0.40046  0.00000  0.19908
      17     H     0.41724  0.41724  0.00000  0.16552

   Total alpha = 28.00000, Total beta = 28.00000, Total charge = -0.00000
