  ==> Input File <==

--------------------------------------------------------------------------
set {
	reference rhf
	basis cc-pvtz
}

set_num_threads( 4 )
memory 2 gb

molecule MOL {
0 1

O	 -1.278239	 1.034789	 -0.784693
C	 -1.204115	 0.062668	 -0.112312
C	 -2.386398	 -0.667698	 0.460323
O	 -0.068058	 -0.518372	 0.226882
H	 -2.382952	 -1.693172	 0.114333
H	 -3.296656	 -0.175702	 0.158400
H	 -2.312537	 -0.685191	 1.540100
C	 1.169086	 0.037484	 -0.230612
C	 0.809746	 1.283139	 -1.015680
C	 1.921094	 -0.989462	 -1.057941
H	 1.754501	 0.301949	 0.636819
H	 0.271168	 1.985820	 -0.392845
H	 1.709499	 1.765983	 -1.377644
H	 0.187815	 1.034351	 -1.867292
H	 2.852508	 -0.566132	 -1.415375
H	 2.152763	 -1.864093	 -0.466333
H	 1.331549	 -1.291299	 -1.916204

	symmetry c1
}
set optking {
	frozen_dihedral = ("
		11 8 4 2
	")
}

ee = optimize('scf')
oeprop('DIPOLE', 'QUADRUPOLE', 'MULLIKEN_CHARGES')
f=open( 'psi4out.xyz', 'w' )
f.write( "17  " )
f.write( str(ee) + "\n" )
f.write( MOL.save_string_xyz() )
f.close()
--------------------------------------------------------------------------

    Molecular point group: c1
  Charge       = 0
  Multiplicity = 1
  Basis Set: CC-PVTZ
  Basis Set:
  @DF-RHF Final Energy:  -344.97639169846661
    Total Energy =                       -344.9763916984663297
    Molecular point group: c1
  Basis Set: CC-PVTZ
  Basis Set:
  Basis Set: CC-PVTZ
  Basis Set:
  @DF-RHF Final Energy:  -345.01676610685405
    Total Energy =                       -345.0167661068537655
  Basis Set: CC-PVTZ
  Basis Set:
  Basis Set: CC-PVTZ
  Basis Set:
  @DF-RHF Final Energy:  -345.02629432220482
    Total Energy =                       -345.0262943222048762
  Basis Set: CC-PVTZ
  Basis Set:
  Basis Set: CC-PVTZ
  Basis Set:
  @DF-RHF Final Energy:  -345.02933312522589
    Total Energy =                       -345.0293331252261169
  Basis Set: CC-PVTZ
  Basis Set:
  @DF-RHF Final Energy:  -345.02716855084930
    Total Energy =                       -345.0271685508499218
  Basis Set: CC-PVTZ
  Basis Set:
  @DF-RHF Final Energy:  -345.03140823411121
    Total Energy =                       -345.0314082341114954
  Basis Set: CC-PVTZ
  Basis Set:
  Basis Set: CC-PVTZ
  Basis Set:
  @DF-RHF Final Energy:  -345.03150361730474
    Total Energy =                       -345.0315036173045655
  Basis Set: CC-PVTZ
  Basis Set:
  Basis Set: CC-PVTZ
  Basis Set:
  @DF-RHF Final Energy:  -345.03150656358804
    Total Energy =                       -345.0315065635879819
  Basis Set: CC-PVTZ
  Basis Set:
  Charge       = 0
  Multiplicity = 1
  Basis Set: CC-PVTZ
  Basis Set:

    Orbital Energies (a.u.)
    -----------------------

    Doubly Occupied:

       1A    -20.587866     2A    -20.526700     3A    -11.367062
       4A    -11.295855     5A    -11.227325     6A    -11.218144
       7A    -11.210654     8A     -1.460730     9A     -1.363563
      10A     -1.081160    11A     -1.002287    12A     -0.946577
      13A     -0.866516    14A     -0.740946    15A     -0.689452
      16A     -0.679631    17A     -0.659468    18A     -0.615107
      19A     -0.585424    20A     -0.579906    21A     -0.562978
      22A     -0.548586    23A     -0.536440    24A     -0.516679
      25A     -0.509392    26A     -0.483653    27A     -0.440078
      28A     -0.431155

  @DF-RHF Final Energy:  -345.03150695441644

   => Energetics <=

    Nuclear Repulsion Energy =            323.9828115208297845
    One-Electron Energy =               -1112.5619661676416854
    Two-Electron Energy =                 443.5476476923955715
    DFT Exchange-Correlation Energy =       0.0000000000000000
    Empirical Dispersion Energy =           0.0000000000000000
    PCM Polarization Energy =               0.0000000000000000
    EFP Energy =                            0.0000000000000000
    Total Energy =                       -345.0315069544163862
    Molecular point group: c1
  Basis Set: CC-PVTZ
  Basis Set:

  -Total Gradient:
     Atom            X                  Y                   Z
    ------   -----------------  -----------------  -----------------
       1        0.000016124178     0.000005988337    -0.000017021009
       2        0.000025759548     0.000251525485     0.000370843806
       3        0.000004998478     0.000011873986     0.000015904440
       4       -0.000096729244    -0.000311492346    -0.000612689183
       5       -0.000003656590    -0.000002177153    -0.000005258993
       6        0.000003186337    -0.000005530884    -0.000002677864
       7        0.000000077809    -0.000008491182     0.000008392854
       8        0.000227210205    -0.000378969945     0.000225014159
       9       -0.000010600208     0.000007329883     0.000016076426
      10       -0.000012665712     0.000000600602     0.000000671967
      11       -0.000155008077     0.000424993728    -0.000002890104
      12       -0.000001336839     0.000003653193    -0.000001834280
      13        0.000001880087     0.000003714572    -0.000000915641
      14       -0.000009175445    -0.000004499393     0.000006432556
      15       -0.000001489252     0.000005508500     0.000000515634
      16        0.000007372328     0.000001441162    -0.000000100237
      17        0.000004052398    -0.000005468547    -0.000000464532

  **** Optimization is complete! (in 9 steps) ****
    Final optimized geometry and variables:
    Molecular point group: c1

    Geometry (in Angstrom), charge = 0, multiplicity = 1:

    O           -1.421430710816     0.937451977904    -0.383558489206
    C           -1.146160028257    -0.010423076882     0.268111544143
    C           -2.168568428468    -0.880293034810     0.951012692268
    O            0.068971089889    -0.466337463281     0.503157710923
    H           -2.072330767285    -1.899724306725     0.600674731923
    H           -3.157574656953    -0.506497702099     0.741094561379
    H           -1.989315025940    -0.881947473661     2.018459725128
    C            1.329340994662     0.083172998437     0.079884192281
    C            1.295549268199     1.370220166434    -0.728523005361
    C            2.051123474969    -1.034043107327    -0.652301018001
    H            1.843809710115     0.285406311507     1.010588074675
    H            0.799429705888     2.169826155788    -0.201885515026
    H            2.326559201226     1.660150241636    -0.901527292870
    H            0.808473032599     1.240532455805    -1.683273829197
    H            3.069876260810    -0.738910251323    -0.873228640072
    H            2.076225998869    -1.931528921862    -0.048378532849
    H            1.550771548796    -1.261760881467    -1.586485453375

  Mulliken Charges: (a.u.)
   Center  Symbol    Alpha    Beta     Spin     Total
       1     O     4.19803  4.19803  0.00000 -0.39606
       2     C     2.80870  2.80870  0.00000  0.38261
       3     C     3.13511  3.13511  0.00000 -0.27023
       4     O     4.16337  4.16337  0.00000 -0.32674
       5     H     0.44674  0.44674  0.00000  0.10653
       6     H     0.43931  0.43931  0.00000  0.12137
       7     H     0.44686  0.44686  0.00000  0.10629
       8     C     2.93957  2.93957  0.00000  0.12087
       9     C     3.15257  3.15257  0.00000 -0.30514
      10     C     3.14047  3.14047  0.00000 -0.28094
      11     H     0.44597  0.44597  0.00000  0.10807
      12     H     0.43749  0.43749  0.00000  0.12502
      13     H     0.45249  0.45249  0.00000  0.09502
      14     H     0.44205  0.44205  0.00000  0.11591
      15     H     0.45358  0.45358  0.00000  0.09285
      16     H     0.44564  0.44564  0.00000  0.10872
      17     H     0.45206  0.45206  0.00000  0.09587

   Total alpha = 28.00000, Total beta = 28.00000, Total charge = -0.00000
