  ==> Input File <==

--------------------------------------------------------------------------
set {
	reference rhf
	basis 6-31G*
}

set_num_threads( 1 )
memory 2 gb

molecule MOL {
0 1

O	 3.768508	 -0.132261	 0.691784
C	 2.843464	 0.164689	 -0.000222
C	 1.546494	 -0.624492	 -0.000609
C	 2.905369	 1.358728	 -0.930595
C	 0.291004	 0.242674	 0.000989
H	 1.557904	 -1.283758	 -0.867573
H	 1.558622	 -1.285963	 0.864672
C	 -0.994322	 -0.586602	 0.000262
H	 0.309117	 0.896430	 -0.865270
H	 0.309661	 0.894078	 0.869017
C	 -2.259874	 0.272531	 0.000494
H	 -1.004862	 -1.240012	 -0.870939
H	 -1.005220	 -1.241071	 0.870675
C	 -3.549786	 -0.549746	 -0.000374
H	 -2.250389	 0.926680	 -0.869574
H	 -2.250838	 0.925513	 0.871430
C	 -4.809590	 0.315458	 -0.000369
H	 -3.560515	 -1.202009	 -0.871156
H	 -3.561123	 -1.202955	 0.869711
H	 -4.844746	 0.956611	 -0.876632
H	 -5.706986	 -0.295590	 -0.001609
H	 -4.845960	 0.954827	 0.877144
H	 2.121619	 2.070065	 -0.686968
H	 3.869540	 1.839901	 -0.842952
H	 2.748436	 1.046115	 -1.958836

	symmetry c1
}
set optking {
	frozen_dihedral = ("
		9 5 8 12,
		15 11 8 12,
		15 11 14 18,
		9 5 3 6
	")
}

ee = energy('scf')
oeprop('DIPOLE', 'QUADRUPOLE', 'MULLIKEN_CHARGES')
f=open( 'psi4out.xyz', 'w' )
f.write( "25  " )
f.write( str(ee) + "\n" )
f.write( MOL.save_string_xyz() )
f.close()
--------------------------------------------------------------------------

    Molecular point group: c1

    Geometry (in Angstrom), charge = 0, multiplicity = 1:

       Center              X                  Y                   Z               Mass
    ------------   -----------------  -----------------  -----------------  -----------------
           O          3.805467204169    -0.193015135079     0.720009251144    15.994914619560
           C          2.880423204169     0.103934864921     0.028003251144    12.000000000000
           C          1.583453204169    -0.685246135079     0.027616251144    12.000000000000
           C          2.942328204169     1.297973864921    -0.902369748856    12.000000000000
           C          0.327963204169     0.181919864921     0.029214251144    12.000000000000
           H          1.594863204169    -1.344512135079    -0.839347748856     1.007825032070
           H          1.595581204169    -1.346717135079     0.892897251144     1.007825032070
           C         -0.957362795831    -0.647356135079     0.028487251144    12.000000000000
           H          0.346076204169     0.835675864921    -0.837044748856     1.007825032070
           H          0.346620204169     0.833323864921     0.897242251144     1.007825032070
           C         -2.222914795831     0.211776864921     0.028719251144    12.000000000000
           H         -0.967902795831    -1.300766135079    -0.842713748856     1.007825032070
           H         -0.968260795831    -1.301825135079     0.898900251144     1.007825032070
           C         -3.512826795831    -0.610500135079     0.027851251144    12.000000000000
           H         -2.213429795831     0.865925864921    -0.841348748856     1.007825032070
           H         -2.213878795831     0.864758864921     0.899655251144     1.007825032070
           C         -4.772630795831     0.254703864921     0.027856251144    12.000000000000
           H         -3.523555795831    -1.262763135079    -0.842930748856     1.007825032070
           H         -3.524163795831    -1.263709135079     0.897936251144     1.007825032070
           H         -4.807786795831     0.895856864921    -0.848406748856     1.007825032070
           H         -5.670026795831    -0.356344135079     0.026616251144     1.007825032070
           H         -4.809000795831     0.894072864921     0.905369251144     1.007825032070
           H          2.158578204169     2.009310864921    -0.658742748856     1.007825032070
           H          3.906499204169     1.779146864921    -0.814726748856     1.007825032070
           H          2.785395204169     0.985360864921    -1.930610748856     1.007825032070

  Charge       = 0
  Multiplicity = 1
  Basis Set: 6-31G*
  Basis Set:

    Orbital Energies (a.u.)
    -----------------------

    Doubly Occupied:

       1A    -20.548247     2A    -11.324839     3A    -11.231627
       4A    -11.229927     5A    -11.226378     6A    -11.224868
       7A    -11.220803     8A    -11.220170     9A    -11.212712
      10A     -1.393205    11A     -1.103433    12A     -1.063344
      13A     -1.010851    14A     -0.970353    15A     -0.897805
      16A     -0.823090    17A     -0.798047    18A     -0.732251
      19A     -0.668215    20A     -0.649627    21A     -0.637145
      22A     -0.619821    23A     -0.602474    24A     -0.589537
      25A     -0.564403    26A     -0.559411    27A     -0.546159
      28A     -0.534771    29A     -0.515220    30A     -0.500781
      31A     -0.487279    32A     -0.478059    33A     -0.470133
      34A     -0.469049    35A     -0.458621    36A     -0.395878

  @DF-RHF Final Energy:  -387.13232685192469

   => Energetics <=

    Nuclear Repulsion Energy =            439.9963759224304454
    One-Electron Energy =               -1396.3002704041534798
    Two-Electron Energy =                 569.1715676297997106
    DFT Exchange-Correlation Energy =       0.0000000000000000
    Empirical Dispersion Energy =           0.0000000000000000
    PCM Polarization Energy =               0.0000000000000000
    EFP Energy =                            0.0000000000000000
    Total Energy =                       -387.1323268519233807

  Mulliken Charges: (a.u.)
   Center  Symbol    Alpha    Beta     Spin     Total
       1     O     4.26199  4.26199  0.00000 -0.52397
       2     C     2.72904  2.72904  0.00000  0.54191
       3     C     3.20736  3.20736  0.00000 -0.41471
       4     C     3.29433  3.29433  0.00000 -0.58866
       5     C     3.16633  3.16633  0.00000 -0.33266
       6     H     0.40834  0.40834  0.00000  0.18333
       7     H     0.39994  0.39994  0.00000  0.20011
       8     C     3.15200  3.15200  0.00000 -0.30399
       9     H     0.41802  0.41802  0.00000  0.16397
      10     H     0.41524  0.41524  0.00000  0.16951
      11     C     3.15135  3.15135  0.00000 -0.30271
      12     H     0.42187  0.42187  0.00000  0.15626
      13     H     0.41949  0.41949  0.00000  0.16102
      14     C     3.15204  3.15204  0.00000 -0.30408
      15     H     0.42376  0.42376  0.00000  0.15248
      16     H     0.42261  0.42261  0.00000  0.15477
      17     C     3.23958  3.23958  0.00000 -0.47915
      18     H     0.42264  0.42264  0.00000  0.15472
      19     H     0.42194  0.42194  0.00000  0.15612
      20     H     0.42163  0.42163  0.00000  0.15673
      21     H     0.41832  0.41832  0.00000  0.16336
      22     H     0.42118  0.42118  0.00000  0.15763
      23     H     0.40559  0.40559  0.00000  0.18882
      24     H     0.39627  0.39627  0.00000  0.20746
      25     H     0.40914  0.40914  0.00000  0.18171

   Total alpha = 36.00000, Total beta = 36.00000, Total charge = -0.00000
