  ==> Input File <==

--------------------------------------------------------------------------
set {
	reference rhf
	basis 6-31G*
}

set_num_threads( 4 )
memory 2 gb

molecule MOL {
0 1

H	 -4.363321	 -1.031888	 -0.653467
C	 -3.499960	 -0.777897	 -0.069723
C	 -2.301078	 -1.090015	 -0.504770
H	 -3.643685	 -0.269373	 0.864973
O	 -1.180634	 -0.819263	 0.215062
H	 -2.135314	 -1.592742	 -1.441244
C	 0.051604	 -1.018856	 -0.387932
C	 1.043764	 0.054862	 -0.001873
H	 -0.017620	 -1.041351	 -1.469781
H	 0.437898	 -1.966374	 -0.042284
F	 2.212596	 -0.199467	 -0.571921
F	 0.652529	 1.252447	 -0.405055
F	 1.230877	 0.110694	 1.300533

	symmetry c1
}
set optking {
	frozen_dihedral = ("
		3 5 7 9
	")
}

ee = optimize('scf')
oeprop('DIPOLE', 'QUADRUPOLE', 'MULLIKEN_CHARGES')
f=open( 'psi4out.xyz', 'w' )
f.write( "13  " )
f.write( str(ee) + "\n" )
f.write( MOL.save_string_xyz() )
f.close()
--------------------------------------------------------------------------

    Molecular point group: c1
  Charge       = 0
  Multiplicity = 1
  Basis Set: 6-31G*
  Basis Set:
  @DF-RHF Final Energy:  -527.53294220384328
    Total Energy =                       -527.5329422038435041
    Molecular point group: c1
  Basis Set: 6-31G*
  Basis Set:
  Basis Set: 6-31G*
  Basis Set:
  @DF-RHF Final Energy:  -527.53374731771737
    Total Energy =                       -527.5337473177175980
  Basis Set: 6-31G*
  Basis Set:
  Basis Set: 6-31G*
  Basis Set:
  @DF-RHF Final Energy:  -527.53397609863896
    Total Energy =                       -527.5339760986393003
  Basis Set: 6-31G*
  Basis Set:
  Basis Set: 6-31G*
  Basis Set:
  @DF-RHF Final Energy:  -527.53404347893979
    Total Energy =                       -527.5340434789396795
  Basis Set: 6-31G*
  Basis Set:
  @DF-RHF Final Energy:  -527.53424145777456
    Total Energy =                       -527.5342414577748968
  @DF-RHF Final Energy:  -527.53430114157550
    Total Energy =                       -527.5343011415751562
  Basis Set: 6-31G*
  Basis Set:
  @DF-RHF Final Energy:  -527.53437522736272
    Total Energy =                       -527.5343752273624887
  Basis Set: 6-31G*
  Basis Set:
  Basis Set: 6-31G*
  Basis Set:
  @DF-RHF Final Energy:  -527.53438283798403
    Total Energy =                       -527.5343828379839124
  Basis Set: 6-31G*
  Basis Set:
  Basis Set: 6-31G*
  Basis Set:
  @DF-RHF Final Energy:  -527.53438450703595
    Total Energy =                       -527.5343845070360658
  Basis Set: 6-31G*
  Basis Set:
  Charge       = 0
  Multiplicity = 1
  Basis Set: 6-31G*
  Basis Set:

    Orbital Energies (a.u.)
    -----------------------

    Doubly Occupied:

       1A    -26.342310     2A    -26.339011     3A    -26.338284
       4A    -20.607179     5A    -11.502342     6A    -11.318424
       7A    -11.302087     8A    -11.219714     9A     -1.739265
      10A     -1.637101    11A     -1.635546    12A     -1.438162
      13A     -1.087092    14A     -1.015533    15A     -0.922905
      16A     -0.836812    17A     -0.829074    18A     -0.808004
      19A     -0.798555    20A     -0.724019    21A     -0.710936
      22A     -0.698325    23A     -0.677181    24A     -0.656428
      25A     -0.652265    26A     -0.640045    27A     -0.630794
      28A     -0.588609    29A     -0.562172    30A     -0.527777
      31A     -0.506651    32A     -0.355991

  @DF-RHF Final Energy:  -527.53438471715970

   => Energetics <=

    Nuclear Repulsion Energy =            407.5889537942990728
    One-Electron Energy =               -1538.9494948944145563
    Two-Electron Energy =                 603.8261563829561283
    DFT Exchange-Correlation Energy =       0.0000000000000000
    Empirical Dispersion Energy =           0.0000000000000000
    PCM Polarization Energy =               0.0000000000000000
    EFP Energy =                            0.0000000000000000
    Total Energy =                       -527.5343847171592415
    Molecular point group: c1
  Basis Set: 6-31G*
  Basis Set:

  -Total Gradient:
     Atom            X                  Y                   Z
    ------   -----------------  -----------------  -----------------
       1        0.000005816080     0.000005659272    -0.000001335336
       2        0.000016233290     0.000001774775     0.000011009492
       3        0.000049017521     0.000284916907    -0.000183120325
       4       -0.000008602739    -0.000000230561     0.000002338710
       5       -0.000107163046    -0.000538415431     0.000276162150
       6       -0.000001914222     0.000004044058     0.000004755973
       7        0.000186148749     0.000624752594    -0.000198863676
       8       -0.000042216277     0.000012697754    -0.000015081059
       9       -0.000111580423    -0.000388248893     0.000075288014
      10        0.000001242504     0.000006166167     0.000006053817
      11       -0.000004690791    -0.000004878692     0.000005121655
      12        0.000009669616    -0.000012874085     0.000014034424
      13        0.000008039738     0.000004636137     0.000003636162

  **** Optimization is complete! (in 10 steps) ****
    Final optimized geometry and variables:
    Molecular point group: c1

    Geometry (in Angstrom), charge = 0, multiplicity = 1:

    H           -4.311132174758    -0.847955752878    -0.572007666440
    C           -3.453805036098    -0.693439516779     0.054195035443
    C           -2.255594851644    -0.628956569785    -0.479516717041
    H           -3.604365935643    -0.576828062285     1.110964694385
    O           -1.146949274461    -0.375207764377     0.259272886644
    H           -2.083840829820    -0.741240654569    -1.536703270228
    C            0.077600698382    -0.814028565132    -0.226599743323
    C            1.107778989088     0.259281861585     0.025227040035
    H            0.052162847636    -1.004817806753    -1.292856582272
    H            0.393107660799    -1.716795389517     0.282151225144
    F            2.289274503944    -0.158340676669    -0.407647524801
    F            0.815951599472     1.375619954705    -0.614485597687
    F            1.224739234986     0.543553610401     1.306233458056

  Mulliken Charges: (a.u.)
   Center  Symbol    Alpha    Beta     Spin     Total
       1     H     0.40695  0.40695  0.00000  0.18610
       2     C     3.23299  3.23299  0.00000 -0.46597
       3     C     2.89871  2.89871  0.00000  0.20258
       4     H     0.40083  0.40083  0.00000  0.19834
       5     O     4.30383  4.30383  0.00000 -0.60767
       6     H     0.40772  0.40772  0.00000  0.18455
       7     C     3.05063  3.05063  0.00000 -0.10126
       8     C     2.45280  2.45280  0.00000  1.09439
       9     H     0.40743  0.40743  0.00000  0.18515
      10     H     0.40013  0.40013  0.00000  0.19975
      11     F     4.68448  4.68448  0.00000 -0.36896
      12     F     4.67780  4.67780  0.00000 -0.35559
      13     F     4.67570  4.67570  0.00000 -0.35140

   Total alpha = 32.00000, Total beta = 32.00000, Total charge =  0.00000
