  ==> Input File <==

--------------------------------------------------------------------------
set {
	reference rhf
	basis cc-pvtz
}

set_num_threads( 4 )
memory 2 gb

molecule MOL {
0 1

H	 -2.394293	 1.029529	 -1.095260
C	 -1.543962	 1.693996	 -1.170370
C	 -0.241522	 0.910308	 -1.218309
H	 -1.568994	 2.353264	 -0.313075
H	 -1.655349	 2.292881	 -2.066379
C	 0.000000	 0.039916	 0.000014
H	 0.608634	 1.579709	 -1.318482
H	 -0.209451	 0.267486	 -2.093891
C	 1.286532	 -0.763243	 0.000268
O	 -0.772584	 -0.009758	 0.900584
C	 2.547023	 0.087626	 -0.000114
H	 1.264245	 -1.421103	 -0.864380
H	 1.264290	 -1.420353	 0.865489
H	 2.584452	 0.725630	 -0.872909
H	 3.427035	 -0.544422	 0.000125
H	 2.584484	 0.726356	 0.872143

	symmetry c1
}
set optking {
	frozen_dihedral = ("
		3 6 9 12
	")
}

ee = optimize('scf')
oeprop('DIPOLE', 'QUADRUPOLE', 'MULLIKEN_CHARGES')
f=open( 'psi4out.xyz', 'w' )
f.write( "16  " )
f.write( str(ee) + "\n" )
f.write( MOL.save_string_xyz() )
f.close()
--------------------------------------------------------------------------

    Molecular point group: c1
  Charge       = 0
  Multiplicity = 1
  Basis Set: CC-PVTZ
  Basis Set:
  @DF-RHF Final Energy:  -270.12845024186367
    Total Energy =                       -270.1284502418640159
    Molecular point group: c1
  Basis Set: CC-PVTZ
  Basis Set:
  Basis Set: CC-PVTZ
  Basis Set:
  @DF-RHF Final Energy:  -270.12879185247539
    Total Energy =                       -270.1287918524755014
  Basis Set: CC-PVTZ
  Basis Set:
  Basis Set: CC-PVTZ
  Basis Set:
  @DF-RHF Final Energy:  -270.12764880648695
    Total Energy =                       -270.1276488064870591
  Basis Set: CC-PVTZ
  Basis Set:
  Basis Set: CC-PVTZ
  Basis Set:
  @DF-RHF Final Energy:  -270.12912152607123
    Total Energy =                       -270.1291215260712306
  Basis Set: CC-PVTZ
  Basis Set:
  Basis Set: CC-PVTZ
  Basis Set:
  @DF-RHF Final Energy:  -270.12915470538434
    Total Energy =                       -270.1291547053845647
  Basis Set: CC-PVTZ
  Basis Set:
  Basis Set: CC-PVTZ
  Basis Set:
  @DF-RHF Final Energy:  -270.12916006008970
    Total Energy =                       -270.1291600600897596
  Basis Set: CC-PVTZ
  Basis Set:
  Basis Set: CC-PVTZ
  Basis Set:
  @DF-RHF Final Energy:  -270.12916194750716
    Total Energy =                       -270.1291619475069865
  Basis Set: CC-PVTZ
  Basis Set:
  Charge       = 0
  Multiplicity = 1
  Basis Set: CC-PVTZ
  Basis Set:

    Orbital Energies (a.u.)
    -----------------------

    Doubly Occupied:

       1A    -20.538173     2A    -11.317105     3A    -11.231895
       4A    -11.230913     5A    -11.227534     6A    -11.211502
       7A     -1.397835     8A     -1.073551     9A     -1.036387
      10A     -0.910373    11A     -0.862478    12A     -0.726024
      13A     -0.663942    14A     -0.638926    15A     -0.634563
      16A     -0.608263    17A     -0.559560    18A     -0.544256
      19A     -0.534846    20A     -0.511211    21A     -0.506064
      22A     -0.495362    23A     -0.484123    24A     -0.398779

  @DF-RHF Final Energy:  -270.12916206767568

   => Energetics <=

    Nuclear Repulsion Energy =            240.8511772962909561
    One-Electron Energy =                -843.2733414476887219
    Two-Electron Energy =                 332.2930020837221150
    DFT Exchange-Correlation Energy =       0.0000000000000000
    Empirical Dispersion Energy =           0.0000000000000000
    PCM Polarization Energy =               0.0000000000000000
    EFP Energy =                            0.0000000000000000
    Total Energy =                       -270.1291620676756224
    Molecular point group: c1
  Basis Set: CC-PVTZ
  Basis Set:

  -Total Gradient:
     Atom            X                  Y                   Z
    ------   -----------------  -----------------  -----------------
       1       -0.000003985633     0.000001415032     0.000000896744
       2       -0.000000980519    -0.000005375169    -0.000002818287
       3        0.000071995186     0.000104563206     0.000084496233
       4        0.000000242140     0.000000634918     0.000001507023
       5        0.000001585603    -0.000000799087     0.000001719447
       6       -0.000108838879    -0.000183962791    -0.000087288023
       7        0.000003256034    -0.000001311627    -0.000000043435
       8        0.000001439099    -0.000002420813    -0.000001944864
       9        0.000127851795     0.000208687416    -0.000104008914
      10       -0.000018318312     0.000004563739     0.000005170213
      11        0.000025853918     0.000011112449     0.000004684055
      12       -0.000083091216    -0.000134279835     0.000103218401
      13       -0.000003177895     0.000002685197    -0.000001832563
      14       -0.000007839728    -0.000001733397    -0.000000472916
      15       -0.000006897460    -0.000002299044     0.000001113662
      16        0.000000905864    -0.000001480194    -0.000004396778

  **** Optimization is complete! (in 8 steps) ****
    Final optimized geometry and variables:
    Molecular point group: c1

    Geometry (in Angstrom), charge = 0, multiplicity = 1:

    H           -2.602729993980     0.570669749341    -0.943287181445
    C           -1.806534017362     1.303603948454    -0.944839794559
    C           -0.442836094996     0.629597541305    -0.947531579145
    H           -1.931198981081     1.921773488977    -0.066552603565
    H           -1.918543022835     1.927749714712    -1.823401764827
    C           -0.197943275322    -0.261516139435     0.255552141273
    H            0.347190896871     1.374436070812    -0.969929597307
    H           -0.305489147420     0.031584997791    -1.844160856669
    C            1.052982422809    -1.120829315783     0.249129379348
    O           -0.955144959886    -0.294328636456     1.170779519696
    C            2.357337155950    -0.321016060896     0.206551236274
    H            1.005963425819    -1.783208744617    -0.610585217424
    H            1.017579651973    -1.732553254026     1.139471208231
    H            2.464360228625     0.234593039741    -0.716506713651
    H            3.204362798344    -0.990514135789     0.285933636912
    H            2.410998050177     0.380012931794     1.031513660453

  Mulliken Charges: (a.u.)
   Center  Symbol    Alpha    Beta     Spin     Total
       1     H     0.44918  0.44918  0.00000  0.10163
       2     C     3.14109  3.14109  0.00000 -0.28218
       3     C     3.10839  3.10839  0.00000 -0.21677
       4     H     0.44594  0.44594  0.00000  0.10812
       5     H     0.45092  0.45092  0.00000  0.09816
       6     C     2.86294  2.86294  0.00000  0.27412
       7     H     0.44426  0.44426  0.00000  0.11148
       8     H     0.44513  0.44513  0.00000  0.10973
       9     C     3.09493  3.09493  0.00000 -0.18985
      10     O     4.17250  4.17250  0.00000 -0.34500
      11     C     3.15644  3.15644  0.00000 -0.31289
      12     H     0.44994  0.44994  0.00000  0.10012
      13     H     0.43676  0.43676  0.00000  0.12649
      14     H     0.45243  0.45243  0.00000  0.09513
      15     H     0.44238  0.44238  0.00000  0.11524
      16     H     0.44677  0.44677  0.00000  0.10647

   Total alpha = 24.00000, Total beta = 24.00000, Total charge = -0.00000
