  ==> Input File <==

--------------------------------------------------------------------------
set {
	reference rhf
	basis 6-31G*
}

set_num_threads( 4 )
memory 2 gb

molecule MOL {
0 1

H	 -0.000158	 1.970498	 0.756846
O	 -0.000074	 1.880206	 -0.189275
C	 -0.000015	 0.544847	 -0.545111
C	 -1.278788	 -0.123820	 -0.051541
C	 1.278802	 -0.123718	 -0.051505
H	 -0.000001	 0.490777	 -1.623619
F	 -2.075353	 -0.361844	 -1.071528
F	 -1.041544	 -1.267243	 0.555631
F	 -1.926607	 0.664448	 0.791407
F	 2.323327	 0.466644	 -0.591854
F	 1.326242	 -1.401483	 -0.363667
F	 1.388946	 -0.015632	 1.262939

	symmetry c1
}
set optking {
	frozen_dihedral = ("
		7 4 3 6
	")
}

ee = optimize('scf')
oeprop('DIPOLE', 'QUADRUPOLE', 'MULLIKEN_CHARGES')
f=open( 'psi4out.xyz', 'w' )
f.write( "12  " )
f.write( str(ee) + "\n" )
f.write( MOL.save_string_xyz() )
f.close()
--------------------------------------------------------------------------

    Molecular point group: c1
  Charge       = 0
  Multiplicity = 1
  Basis Set: 6-31G*
  Basis Set:
  @DF-RHF Final Energy:  -786.27150334641408
    Total Energy =                       -786.2715033464144199
    Molecular point group: c1
  Basis Set: 6-31G*
  Basis Set:
  Basis Set: 6-31G*
  Basis Set:
  @DF-RHF Final Energy:  -786.27202557138264
    Total Energy =                       -786.2720255713821871
  Basis Set: 6-31G*
  Basis Set:
  Basis Set: 6-31G*
  Basis Set:
  @DF-RHF Final Energy:  -786.27270264997230
    Total Energy =                       -786.2727026499725298
  Basis Set: 6-31G*
  Basis Set:
  Basis Set: 6-31G*
  Basis Set:
  @DF-RHF Final Energy:  -786.27275388198859
    Total Energy =                       -786.2727538819885922
  Basis Set: 6-31G*
  Basis Set:
  Basis Set: 6-31G*
  Basis Set:
  @DF-RHF Final Energy:  -786.27276595117871
    Total Energy =                       -786.2727659511788261
  Basis Set: 6-31G*
  Basis Set:
  Basis Set: 6-31G*
  Basis Set:
  @DF-RHF Final Energy:  -786.27276732010432
    Total Energy =                       -786.2727673201045491
  Basis Set: 6-31G*
  Basis Set:
  Charge       = 0
  Multiplicity = 1
  Basis Set: 6-31G*
  Basis Set:

    Orbital Energies (a.u.)
    -----------------------

    Doubly Occupied:

       1A    -26.365720     2A    -26.361040     3A    -26.360978
       4A    -26.360249     5A    -26.359350     6A    -26.355799
       7A    -20.615125     8A    -11.529449     9A    -11.523235
      10A    -11.349381    11A     -1.765466    12A     -1.757702
      13A     -1.661704    14A     -1.658439    15A     -1.657424
      16A     -1.652862    17A     -1.433589    18A     -1.098769
      19A     -0.996299    20A     -0.937057    21A     -0.866214
      22A     -0.859575    23A     -0.851236    24A     -0.845772
      25A     -0.833738    26A     -0.814019    27A     -0.733982
      28A     -0.730918    29A     -0.726813    30A     -0.722770
      31A     -0.687601    32A     -0.685399    33A     -0.681692
      34A     -0.677206    35A     -0.667702    36A     -0.662190
      37A     -0.656038    38A     -0.649235    39A     -0.618128
      40A     -0.550326    41A     -0.504647

  @DF-RHF Final Energy:  -786.27276753684907

   => Energetics <=

    Nuclear Repulsion Energy =            669.1084919198070793
    One-Electron Energy =               -2425.1128422052029237
    Two-Electron Energy =                 969.7315827485467707
    DFT Exchange-Correlation Energy =       0.0000000000000000
    Empirical Dispersion Energy =           0.0000000000000000
    PCM Polarization Energy =               0.0000000000000000
    EFP Energy =                            0.0000000000000000
    Total Energy =                       -786.2727675368491873
    Molecular point group: c1
  Basis Set: 6-31G*
  Basis Set:

  -Total Gradient:
     Atom            X                  Y                   Z
    ------   -----------------  -----------------  -----------------
       1       -0.000000284366    -0.000008770041     0.000005309092
       2        0.000002366519     0.000026450959    -0.000006148241
       3        0.002123691482    -0.004129132064     0.000075364406
       4       -0.001703505098     0.003683492928     0.000380120381
       5        0.000017756931    -0.000013925314     0.000018475275
       6       -0.001497222866     0.002818523191    -0.000144987657
       7        0.001089835377    -0.002396996918    -0.000325950594
       8       -0.000047831287     0.000001177161     0.000002025874
       9       -0.000011443793     0.000007998568     0.000009117519
      10       -0.000020534522     0.000007955271    -0.000002786028
      11        0.000027591768    -0.000018489944    -0.000025231292
      12        0.000019579856     0.000021716197     0.000014691266

  **** Optimization is complete! (in 7 steps) ****
    Final optimized geometry and variables:
    Molecular point group: c1

    Geometry (in Angstrom), charge = 0, multiplicity = 1:

    H           -0.073236331898     2.032207898304     0.696758264145
    O            0.041983026635     1.898181196711    -0.235961479360
    C            0.011860633426     0.552473682972    -0.547200669060
    C           -1.285421943072    -0.115279167906    -0.035964985448
    C            1.282676632105    -0.126518261357    -0.052146456400
    H            0.001253767169     0.492551736022    -1.624364367008
    F           -2.100980472275    -0.358191913012    -1.042881777003
    F           -1.063961172122    -1.264626576815     0.572440160505
    F           -1.911647441302     0.667055999747     0.821721601503
    F            2.336215653982     0.500723010833    -0.528478119366
    F            1.349901132669    -1.382685918163    -0.442512831331
    F            1.353187430576    -0.090535454085     1.268859925828

  Mulliken Charges: (a.u.)
   Center  Symbol    Alpha    Beta     Spin     Total
       1     H     0.26640  0.26640  0.00000  0.46720
       2     O     4.36047  4.36047  0.00000 -0.72094
       3     C     3.06982  3.06982  0.00000 -0.13963
       4     C     2.43349  2.43349  0.00000  1.13303
       5     C     2.43670  2.43670  0.00000  1.12661
       6     H     0.37090  0.37090  0.00000  0.25819
       7     F     4.67706  4.67706  0.00000 -0.35411
       8     F     4.67424  4.67424  0.00000 -0.34849
       9     F     4.67741  4.67741  0.00000 -0.35482
      10     F     4.67485  4.67485  0.00000 -0.34971
      11     F     4.67645  4.67645  0.00000 -0.35291
      12     F     4.68221  4.68221  0.00000 -0.36442

   Total alpha = 41.00000, Total beta = 41.00000, Total charge =  0.00000
