  ==> Input File <==

--------------------------------------------------------------------------
set {
	reference rhf
	basis cc-pvtz
}

set_num_threads( 4 )
memory 2 gb

molecule MOL {
0 1

H	 2.587682	 -0.739888	 1.085652
N	 1.610839	 -0.543969	 1.103063
C	 0.845149	 -1.727608	 0.767564
C	 1.294714	 0.562363	 0.222190
H	 1.091693	 -2.518526	 1.465430
H	 1.061275	 -2.089114	 -0.239521
C	 -0.636691	 -1.412524	 0.862152
H	 1.867023	 1.430811	 0.524866
H	 1.539244	 0.345538	 -0.819352
C	 -0.187715	 0.874447	 0.317493
H	 -0.889226	 -1.200812	 1.905222
H	 -1.210781	 -2.278592	 0.554798
N	 -0.976577	 -0.298712	 -0.000000
H	 -0.437167	 1.662002	 -0.383684
H	 -0.409319	 1.243711	 1.323041
C	 -2.391156	 -0.021003	 -0.000000
H	 -2.853954	 -0.458728	 -0.875714
H	 -2.853954	 -0.458728	 0.875714
H	 -2.614037	 1.049773	 -0.000000

	symmetry c1
}
set optking {
	frozen_dihedral = ("
		7 13 16 19
	")
}

ee = optimize('scf')
oeprop('DIPOLE', 'QUADRUPOLE', 'MULLIKEN_CHARGES')
f=open( 'psi4out.xyz', 'w' )
f.write( "19  " )
f.write( str(ee) + "\n" )
f.write( MOL.save_string_xyz() )
f.close()
--------------------------------------------------------------------------

    Molecular point group: c1
  Charge       = 0
  Multiplicity = 1
  Basis Set: CC-PVTZ
  Basis Set:
  @DF-RHF Final Energy:  -305.30327047092692
    Total Energy =                       -305.3032704709271457
    Molecular point group: c1
  Basis Set: CC-PVTZ
  Basis Set:
  Basis Set: CC-PVTZ
  Basis Set:
  @DF-RHF Final Energy:  -305.30392239615048
    Total Energy =                       -305.3039223961507673
  Basis Set: CC-PVTZ
  Basis Set:
  Basis Set: CC-PVTZ
  Basis Set:
  @DF-RHF Final Energy:  -305.30402119730917
    Total Energy =                       -305.3040211973086002
  Basis Set: CC-PVTZ
  Basis Set:
  Charge       = 0
  Multiplicity = 1
  Basis Set: CC-PVTZ
  Basis Set:

    Orbital Energies (a.u.)
    -----------------------

    Doubly Occupied:

       1A    -15.534740     2A    -15.530696     3A    -11.236640
       4A    -11.236610     5A    -11.235733     6A    -11.235594
       7A    -11.232933     8A     -1.246918     9A     -1.185805
      10A     -1.023336    11A     -0.964956    12A     -0.860955
      13A     -0.859071    14A     -0.757667    15A     -0.692124
      16A     -0.632194    17A     -0.624536    18A     -0.607626
      19A     -0.605248    20A     -0.581421    21A     -0.543700
      22A     -0.535168    23A     -0.511856    24A     -0.488576
      25A     -0.466273    26A     -0.457284    27A     -0.365456
      28A     -0.345062

  @DF-RHF Final Energy:  -305.30402331048487

   => Energetics <=

    Nuclear Repulsion Energy =            339.9093447737703286
    One-Electron Energy =               -1087.2303766302243275
    Two-Electron Energy =                 442.0170085459693610
    DFT Exchange-Correlation Energy =       0.0000000000000000
    Empirical Dispersion Energy =           0.0000000000000000
    PCM Polarization Energy =               0.0000000000000000
    EFP Energy =                            0.0000000000000000
    Total Energy =                       -305.3040233104846948
    Molecular point group: c1
  Basis Set: CC-PVTZ
  Basis Set:

  -Total Gradient:
     Atom            X                  Y                   Z
    ------   -----------------  -----------------  -----------------
       1       -0.000024348574     0.000010419506    -0.000009533778
       2       -0.000027732546     0.000000390942     0.000000331410
       3        0.000023934789     0.000010688324    -0.000077948163
       4        0.000048204431     0.000089526294     0.000062765743
       5       -0.000002862966     0.000008177932     0.000001210015
       6        0.000018133202    -0.000015362877    -0.000010911969
       7        0.000279638567     0.001897975153     0.002238742345
       8        0.000078801552     0.000001847842     0.000008406813
       9       -0.000033214970    -0.000004172422     0.000034163788
      10        0.000060776912    -0.000105065568    -0.000076074920
      11       -0.000025817868     0.000008417632     0.000005516636
      12        0.000000100342     0.000024712774    -0.000010880892
      13       -0.000526257983    -0.002536862052    -0.001967763953
      14        0.000008308321    -0.000023950742     0.000010681189
      15        0.000028351338    -0.000004279645    -0.000020627673
      16        0.000197148324     0.000711547613    -0.003967691492
      17       -0.000024631823    -0.000002965332    -0.000030749817
      18        0.000004793196    -0.000008646476    -0.000004060659
      19       -0.000083324244    -0.000062398897     0.003814425377

  **** Optimization is complete! (in 4 steps) ****
    Final optimized geometry and variables:
    Molecular point group: c1

    Geometry (in Angstrom), charge = 0, multiplicity = 1:

    H            2.666155767481    -0.378190129379     0.603696651529
    N            1.689614714486    -0.181392251477     0.629636060561
    C            0.919519261276    -1.362276866407     0.295885930633
    C            1.367526066481     0.928368262226    -0.244261272431
    H            1.166497707495    -2.155026863276     0.991787597221
    H            1.129667633442    -1.723417133531    -0.712689545510
    C           -0.560554929264    -1.042200683040     0.398349009640
    H            1.942651539753     1.795588944125     0.057388524109
    H            1.604173780341     0.715181731163    -1.288479956782
    C           -0.114240086683     1.242355590105    -0.140133837145
    H           -0.807511481477    -0.827241495519     1.441727420893
    H           -1.137176086274    -1.909385181193     0.097364054857
    N           -0.905976561794     0.070601535814    -0.463300280413
    H           -0.360114600875     2.033122088906    -0.838128329520
    H           -0.328133748664     1.609506493219     0.867825984650
    C           -2.334437154209     0.331244584735    -0.485145587696
    H           -2.802164120426    -0.109071869674    -1.358230568754
    H           -2.832029949997    -0.068207081246     0.397284828471
    H           -2.531204407870     1.395698209209    -0.483338636833

  Mulliken Charges: (a.u.)
   Center  Symbol    Alpha    Beta     Spin     Total
       1     H     0.44001  0.44001  0.00000  0.11998
       2     N     3.64283  3.64283  0.00000 -0.28565
       3     C     3.04183  3.04183  0.00000 -0.08365
       4     C     3.04205  3.04205  0.00000 -0.08410
       5     H     0.45269  0.45269  0.00000  0.09462
       6     H     0.46572  0.46572  0.00000  0.06855
       7     C     3.03553  3.03553  0.00000 -0.07106
       8     H     0.45266  0.45266  0.00000  0.09467
       9     H     0.46586  0.46586  0.00000  0.06829
      10     C     3.03408  3.03408  0.00000 -0.06816
      11     H     0.46812  0.46812  0.00000  0.06375
      12     H     0.45350  0.45350  0.00000  0.09300
      13     N     3.61729  3.61729  0.00000 -0.23458
      14     H     0.45379  0.45379  0.00000  0.09241
      15     H     0.46882  0.46882  0.00000  0.06235
      16     C     3.09274  3.09274  0.00000 -0.18548
      17     H     0.44960  0.44960  0.00000  0.10079
      18     H     0.46516  0.46516  0.00000  0.06967
      19     H     0.45771  0.45771  0.00000  0.08459

   Total alpha = 28.00000, Total beta = 28.00000, Total charge = -0.00000
