  ==> Input File <==

--------------------------------------------------------------------------
set {
	reference rhf
	basis 6-31G*
}

set_num_threads( 4 )
memory 2 gb

molecule MOL {
0 1

H	 2.193970	 -0.737580	 -0.308629
C	 1.516950	 -1.107698	 -1.088026
C	 0.223636	 -0.347035	 -1.228270
O	 1.824872	 -2.045335	 -1.749954
C	 -0.558097	 -0.297372	 0.091132
H	 -0.359219	 -0.810024	 -2.015927
H	 0.467455	 0.667534	 -1.541373
C	 -1.850991	 0.512573	 -0.019058
H	 -0.792921	 -1.311197	 0.407029
H	 0.069370	 0.131252	 0.870507
C	 -3.096943	 -0.368295	 -0.099594
H	 -1.800724	 1.150330	 -0.898172
H	 -1.931651	 1.177355	 0.838044
H	 -3.060452	 -1.020287	 -0.967456
H	 -3.996858	 0.233488	 -0.175704
H	 -3.191959	 -0.995686	 0.782074

	symmetry c1
}
set optking {
	frozen_dihedral = ("
		9 5 8 12
	")
}

ee = optimize('scf')
oeprop('DIPOLE', 'QUADRUPOLE', 'MULLIKEN_CHARGES')
f=open( 'psi4out.xyz', 'w' )
f.write( "16  " )
f.write( str(ee) + "\n" )
f.write( MOL.save_string_xyz() )
f.close()
--------------------------------------------------------------------------

    Molecular point group: c1
  Charge       = 0
  Multiplicity = 1
  Basis Set: 6-31G*
  Basis Set:
  @DF-RHF Final Energy:  -270.01468365611004
    Total Energy =                       -270.0146836561099235
    Molecular point group: c1
  Basis Set: 6-31G*
  Basis Set:
  Basis Set: 6-31G*
  Basis Set:
  @DF-RHF Final Energy:  -270.01490087645510
    Total Energy =                       -270.0149008764552718
  Basis Set: 6-31G*
  Basis Set:
  Basis Set: 6-31G*
  Basis Set:
  @DF-RHF Final Energy:  -270.01308991303841
    Total Energy =                       -270.0130899130383568
  Basis Set: 6-31G*
  Basis Set:
  Basis Set: 6-31G*
  Basis Set:
  @DF-RHF Final Energy:  -270.01504165979111
    Total Energy =                       -270.0150416597909953
  Basis Set: 6-31G*
  Basis Set:
  @DF-RHF Final Energy:  -270.01489203661185
    Total Energy =                       -270.0148920366118546
  Basis Set: 6-31G*
  Basis Set:
  @DF-RHF Final Energy:  -270.01507337048974
    Total Energy =                       -270.0150733704897448
  Basis Set: 6-31G*
  Basis Set:
  Basis Set: 6-31G*
  Basis Set:
  @DF-RHF Final Energy:  -270.01507686150069
    Total Energy =                       -270.0150768615006314
  Basis Set: 6-31G*
  Basis Set:
  Basis Set: 6-31G*
  Basis Set:
  @DF-RHF Final Energy:  -270.01507890524971
    Total Energy =                       -270.0150789052498794
  Basis Set: 6-31G*
  Basis Set:
  Charge       = 0
  Multiplicity = 1
  Basis Set: 6-31G*
  Basis Set:

    Orbital Energies (a.u.)
    -----------------------

    Doubly Occupied:

       1A    -20.562512     2A    -11.326282     3A    -11.236565
       4A    -11.235329     5A    -11.229092     6A    -11.217682
       7A     -1.402175     8A     -1.094642     9A     -1.016645
      10A     -0.906603    11A     -0.811396    12A     -0.793780
      13A     -0.675804    14A     -0.648340    15A     -0.622040
      16A     -0.609971    17A     -0.583183    18A     -0.546430
      19A     -0.531732    20A     -0.509352    21A     -0.487586
      22A     -0.476996    23A     -0.475692    24A     -0.408858

  @DF-RHF Final Energy:  -270.01507912081956

   => Energetics <=

    Nuclear Repulsion Energy =            230.5417027013354243
    One-Electron Energy =                -822.2961894655958304
    Two-Electron Energy =                 321.7394076434408703
    DFT Exchange-Correlation Energy =       0.0000000000000000
    Empirical Dispersion Energy =           0.0000000000000000
    PCM Polarization Energy =               0.0000000000000000
    EFP Energy =                            0.0000000000000000
    Total Energy =                       -270.0150791208195074
    Molecular point group: c1
  Basis Set: 6-31G*
  Basis Set:

  -Total Gradient:
     Atom            X                  Y                   Z
    ------   -----------------  -----------------  -----------------
       1       -0.000002965466    -0.000006742724     0.000007890464
       2        0.000007504678     0.000010841519    -0.000013453837
       3       -0.000016533408    -0.000015696993     0.000053600352
       4        0.000003136647     0.000005848338    -0.000008544665
       5        0.000046238168     0.000545222802     0.003285201669
       6       -0.000000288160    -0.000000899447    -0.000001017855
       7        0.000010539678    -0.000004574941    -0.000011834441
       8        0.001470454463     0.002645528485     0.001440330563
       9       -0.000269150411    -0.000876746087    -0.003012224059
      10        0.000006923918    -0.000002001395    -0.000001405226
      11       -0.000001436220     0.000008091520    -0.000004644528
      12       -0.001253016153    -0.002313735235    -0.001737269326
      13       -0.000002760477     0.000002839676     0.000002340905
      14        0.000001193688    -0.000000072752     0.000000337877
      15       -0.000000936211    -0.000002138516    -0.000001046269
      16        0.000001095262     0.000004235749     0.000001738378

  **** Optimization is complete! (in 9 steps) ****
    Final optimized geometry and variables:
    Molecular point group: c1

    Geometry (in Angstrom), charge = 0, multiplicity = 1:

    H            2.541806065722    -0.142419276296     0.348147232350
    C            1.839675069447    -0.502086356011    -0.413677239322
    C            0.564015577251     0.290264316979    -0.535435106117
    O            2.108189675590    -1.456350045128    -1.069218993616
    C           -0.198400533329     0.356903617681     0.797448724552
    H           -0.041402735958    -0.158456978746    -1.314632385350
    H            0.826897238408     1.298908094454    -0.851022596035
    C           -1.517535108151     1.149756526160     0.686737178040
    H           -0.412175281041    -0.661157844358     1.112127813857
    H            0.445358717625     0.794997827767     1.554901507564
    C           -2.746807961246     0.246054276338     0.569041702475
    H           -1.483369264509     1.790402938570    -0.190327636927
    H           -1.634600017264     1.800610525423     1.547266612452
    H           -2.666329875636    -0.417832296970    -0.287144277612
    H           -3.652635270436     0.831857043504     0.448542618586
    H           -2.865258806011    -0.370719572305     1.454911209455

  Mulliken Charges: (a.u.)
   Center  Symbol    Alpha    Beta     Spin     Total
       1     H     0.43224  0.43224  0.00000  0.13553
       2     C     2.83040  2.83040  0.00000  0.33920
       3     C     3.20973  3.20973  0.00000 -0.41946
       4     O     4.23702  4.23702  0.00000 -0.47404
       5     C     3.16780  3.16780  0.00000 -0.33560
       6     H     0.39954  0.39954  0.00000  0.20091
       7     H     0.40955  0.40955  0.00000  0.18090
       8     C     3.15487  3.15487  0.00000 -0.30974
       9     H     0.41090  0.41090  0.00000  0.17819
      10     H     0.41608  0.41608  0.00000  0.16784
      11     C     3.24139  3.24139  0.00000 -0.48278
      12     H     0.41840  0.41840  0.00000  0.16321
      13     H     0.41611  0.41611  0.00000  0.16779
      14     H     0.41916  0.41916  0.00000  0.16167
      15     H     0.41755  0.41755  0.00000  0.16491
      16     H     0.41926  0.41926  0.00000  0.16148

   Total alpha = 24.00000, Total beta = 24.00000, Total charge = -0.00000
