  ==> Input File <==

--------------------------------------------------------------------------
set {
	reference rhf
	basis 6-31G*
}

set_num_threads( 4 )
memory 2 gb

molecule MOL {
0 1

H	 3.073703	 0.184159	 0.692180
O	 2.374502	 0.741745	 0.382493
C	 1.135793	 0.118896	 0.612333
C	 0.031547	 1.023609	 0.088541
H	 0.986135	 -0.049553	 1.677282
H	 1.100390	 -0.852087	 0.123414
C	 -1.134819	 0.293262	 -0.585751
H	 0.474374	 1.714721	 -0.623187
H	 -0.338529	 1.620940	 0.920081
C	 -1.917817	 -0.639439	 0.339494
H	 -0.758119	 -0.268455	 -1.433105
H	 -1.813832	 1.041889	 -0.986690
H	 -2.777680	 -1.057197	 -0.174994
H	 -1.310268	 -1.471279	 0.680599
H	 -2.283753	 -0.111424	 1.216626

	symmetry c1
}
set optking {
	frozen_dihedral = ("
		2 3 4 8
	")
}

ee = optimize('scf')
oeprop('DIPOLE', 'QUADRUPOLE', 'MULLIKEN_CHARGES')
f=open( 'psi4out.xyz', 'w' )
f.write( "15  " )
f.write( str(ee) + "\n" )
f.write( MOL.save_string_xyz() )
f.close()
--------------------------------------------------------------------------

    Molecular point group: c1
  Charge       = 0
  Multiplicity = 1
  Basis Set: 6-31G*
  Basis Set:
  @DF-RHF Final Energy:  -232.13951867644585
    Total Energy =                       -232.1395186764456184
    Molecular point group: c1
  Basis Set: 6-31G*
  Basis Set:
  Basis Set: 6-31G*
  Basis Set:
  @DF-RHF Final Energy:  -232.14003054647108
    Total Energy =                       -232.1400305464709390
  Basis Set: 6-31G*
  Basis Set:
  Basis Set: 6-31G*
  Basis Set:
  @DF-RHF Final Energy:  -232.14009296648496
    Total Energy =                       -232.1400929664850423
  Basis Set: 6-31G*
  Basis Set:
  Basis Set: 6-31G*
  Basis Set:
  @DF-RHF Final Energy:  -232.14008841168302
    Total Energy =                       -232.1400884116833367
  Basis Set: 6-31G*
  Basis Set:
  Basis Set: 6-31G*
  Basis Set:
  @DF-RHF Final Energy:  -232.14010311455971
    Total Energy =                       -232.1401031145595084
  Basis Set: 6-31G*
  Basis Set:
  Charge       = 0
  Multiplicity = 1
  Basis Set: 6-31G*
  Basis Set:

    Orbital Energies (a.u.)
    -----------------------

    Doubly Occupied:

       1A    -20.551891     2A    -11.267590     3A    -11.217716
       4A    -11.211682     5A    -11.210800     6A     -1.358223
       7A     -1.069168     8A     -0.968997     9A     -0.869976
      10A     -0.784552    11A     -0.699505    12A     -0.647145
      13A     -0.607442    14A     -0.591432    15A     -0.555239
      16A     -0.535803    17A     -0.509681    18A     -0.474706
      19A     -0.472182    20A     -0.455819    21A     -0.430727

  @DF-RHF Final Energy:  -232.14010335652645

   => Energetics <=

    Nuclear Repulsion Energy =            188.1550071643491435
    One-Electron Energy =                -687.6096694163245502
    Two-Electron Energy =                 267.3145588954492382
    DFT Exchange-Correlation Energy =       0.0000000000000000
    Empirical Dispersion Energy =           0.0000000000000000
    PCM Polarization Energy =               0.0000000000000000
    EFP Energy =                            0.0000000000000000
    Total Energy =                       -232.1401033565261400
    Molecular point group: c1
  Basis Set: 6-31G*
  Basis Set:

  -Total Gradient:
     Atom            X                  Y                   Z
    ------   -----------------  -----------------  -----------------
       1       -0.000003905855     0.000005911719    -0.000003039886
       2        0.000212455794    -0.001359454847    -0.002921426376
       3       -0.000156782650     0.002285996049     0.004371277059
       4       -0.000749293516    -0.003589187073    -0.004645982214
       5       -0.000033755547     0.000025592440     0.000000461145
       6        0.000020789494     0.000024707223     0.000019517165
       7        0.000035064377     0.000005664243    -0.000053166310
       8        0.000699768331     0.002597681745     0.003112610788
       9        0.000002405827    -0.000040107448     0.000053135020
      10        0.000024425071    -0.000022913751     0.000025425328
      11       -0.000019404150     0.000024392237     0.000047777043
      12        0.000002263792     0.000028662597    -0.000001534570
      13        0.000015282938    -0.000013597350    -0.000000349821
      14       -0.000012517635     0.000017311780    -0.000002200525
      15       -0.000036796276     0.000009340431    -0.000002503847

  **** Optimization is complete! (in 6 steps) ****
    Final optimized geometry and variables:
    Molecular point group: c1

    Geometry (in Angstrom), charge = 0, multiplicity = 1:

    H            2.912322833516    -0.082967327017     0.570512462261
    O            2.216340801223     0.443694886050     0.203783772030
    C            0.982744377181    -0.200270848918     0.406063710480
    C           -0.129065486613     0.721991438188    -0.098962785036
    H            0.842708510147    -0.441146561618     1.457160624923
    H            0.966197681176    -1.139717533537    -0.145451358679
    C           -1.295516276147    -0.003407562770    -0.771713663168
    H            0.328300035910     1.431514378782    -0.779950037197
    H           -0.506310730905     1.317396589338     0.729811704840
    C           -2.076186980174    -0.922309080440     0.170376869216
    H           -0.922409561754    -0.579989281743    -1.615281689174
    H           -1.974956931293     0.737257862723    -1.184817192658
    H           -2.906414713396    -1.394814832046    -0.345128842649
    H           -1.450544279415    -1.714192967599     0.572327753993
    H           -2.482144973898    -0.364788347199     1.010036308908

  Mulliken Charges: (a.u.)
   Center  Symbol    Alpha    Beta     Spin     Total
       1     H     0.28185  0.28185  0.00000  0.43630
       2     O     4.37222  4.37222  0.00000 -0.74445
       3     C     2.99270  2.99270  0.00000  0.01460
       4     C     3.16545  3.16545  0.00000 -0.33090
       5     H     0.43011  0.43011  0.00000  0.13977
       6     H     0.43137  0.43137  0.00000  0.13726
       7     C     3.15943  3.15943  0.00000 -0.31885
       8     H     0.40374  0.40374  0.00000  0.19251
       9     H     0.42029  0.42029  0.00000  0.15943
      10     C     3.24222  3.24222  0.00000 -0.48444
      11     H     0.42080  0.42080  0.00000  0.15839
      12     H     0.41886  0.41886  0.00000  0.16228
      13     H     0.41785  0.41785  0.00000  0.16430
      14     H     0.42224  0.42224  0.00000  0.15551
      15     H     0.42086  0.42086  0.00000  0.15828

   Total alpha = 21.00000, Total beta = 21.00000, Total charge =  0.00000
