  ==> Input File <==

--------------------------------------------------------------------------
set {
	reference rhf
	basis cc-pvtz
}

set_num_threads( 4 )
memory 2 gb

molecule MOL {
0 1

H	 -2.123458	 -0.274223	 -0.765878
O	 -1.432053	 -0.565244	 -0.200812
C	 -0.727158	 0.534527	 0.310686
C	 0.680222	 0.664433	 -0.252229
H	 -1.306802	 1.408001	 0.044211
H	 -0.690821	 0.490158	 1.397609
C	 1.605391	 -0.489360	 0.123098
H	 0.615089	 0.745647	 -1.332226
H	 1.101414	 1.597893	 0.110950
H	 1.247627	 -1.432485	 -0.275204
H	 2.601435	 -0.332816	 -0.273062
H	 1.691776	 -0.589902	 1.200774

	symmetry c1
}
set optking {
	frozen_dihedral = ("
		1 2 3 4
	")
}

ee = optimize('scf')
oeprop('DIPOLE', 'QUADRUPOLE', 'MULLIKEN_CHARGES')
f=open( 'psi4out.xyz', 'w' )
f.write( "12  " )
f.write( str(ee) + "\n" )
f.write( MOL.save_string_xyz() )
f.close()
--------------------------------------------------------------------------

    Molecular point group: c1
  Charge       = 0
  Multiplicity = 1
  Basis Set: CC-PVTZ
  Basis Set:
  @DF-RHF Final Energy:  -193.18818197784827
    Total Energy =                       -193.1881819778481599
    Molecular point group: c1
  Basis Set: CC-PVTZ
  Basis Set:
  Basis Set: CC-PVTZ
  Basis Set:
  @DF-RHF Final Energy:  -193.18929466066160
    Total Energy =                       -193.1892946606615453
  Basis Set: CC-PVTZ
  Basis Set:
  Basis Set: CC-PVTZ
  Basis Set:
  @DF-RHF Final Energy:  -193.18963351790086
    Total Energy =                       -193.1896335179007735
  Basis Set: CC-PVTZ
  Basis Set:
  Basis Set: CC-PVTZ
  Basis Set:
  @DF-RHF Final Energy:  -193.18963721596262
    Total Energy =                       -193.1896372159626765
  Basis Set: CC-PVTZ
  Basis Set:
  Charge       = 0
  Multiplicity = 1
  Basis Set: CC-PVTZ
  Basis Set:

    Orbital Energies (a.u.)
    -----------------------

    Doubly Occupied:

       1A    -20.545525     2A    -11.266579     3A    -11.213317
       4A    -11.201885     5A     -1.363221     6A     -1.047893
       7A     -0.919771     8A     -0.805858     9A     -0.700056
      10A     -0.640722    11A     -0.603696    12A     -0.567481
      13A     -0.536591    14A     -0.511968    15A     -0.481124
      16A     -0.466984    17A     -0.431600

  @DF-RHF Final Energy:  -193.18963784008585

   => Energetics <=

    Nuclear Repulsion Energy =            133.1570501077447091
    One-Electron Energy =                -526.0848332363261761
    Two-Electron Energy =                 199.7381452884956161
    DFT Exchange-Correlation Energy =       0.0000000000000000
    Empirical Dispersion Energy =           0.0000000000000000
    PCM Polarization Energy =               0.0000000000000000
    EFP Energy =                            0.0000000000000000
    Total Energy =                       -193.1896378400858794
    Molecular point group: c1
  Basis Set: CC-PVTZ
  Basis Set:

  -Total Gradient:
     Atom            X                  Y                   Z
    ------   -----------------  -----------------  -----------------
       1       -0.000498689145     0.000036023182     0.000608713091
       2        0.000723866791    -0.000084755545    -0.000584714684
       3       -0.000379884559     0.000332326608    -0.000401248524
       4        0.000154180859    -0.000312355331     0.000369789299
       5        0.000001903766     0.000008316126    -0.000008154042
       6        0.000024073939    -0.000010551518    -0.000003856677
       7        0.000001735482     0.000006939317     0.000011850609
       8       -0.000010708255     0.000001446962    -0.000002198934
       9       -0.000011104536     0.000013991659    -0.000004830574
      10       -0.000001758548     0.000010565774    -0.000005257136
      11       -0.000008884906     0.000010943210     0.000008878888
      12        0.000005269109    -0.000012890446     0.000011028683

  **** Optimization is complete! (in 5 steps) ****
    Final optimized geometry and variables:
    Molecular point group: c1

    Geometry (in Angstrom), charge = 0, multiplicity = 1:

    H           -2.057363599713    -0.365982135105    -0.767211647714
    O           -1.371381012032    -0.608677469183    -0.176075957607
    C           -0.719339475429     0.536232121140     0.317725456974
    C            0.690168162891     0.663900507622    -0.236011087954
    H           -1.289790613478     1.429791978642     0.084331570542
    H           -0.682394186405     0.452617198852     1.398958220396
    C            1.589964638064    -0.510000321790     0.133856459834
    H            0.635109966868     0.758542563601    -1.316732188483
    H            1.118807002701     1.589864149055     0.138799317773
    H            1.178459273759    -1.441427083685    -0.231935753070
    H            2.580311535363    -0.387645111033    -0.289169152890
    H            1.697573730848    -0.592895566228     1.210647927485

  Mulliken Charges: (a.u.)
   Center  Symbol    Alpha    Beta     Spin     Total
       1     H     0.39217  0.39217  0.00000  0.21566
       2     O     4.20530  4.20530  0.00000 -0.41060
       3     C     2.97444  2.97444  0.00000  0.05113
       4     C     3.07624  3.07624  0.00000 -0.15249
       5     H     0.46450  0.46450  0.00000  0.07100
       6     H     0.46577  0.46577  0.00000  0.06846
       7     C     3.14925  3.14925  0.00000 -0.29851
       8     H     0.45997  0.45997  0.00000  0.08005
       9     H     0.45808  0.45808  0.00000  0.08383
      10     H     0.44581  0.44581  0.00000  0.10838
      11     H     0.45108  0.45108  0.00000  0.09785
      12     H     0.45739  0.45739  0.00000  0.08523

   Total alpha = 17.00000, Total beta = 17.00000, Total charge = -0.00000
