  ==> Input File <==

--------------------------------------------------------------------------
set {
	reference rhf
	basis 6-31G*
}

set_num_threads( 4 )
memory 2 gb

molecule MOL {
0 1

H	 -3.161837	 0.500524	 -0.000234
C	 -2.367097	 -0.232926	 -0.000000
O	 -1.158440	 0.455814	 -0.000122
H	 -2.468853	 -0.861886	 -0.882833
H	 -2.468942	 -0.861421	 0.883154
C	 -0.029776	 -0.365156	 0.000148
C	 1.091123	 0.342746	 0.741176
H	 0.273851	 -0.586241	 -1.023977
H	 -0.258532	 -1.317650	 0.480078
C	 2.373525	 -0.486592	 0.791417
H	 1.278930	 1.294362	 0.253511
H	 0.750353	 0.568047	 1.747066
H	 2.745254	 -0.702659	 -0.206359
H	 3.155748	 0.041927	 1.325870
H	 2.212769	 -1.434587	 1.297250

	symmetry c1
}
set optking {
	frozen_dihedral = ("
		8 6 3 2
	")
}

ee = optimize('scf')
oeprop('DIPOLE', 'QUADRUPOLE', 'MULLIKEN_CHARGES')
f=open( 'psi4out.xyz', 'w' )
f.write( "15  " )
f.write( str(ee) + "\n" )
f.write( MOL.save_string_xyz() )
f.close()
--------------------------------------------------------------------------

    Molecular point group: c1
  Charge       = 0
  Multiplicity = 1
  Basis Set: 6-31G*
  Basis Set:
  @DF-RHF Final Energy:  -232.13729893590252
    Total Energy =                       -232.1372989359026633
    Molecular point group: c1
  Basis Set: 6-31G*
  Basis Set:
  Basis Set: 6-31G*
  Basis Set:
  @DF-RHF Final Energy:  -232.13741560747815
    Total Energy =                       -232.1374156074782036
  Basis Set: 6-31G*
  Basis Set:
  Basis Set: 6-31G*
  Basis Set:
  @DF-RHF Final Energy:  -232.13745434904425
    Total Energy =                       -232.1374543490443330
  Basis Set: 6-31G*
  Basis Set:
  Charge       = 0
  Multiplicity = 1
  Basis Set: 6-31G*
  Basis Set:

    Orbital Energies (a.u.)
    -----------------------

    Doubly Occupied:

       1A    -20.551765     2A    -11.266015     3A    -11.264443
       4A    -11.213740     5A    -11.212674     6A     -1.375755
       7A     -1.056774     8A     -0.955646     9A     -0.877614
      10A     -0.808247    11A     -0.673378    12A     -0.653218
      13A     -0.631300    14A     -0.604933    15A     -0.566555
      16A     -0.541475    17A     -0.502422    18A     -0.489773
      19A     -0.479356    20A     -0.462236    21A     -0.409262

  @DF-RHF Final Energy:  -232.13745485704425

   => Energetics <=

    Nuclear Repulsion Energy =            189.7067972851436934
    One-Electron Energy =                -690.4953450846116993
    Two-Electron Energy =                 268.6510929424237588
    DFT Exchange-Correlation Energy =       0.0000000000000000
    Empirical Dispersion Energy =           0.0000000000000000
    PCM Polarization Energy =               0.0000000000000000
    EFP Energy =                            0.0000000000000000
    Total Energy =                       -232.1374548570442471
    Molecular point group: c1
  Basis Set: 6-31G*
  Basis Set:

  -Total Gradient:
     Atom            X                  Y                   Z
    ------   -----------------  -----------------  -----------------
       1       -0.000000931864     0.000004532952    -0.000002535564
       2       -0.000082557532     0.000014107048     0.002405789166
       3        0.000567327295     0.000565221504    -0.003448151118
       4        0.000022929951     0.000012765612     0.000009949951
       5        0.000029703325     0.000003293583    -0.000006341809
       6       -0.002277741813    -0.002989301597     0.001037347074
       7       -0.000014228831     0.000003175275    -0.000020273799
       8        0.001743736685     0.002396684177     0.000026399793
       9       -0.000003970927    -0.000010824810     0.000000639296
      10        0.000015127300    -0.000001395084    -0.000016744506
      11        0.000012282488     0.000017123437     0.000012897585
      12       -0.000016440618    -0.000009144739    -0.000005044102
      13       -0.000004309282    -0.000010846796     0.000003088870
      14        0.000002197246     0.000002330462    -0.000002647816
      15        0.000006876575     0.000002278976     0.000005626980

  **** Optimization is complete! (in 4 steps) ****
    Final optimized geometry and variables:
    Molecular point group: c1

    Geometry (in Angstrom), charge = 0, multiplicity = 1:

    H           -3.110506207107     0.600768685882    -0.334426165301
    C           -2.332778398328    -0.150751412597    -0.320206537123
    O           -1.109501316415     0.512474463071    -0.303381265000
    H           -2.439941459774    -0.780116992827    -1.202073497798
    H           -2.460328682246    -0.772334443672     0.563878411989
    C            0.018130530247    -0.315424631964    -0.275733116091
    C            1.141292264240     0.404832531885     0.453879056361
    H            0.332727789473    -0.541249525961    -1.294002927985
    H           -0.208745326738    -1.256732320617     0.221859983521
    C            2.437908950340    -0.403501298450     0.475952263920
    H            1.305710585254     1.362466429304    -0.030698254486
    H            0.814491273394     0.619544524924     1.466982646144
    H            2.794713705670    -0.607067845177    -0.529828126734
    H            3.221367071970     0.133927405483     0.999710948767
    H            2.302282228730    -1.357720009236     0.977886937115

  Mulliken Charges: (a.u.)
   Center  Symbol    Alpha    Beta     Spin     Total
       1     H     0.41283  0.41283  0.00000  0.17434
       2     C     3.07920  3.07920  0.00000 -0.15840
       3     O     4.30738  4.30738  0.00000 -0.61476
       4     H     0.43052  0.43052  0.00000  0.13895
       5     H     0.43003  0.43003  0.00000  0.13995
       6     C     2.98196  2.98196  0.00000  0.03607
       7     C     3.15873  3.15873  0.00000 -0.31747
       8     H     0.42961  0.42961  0.00000  0.14079
       9     H     0.43314  0.43314  0.00000  0.13371
      10     C     3.24837  3.24837  0.00000 -0.49673
      11     H     0.41355  0.41355  0.00000  0.17291
      12     H     0.41713  0.41713  0.00000  0.16574
      13     H     0.42045  0.42045  0.00000  0.15909
      14     H     0.41549  0.41549  0.00000  0.16902
      15     H     0.42160  0.42160  0.00000  0.15679

   Total alpha = 21.00000, Total beta = 21.00000, Total charge = -0.00000
