  ==> Input File <==

--------------------------------------------------------------------------
set {
	reference rhf
	basis 6-31G*
}

set_num_threads( 4 )
memory 2 gb

molecule MOL {
0 1

H	 3.893188	 0.355400	 -0.101367
N	 3.092854	 -0.246221	 -0.068770
C	 1.865559	 0.531981	 0.018834
H	 3.199514	 -0.826043	 0.741946
C	 0.645745	 -0.382037	 -0.029944
H	 1.841966	 1.207024	 -0.831236
H	 1.815756	 1.155410	 0.915079
C	 -0.679275	 0.379305	 0.025956
H	 0.698998	 -0.976915	 -0.937203
H	 0.693479	 -1.083846	 0.802235
C	 -1.010694	 1.108663	 -1.277337
H	 -0.646485	 1.101175	 0.840620
H	 -1.486782	 -0.311434	 0.263985
C	 -2.333539	 1.871407	 -1.215594
H	 -0.205917	 1.800296	 -1.516486
H	 -1.046718	 0.389433	 -2.092854
H	 -2.316679	 2.622599	 -0.430901
H	 -2.540163	 2.377899	 -2.153345
H	 -3.163852	 1.200948	 -1.011984

	symmetry c1
}
set optking {
	frozen_dihedral = ("
		12 8 5 9
	")
}

ee = optimize('scf')
oeprop('DIPOLE', 'QUADRUPOLE', 'MULLIKEN_CHARGES')
f=open( 'psi4out.xyz', 'w' )
f.write( "19  " )
f.write( str(ee) + "\n" )
f.write( MOL.save_string_xyz() )
f.close()
--------------------------------------------------------------------------

    Molecular point group: c1
  Charge       = 0
  Multiplicity = 1
  Basis Set: 6-31G*
  Basis Set:
  @DF-RHF Final Energy:  -251.34966138642559
    Total Energy =                       -251.3496613864257370
    Molecular point group: c1
  Basis Set: 6-31G*
  Basis Set:
  Basis Set: 6-31G*
  Basis Set:
  @DF-RHF Final Energy:  -251.34981413492974
    Total Energy =                       -251.3498141349296020
  Basis Set: 6-31G*
  Basis Set:
  Basis Set: 6-31G*
  Basis Set:
  @DF-RHF Final Energy:  -251.34992924121798
    Total Energy =                       -251.3499292412178647
  Basis Set: 6-31G*
  Basis Set:
  Basis Set: 6-31G*
  Basis Set:
  @DF-RHF Final Energy:  -251.34993223003565
    Total Energy =                       -251.3499322300353924
  Basis Set: 6-31G*
  Basis Set:
  Charge       = 0
  Multiplicity = 1
  Basis Set: 6-31G*
  Basis Set:

    Orbital Energies (a.u.)
    -----------------------

    Doubly Occupied:

       1A    -15.532494     2A    -11.239437     3A    -11.213648
       4A    -11.212858     5A    -11.209727     6A    -11.207542
       7A     -1.176644     8A     -1.072129     9A     -0.996523
      10A     -0.899113    11A     -0.826457    12A     -0.778125
      13A     -0.662809    14A     -0.635818    15A     -0.618492
      16A     -0.591983    17A     -0.570185    18A     -0.548729
      19A     -0.525563    20A     -0.499529    21A     -0.489068
      22A     -0.463182    23A     -0.455385    24A     -0.447326
      25A     -0.381100

  @DF-RHF Final Energy:  -251.34993237169601

   => Energetics <=

    Nuclear Repulsion Energy =            248.5912997605090595
    One-Electron Energy =                -831.3747296468875447
    Two-Electron Energy =                 331.4334975146826423
    DFT Exchange-Correlation Energy =       0.0000000000000000
    Empirical Dispersion Energy =           0.0000000000000000
    PCM Polarization Energy =               0.0000000000000000
    EFP Energy =                            0.0000000000000000
    Total Energy =                       -251.3499323716958429
    Molecular point group: c1
  Basis Set: 6-31G*
  Basis Set:

  -Total Gradient:
     Atom            X                  Y                   Z
    ------   -----------------  -----------------  -----------------
       1       -0.000000053670    -0.000002210415     0.000005356512
       2        0.000001985652     0.000000588657     0.000023297926
       3       -0.000013887383    -0.000007571859    -0.000035913806
       4        0.000008526925    -0.000003044041    -0.000000851421
       5       -0.000585235201    -0.001031260903     0.000578068388
       6       -0.000012695447     0.000010852560    -0.000002115204
       7        0.000003676533    -0.000005197261    -0.000001097662
       8       -0.000444508903    -0.000837400274     0.000871502916
       9        0.000563719522     0.001012974611    -0.000630508883
      10       -0.000008576497    -0.000003391176     0.000001547482
      11        0.000003264265    -0.000030998150     0.000003485165
      12        0.000483252251     0.000891330439    -0.000800286269
      13        0.000002780818     0.000002712019    -0.000001036721
      14       -0.000000467715     0.000005626648    -0.000002360644
      15        0.000003654072    -0.000005309604    -0.000001387838
      16       -0.000001628200     0.000000619179    -0.000005390849
      17       -0.000000712526    -0.000006977929     0.000004315597
      18       -0.000002106566     0.000007778405     0.000000636401
      19       -0.000000987924     0.000000879096    -0.000007261091

  **** Optimization is complete! (in 5 steps) ****
    Final optimized geometry and variables:
    Molecular point group: c1

    Geometry (in Angstrom), charge = 0, multiplicity = 1:

    H            3.623642227077    -0.257315331428     0.353865290941
    N            2.805801630829    -0.835194013804     0.379284112452
    C            1.599453367644    -0.021881162351     0.431268149336
    H            2.880113507463    -1.407041160527     1.199232149447
    C            0.358870193307    -0.910680212057     0.373786795539
    H            1.619269727423     0.643754102656    -0.424765658863
    H            1.546823874711     0.611439268077     1.320616571690
    C           -0.966936101276    -0.142027307157     0.425971851177
    H            0.412225482869    -1.507016038365    -0.532512652638
    H            0.397936886781    -1.608140710388     1.208759240819
    C           -1.326352619055     0.585978091809    -0.873217694111
    H           -0.935924213574     0.581724234793     1.239295738922
    H           -1.768099701928    -0.837178706550     0.665853358700
    C           -2.672071925704     1.306317171884    -0.792419586151
    H           -0.552641773306     1.306964764424    -1.123690368852
    H           -1.349874365736    -0.132230813069    -1.689898011694
    H           -2.670390537511     2.053658936586    -0.003768810511
    H           -2.905389735480     1.810849659231    -1.724996499106
    H           -3.478206603384     0.608717777447    -0.583064078847

  Mulliken Charges: (a.u.)
   Center  Symbol    Alpha    Beta     Spin     Total
       1     H     0.33246  0.33246  0.00000  0.33508
       2     N     3.92204  3.92204  0.00000 -0.84409
       3     C     3.06143  3.06143  0.00000 -0.12287
       4     H     0.33540  0.33540  0.00000  0.32920
       5     C     3.15314  3.15314  0.00000 -0.30628
       6     H     0.41945  0.41945  0.00000  0.16109
       7     H     0.43505  0.43505  0.00000  0.12989
       8     C     3.15696  3.15696  0.00000 -0.31392
       9     H     0.41321  0.41321  0.00000  0.17358
      10     H     0.42569  0.42569  0.00000  0.14862
      11     C     3.15266  3.15266  0.00000 -0.30533
      12     H     0.42496  0.42496  0.00000  0.15009
      13     H     0.42082  0.42082  0.00000  0.15837
      14     C     3.23917  3.23917  0.00000 -0.47834
      15     H     0.42245  0.42245  0.00000  0.15511
      16     H     0.42159  0.42159  0.00000  0.15682
      17     H     0.42232  0.42232  0.00000  0.15537
      18     H     0.41935  0.41935  0.00000  0.16130
      19     H     0.42185  0.42185  0.00000  0.15629

   Total alpha = 25.00000, Total beta = 25.00000, Total charge =  0.00000
