  ==> Input File <==

--------------------------------------------------------------------------
set {
	reference rhf
	basis 6-31G*
}

set_num_threads( 4 )
memory 2 gb

molecule MOL {
0 1

H	 -0.954291	 -1.366283	 0.020806
O	 -1.422729	 -0.573567	 -0.196946
C	 -0.731407	 0.539437	 0.309156
C	 0.680193	 0.672443	 -0.251532
H	 -1.319765	 1.404033	 0.030086
H	 -0.700012	 0.506517	 1.397677
C	 1.599139	 -0.492137	 0.118598
H	 0.616402	 0.758534	 -1.332349
H	 1.107032	 1.602637	 0.117369
H	 1.239738	 -1.428634	 -0.297334
H	 2.601428	 -0.335055	 -0.265730
H	 1.674954	 -0.608418	 1.197020

	symmetry c1
}
set optking {
	frozen_dihedral = ("
		1 2 3 4
	")
}

ee = optimize('scf')
oeprop('DIPOLE', 'QUADRUPOLE', 'MULLIKEN_CHARGES')
f=open( 'psi4out.xyz', 'w' )
f.write( "12  " )
f.write( str(ee) + "\n" )
f.write( MOL.save_string_xyz() )
f.close()
--------------------------------------------------------------------------

    Molecular point group: c1
  Charge       = 0
  Multiplicity = 1
  Basis Set: 6-31G*
  Basis Set:
  @DF-RHF Final Energy:  -193.10971138891378
    Total Energy =                       -193.1097113889139223
    Molecular point group: c1
  Basis Set: 6-31G*
  Basis Set:
  Basis Set: 6-31G*
  Basis Set:
  @DF-RHF Final Energy:  -193.10970444461356
    Total Energy =                       -193.1097044446136124
  Basis Set: 6-31G*
  Basis Set:
  Basis Set: 6-31G*
  Basis Set:
  @DF-RHF Final Energy:  -193.10974028992243
    Total Energy =                       -193.1097402899224562
  Basis Set: 6-31G*
  Basis Set:
  Basis Set: 6-31G*
  Basis Set:
  @DF-RHF Final Energy:  -193.10974168950133
    Total Energy =                       -193.1097416895013339
  Basis Set: 6-31G*
  Basis Set:
  Charge       = 0
  Multiplicity = 1
  Basis Set: 6-31G*
  Basis Set:

    Orbital Energies (a.u.)
    -----------------------

    Doubly Occupied:

       1A    -20.552659     2A    -11.267790     3A    -11.220976
       4A    -11.220279     5A     -1.359929     6A     -1.052580
       7A     -0.929033     8A     -0.811865     9A     -0.692919
      10A     -0.637808    11A     -0.604990    12A     -0.588551
      13A     -0.543505    14A     -0.509322    15A     -0.494553
      16A     -0.469155    17A     -0.429895

  @DF-RHF Final Energy:  -193.10974176911523

   => Energetics <=

    Nuclear Repulsion Energy =            133.0743581705894201
    One-Electron Energy =                -525.5965848167710419
    Two-Electron Energy =                 199.4124848770663334
    DFT Exchange-Correlation Energy =       0.0000000000000000
    Empirical Dispersion Energy =           0.0000000000000000
    PCM Polarization Energy =               0.0000000000000000
    EFP Energy =                            0.0000000000000000
    Total Energy =                       -193.1097417691152600
    Molecular point group: c1
  Basis Set: 6-31G*
  Basis Set:

  -Total Gradient:
     Atom            X                  Y                   Z
    ------   -----------------  -----------------  -----------------
       1        0.000640323339     0.000077317173    -0.001077124484
       2       -0.000660761419    -0.000309969685     0.001581674504
       3       -0.000257381068     0.000684152163    -0.001105399733
       4        0.000275375296    -0.000464496993     0.000606390071
       5        0.000001304217     0.000006330667     0.000002525208
       6       -0.000001610944    -0.000002693225    -0.000006166303
       7        0.000003082610     0.000007903947    -0.000005510361
       8       -0.000004687332    -0.000003484744     0.000005790322
       9        0.000008373486     0.000003574206     0.000001189824
      10       -0.000004473140     0.000000951923     0.000000889670
      11        0.000007284236     0.000000981870    -0.000001126910
      12       -0.000006829278    -0.000000567302    -0.000003131809

  **** Optimization is complete! (in 5 steps) ****
    Final optimized geometry and variables:
    Molecular point group: c1

    Geometry (in Angstrom), charge = 0, multiplicity = 1:

    H           -0.972114311155    -1.365475791401     0.024112211526
    O           -1.434693930995    -0.568380934423    -0.190714099351
    C           -0.731353609798     0.538142038945     0.310778576047
    C            0.679937970982     0.667738683118    -0.252758143701
    H           -1.317926179863     1.405669392523     0.038189307605
    H           -0.692038805144     0.501275774934     1.399317151093
    C            1.604126864420    -0.492171605471     0.121630512461
    H            0.617348252977     0.752086023790    -1.333944699254
    H            1.106200146967     1.598618031643     0.114310231968
    H            1.262127744191    -1.432574574725    -0.301530777989
    H            2.608351110312    -0.324270129045    -0.252665953438
    H            1.669819299829    -0.612723015806     1.199910660310

  Mulliken Charges: (a.u.)
   Center  Symbol    Alpha    Beta     Spin     Total
       1     H     0.27988  0.27988  0.00000  0.44025
       2     O     4.37151  4.37151  0.00000 -0.74302
       3     C     2.99320  2.99320  0.00000  0.01360
       4     C     3.16506  3.16506  0.00000 -0.33013
       5     H     0.41450  0.41450  0.00000  0.17100
       6     H     0.43243  0.43243  0.00000  0.13514
       7     C     3.25072  3.25072  0.00000 -0.50145
       8     H     0.41381  0.41381  0.00000  0.17239
       9     H     0.42164  0.42164  0.00000  0.15672
      10     H     0.42433  0.42433  0.00000  0.15135
      11     H     0.41270  0.41270  0.00000  0.17460
      12     H     0.42022  0.42022  0.00000  0.15955

   Total alpha = 17.00000, Total beta = 17.00000, Total charge = -0.00000
