                              Psi4 1.0.54 Driver

  ==> Input File <==

--------------------------------------------------------------------------
set {
	reference rhf
	basis cc-pvtz
}

set_num_threads( 4 )
memory 2 gb

molecule MOL {
0 1

H	 2.976235	 -1.145331	 0.340615
N	 3.091268	 -0.241216	 -0.065538
C	 1.860978	 0.530248	 0.016256
H	 3.363455	 -0.378087	 -1.016605
C	 0.644130	 -0.381765	 -0.031064
H	 1.835721	 1.204666	 -0.833114
H	 1.808789	 1.151975	 0.911067
C	 -0.678115	 0.376691	 0.025731
H	 0.693998	 -0.977147	 -0.936845
H	 0.693309	 -1.082142	 0.800523
C	 -1.900706	 -0.535531	 -0.022488
H	 -0.725296	 1.079516	 -0.802982
H	 -0.715474	 0.974884	 0.933278
C	 -3.220513	 0.226854	 0.028039
H	 -1.865036	 -1.134397	 -0.928236
H	 -1.857948	 -1.236381	 0.806820
H	 -3.309098	 0.911849	 -0.808725
H	 -4.066838	 -0.449485	 -0.008086
H	 -3.301685	 0.809374	 0.939860

	symmetry c1
}
set optking {
	frozen_dihedral = ("
		1 2 3 6
	")
}

ee,wfn = optimize('scf', return_wfn=True)
oeprop( wfn, 'DIPOLE', 'QUADRUPOLE', 'MULLIKEN_CHARGES')
f=open( 'psi4out.xyz', 'w' )
f.write( "19  " )
f.write( str(ee) + "\n" )
f.write( MOL.save_string_xyz() )
f.close()
--------------------------------------------------------------------------

    Molecular point group: c1
  Charge       = 0
  Multiplicity = 1
  Basis Set: CC-PVTZ
  Basis Set:
  @DF-RHF Final Energy:  -251.44483322057241
    Total Energy =                       -251.4448332205726047
    Molecular point group: c1
  Basis Set: CC-PVTZ
  Basis Set:
  Basis Set: CC-PVTZ
  Basis Set:
  @DF-RHF Final Energy:  -251.44594382846896
    Total Energy =                       -251.4459438284689554
  Basis Set: CC-PVTZ
  Basis Set:
  Basis Set: CC-PVTZ
  Basis Set:
  @DF-RHF Final Energy:  -251.44612486389823
    Total Energy =                       -251.4461248638981488
  Basis Set: CC-PVTZ
  Basis Set:
  Basis Set: CC-PVTZ
  Basis Set:
  @DF-RHF Final Energy:  -251.44612826696132
    Total Energy =                       -251.4461282669612956
  Basis Set: CC-PVTZ
  Basis Set:
  Charge       = 0
  Multiplicity = 1
  Basis Set: CC-PVTZ
  Basis Set:

    Orbital Energies (a.u.)
    -----------------------

    Doubly Occupied:

       1A    -15.525804     2A    -11.238169     3A    -11.214759
       4A    -11.213449     5A    -11.212189     6A    -11.207494
       7A     -1.177653     8A     -1.076841     9A     -1.001152
      10A     -0.902200    11A     -0.819383    12A     -0.793192
      13A     -0.675657    14A     -0.639600    15A     -0.601078
      16A     -0.592630    17A     -0.571579    18A     -0.556128
      19A     -0.524892    20A     -0.502101    21A     -0.483889
      22A     -0.469550    23A     -0.466439    24A     -0.463169
      25A     -0.379055

  @DF-RHF Final Energy:  -251.44612857576240

   => Energetics <=

    Nuclear Repulsion Energy =            245.8949631416291197
    One-Electron Energy =                -826.0660863527260744
    Two-Electron Energy =                 328.7249946353344967
    DFT Exchange-Correlation Energy =       0.0000000000000000
    Empirical Dispersion Energy =           0.0000000000000000
    PCM Polarization Energy =               0.0000000000000000
    EFP Energy =                            0.0000000000000000
    Total Energy =                       -251.4461285757624864
    Molecular point group: c1
  Basis Set: CC-PVTZ
  Basis Set:

  -Total Gradient:
     Atom            X                  Y                   Z
    ------   -----------------  -----------------  -----------------
       1       -0.000806351660    -0.001223890211    -0.002801438077
       2        0.000687722203     0.001037456607     0.003148823670
       3        0.001354080165     0.002246572878     0.001200125258
       4        0.000003473089     0.000002313159    -0.000005576332
       5        0.000031835534     0.000005706108     0.000000420857
       6       -0.001240970552    -0.002060597825    -0.001550560781
       7       -0.000005201496     0.000006025823     0.000005756008
       8        0.000019727486    -0.000007438513     0.000000406240
       9       -0.000000451440     0.000003450687     0.000003282493
      10       -0.000008967701    -0.000012683703    -0.000005599271
      11       -0.000019635357     0.000002658845    -0.000000651755
      12        0.000003386724    -0.000004318417    -0.000000233359
      13       -0.000008956068     0.000004822119    -0.000006285656
      14       -0.000010201881    -0.000007978088     0.000012083816
      15        0.000005808656     0.000005949185    -0.000000348047
      16       -0.000001116732    -0.000001618642    -0.000001759828
      17        0.000001918164    -0.000002983361    -0.000001644740
      18       -0.000002992328     0.000002939478     0.000001821678
      19       -0.000003106806     0.000003613870     0.000001377826

  **** Optimization is complete! (in 5 steps) ****
    Final optimized geometry and variables:
    Molecular point group: c1

    Geometry (in Angstrom), charge = 0, multiplicity = 1:

    H            3.056630171360    -1.134629951090     0.326939978972
    N            3.139983949345    -0.229902091889    -0.087502154154
    C            1.873432792484     0.490310757574    -0.031249339188
    H            3.414722890682    -0.383420522390    -1.034252846361
    C            0.632598270520    -0.398952035421    -0.039476081260
    H            1.826845746442     1.156263260148    -0.886032385372
    H            1.861008471489     1.113592370955     0.856972078926
    C           -0.672736841721     0.386972162388     0.036999444950
    H            0.639930724277    -1.009933865130    -0.939234197471
    H            0.687040185922    -1.088425909190     0.800916236088
    C           -1.915898075543    -0.498405508816     0.042542990587
    H           -0.728319023011     1.074671044705    -0.803801923634
    H           -0.669461358683     1.003409490516     0.932762378756
    C           -3.216473299491     0.294267984511     0.118554117334
    H           -1.921502026429    -1.114258905527    -0.852647778605
    H           -1.863183398264    -1.184688626479     0.883293695922
    H           -3.315703135789     0.965584676036    -0.728005263885
    H           -4.078024239497    -0.363535936911     0.121123547924
    H           -3.256475353632     0.894939699953     1.021165804774

  Mulliken Charges: (a.u.)
   Center  Symbol    Alpha    Beta     Spin     Total
       1     H     0.43071  0.43071  0.00000  0.13859
       2     N     3.69085  3.69085  0.00000 -0.38170
       3     C     3.02237  3.02237  0.00000 -0.04475
       4     H     0.43130  0.43130  0.00000  0.13740
       5     C     3.08932  3.08932  0.00000 -0.17864
       6     H     0.45817  0.45817  0.00000  0.08365
       7     H     0.45630  0.45630  0.00000  0.08740
       8     C     3.09475  3.09475  0.00000 -0.18950
       9     H     0.45837  0.45837  0.00000  0.08326
      10     H     0.45835  0.45835  0.00000  0.08331
      11     C     3.08310  3.08310  0.00000 -0.16619
      12     H     0.45481  0.45481  0.00000  0.09039
      13     H     0.45416  0.45416  0.00000  0.09169
      14     C     3.14989  3.14989  0.00000 -0.29977
      15     H     0.45469  0.45469  0.00000  0.09062
      16     H     0.45440  0.45440  0.00000  0.09120
      17     H     0.45516  0.45516  0.00000  0.08967
      18     H     0.44843  0.44843  0.00000  0.10314
      19     H     0.45488  0.45488  0.00000  0.09024

   Total alpha = 25.00000, Total beta = 25.00000, Total charge = -0.00000

*** Psi4 exiting successfully. Buy a developer a beer!
