  ==> Input File <==

--------------------------------------------------------------------------
set {
	reference rhf
	basis cc-pvtz
}

set_num_threads( 4 )
memory 2 gb

molecule MOL {
0 1

O	 -0.686071	 -0.490769	 2.206964
C	 -0.208767	 -0.802101	 1.169129
C	 1.013382	 -1.669009	 0.999774
O	 -0.695554	 -0.422406	 0.000602
C	 1.612433	 -2.133577	 2.317456
H	 1.731237	 -1.101508	 0.417901
H	 0.726720	 -2.509946	 0.378012
H	 1.912044	 -1.291865	 2.927350
H	 2.483902	 -2.749900	 2.132965
H	 0.898396	 -2.713109	 2.887122
C	 -1.852370	 0.402254	 0.000718
C	 -3.063338	 -0.501097	 -0.000437
H	 -1.831732	 1.039442	 -0.872158
H	 -1.832493	 1.038301	 0.874430
H	 -3.071944	 -1.133732	 -0.879113
H	 -3.966302	 0.097976	 -0.000483
H	 -3.072764	 -1.134834	 0.877435

	symmetry c1
}
set optking {
	frozen_dihedral = ("
		2 4 11 13
	")
}

ee = optimize('scf')
oeprop('DIPOLE', 'QUADRUPOLE', 'MULLIKEN_CHARGES')
f=open( 'psi4out.xyz', 'w' )
f.write( "17  " )
f.write( str(ee) + "\n" )
f.write( MOL.save_string_xyz() )
f.close()
--------------------------------------------------------------------------

    Molecular point group: c1
  Charge       = 0
  Multiplicity = 1
  Basis Set: CC-PVTZ
  Basis Set:
  @DF-RHF Final Energy:  -345.03812924514642
    Total Energy =                       -345.0381292451462514
    Molecular point group: c1
  Basis Set: CC-PVTZ
  Basis Set:
  Basis Set: CC-PVTZ
  Basis Set:
  @DF-RHF Final Energy:  -345.03926099259223
    Total Energy =                       -345.0392609925925740
  Basis Set: CC-PVTZ
  Basis Set:
  Basis Set: CC-PVTZ
  Basis Set:
  @DF-RHF Final Energy:  -345.03942104719999
    Total Energy =                       -345.0394210471999372
  Basis Set: CC-PVTZ
  Basis Set:
  Basis Set: CC-PVTZ
  Basis Set:
  @DF-RHF Final Energy:  -345.03952249761090
    Total Energy =                       -345.0395224976111308
  Basis Set: CC-PVTZ
  Basis Set:
  Basis Set: CC-PVTZ
  Basis Set:
  @DF-RHF Final Energy:  -345.03955326601164
    Total Energy =                       -345.0395532660119784
  Basis Set: CC-PVTZ
  Basis Set:
  Basis Set: CC-PVTZ
  Basis Set:
  @DF-RHF Final Energy:  -345.03955584595360
    Total Energy =                       -345.0395558459540553
  Basis Set: CC-PVTZ
  Basis Set:
  Charge       = 0
  Multiplicity = 1
  Basis Set: CC-PVTZ
  Basis Set:

    Orbital Energies (a.u.)
    -----------------------

    Doubly Occupied:

       1A    -20.592676     2A    -20.532795     3A    -11.364565
       4A    -11.282034     5A    -11.235649     6A    -11.217085
       7A    -11.213731     8A     -1.469173     9A     -1.364983
      10A     -1.069809    11A     -1.029362    12A     -0.916270
      13A     -0.853705    14A     -0.762819    15A     -0.704535
      16A     -0.683281    17A     -0.662601    18A     -0.622214
      19A     -0.609486    20A     -0.570276    21A     -0.549795
      22A     -0.533852    23A     -0.521571    24A     -0.516127
      25A     -0.497470    26A     -0.491921    27A     -0.452852
      28A     -0.439526

  @DF-RHF Final Energy:  -345.03955598071525

   => Energetics <=

    Nuclear Repulsion Energy =            318.4201966200014340
    One-Electron Energy =               -1101.3991783133485569
    Two-Electron Energy =                 437.9394257126316461
    DFT Exchange-Correlation Energy =       0.0000000000000000
    Empirical Dispersion Energy =           0.0000000000000000
    PCM Polarization Energy =               0.0000000000000000
    EFP Energy =                            0.0000000000000000
    Total Energy =                       -345.0395559807154768
    Molecular point group: c1
  Basis Set: CC-PVTZ
  Basis Set:

  -Total Gradient:
     Atom            X                  Y                   Z
    ------   -----------------  -----------------  -----------------
       1       -0.000017207825     0.000010091651    -0.000008853473
       2        0.000359667579     0.000471100702     0.000007727789
       3       -0.000001334129    -0.000007061581     0.000008663863
       4       -0.000412345855    -0.000610156795     0.000067129111
       5        0.000006053056    -0.000000640627    -0.000002928108
       6        0.000000585689    -0.000001622273     0.000002957287
       7        0.000003931540    -0.000002747132    -0.000003504476
       8       -0.000000297822    -0.000000423864    -0.000000334453
       9        0.000000963365    -0.000000322515     0.000001196695
      10       -0.000000665093     0.000000642313    -0.000001734394
      11       -0.000248017647    -0.000331261281    -0.000416257085
      12        0.000016737837     0.000004520998    -0.000000323232
      13        0.000306301419     0.000463773655     0.000343295906
      14       -0.000000909150    -0.000004504561     0.000000253787
      15       -0.000005226486     0.000001452559     0.000003876027
      16       -0.000010907030     0.000002580776    -0.000001108159
      17        0.000002670554     0.000004577979    -0.000000057086

  **** Optimization is complete! (in 7 steps) ****
    Final optimized geometry and variables:
    Molecular point group: c1

    Geometry (in Angstrom), charge = 0, multiplicity = 1:

    O           -0.109848034235     0.269645130419     1.268849404848
    C            0.366811501541    -0.015067555460     0.222898642837
    C            1.607939028758    -0.851312848094     0.036246228686
    O           -0.130040640939     0.366883987157    -0.941271397113
    C            2.223268620763    -1.322169294752     1.344145795807
    H            2.309971854777    -0.258899838942    -0.539954940468
    H            1.337540989424    -1.688876233039    -0.597208571780
    H            2.506017912562    -0.483332299383     1.965900870698
    H            3.107992425872    -1.915082178453     1.146451212443
    H            1.525501626507    -1.927053472705     1.907611112393
    C           -1.295116506530     1.182687805752    -0.958806755155
    C           -2.555907399522     0.344778948958    -0.991180969088
    H           -1.202002082216     1.780879066039    -1.853063545657
    H           -1.285357961547     1.835468650761    -0.100478269689
    H           -2.552015885426    -0.321562963557    -1.845160273574
    H           -3.422632726688     0.991696293100    -1.066604105492
    H           -2.649421731717    -0.244014682425    -0.088331727337

  Mulliken Charges: (a.u.)
   Center  Symbol    Alpha    Beta     Spin     Total
       1     O     4.19923  4.19923  0.00000 -0.39845
       2     C     2.80181  2.80181  0.00000  0.39638
       3     C     3.09425  3.09425  0.00000 -0.18851
       4     O     4.15710  4.15710  0.00000 -0.31421
       5     C     3.13990  3.13990  0.00000 -0.27980
       6     H     0.44168  0.44168  0.00000  0.11663
       7     H     0.44197  0.44197  0.00000  0.11606
       8     H     0.44847  0.44847  0.00000  0.10305
       9     H     0.45057  0.45057  0.00000  0.09887
      10     H     0.44867  0.44867  0.00000  0.10265
      11     C     2.98806  2.98806  0.00000  0.02389
      12     C     3.14715  3.14715  0.00000 -0.29429
      13     H     0.44516  0.44516  0.00000  0.10968
      14     H     0.44841  0.44841  0.00000  0.10317
      15     H     0.45208  0.45208  0.00000  0.09583
      16     H     0.45150  0.45150  0.00000  0.09700
      17     H     0.44398  0.44398  0.00000  0.11203

   Total alpha = 28.00000, Total beta = 28.00000, Total charge = -0.00000
