                              Psi4 1.0.54 Driver

  ==> Input File <==

--------------------------------------------------------------------------
set {
	reference rhf
	basis cc-pvtz
}

set_num_threads( 4 )
memory 2 gb

molecule MOL {
0 1

H	 -3.294565	 0.569785	 0.000000
C	 -2.246225	 0.343737	 0.000000
C	 -1.809462	 -0.973484	 0.000000
C	 -1.312577	 1.353775	 0.000000
H	 -2.523539	 -1.775124	 0.000000
C	 -0.467257	 -1.267606	 0.000000
H	 -1.631287	 2.379013	 0.000000
C	 0.046966	 1.074396	 0.000000
H	 -0.119372	 -2.281828	 0.000000
C	 0.471772	 -0.241514	 0.000000
H	 0.748162	 1.882966	 0.000000
O	 1.760432	 -0.625184	 0.000000
C	 2.768322	 0.317272	 -0.209983
H	 2.676697	 0.787625	 -1.182650
H	 3.702240	 -0.220536	 -0.166086
H	 2.764317	 1.081920	 0.558786

	symmetry c1
}
set optking {
	frozen_dihedral = ("
		13 12 10 8
	")
}

ee,wfn = optimize('scf', return_wfn=True)
oeprop( wfn, 'DIPOLE', 'QUADRUPOLE', 'MULLIKEN_CHARGES')
f=open( 'psi4out.xyz', 'w' )
f.write( "16  " )
f.write( str(ee) + "\n" )
f.write( MOL.save_string_xyz() )
f.close()
--------------------------------------------------------------------------

    Molecular point group: c1
  Charge       = 0
  Multiplicity = 1
  Basis Set: CC-PVTZ
  Basis Set:
  @DF-RHF Final Energy:  -344.70345587168021
    Total Energy =                       -344.7034558716802621
    Molecular point group: c1
  Basis Set: CC-PVTZ
  Basis Set:
  Basis Set: CC-PVTZ
  Basis Set:
  @DF-RHF Final Energy:  -344.70336374614249
    Total Energy =                       -344.7033637461423154
  Basis Set: CC-PVTZ
  Basis Set:
  Basis Set: CC-PVTZ
  Basis Set:
  @DF-RHF Final Energy:  -344.70360264625236
    Total Energy =                       -344.7036026462526479
  Basis Set: CC-PVTZ
  Basis Set:
  Basis Set: CC-PVTZ
  Basis Set:
  @DF-RHF Final Energy:  -344.70360418979345
    Total Energy =                       -344.7036041897932819
  Basis Set: CC-PVTZ
  Basis Set:
  Charge       = 0
  Multiplicity = 1
  Basis Set: CC-PVTZ
  Basis Set:

    Orbital Energies (a.u.)
    -----------------------

    Doubly Occupied:

       1A    -20.580221     2A    -11.293553     3A    -11.278493
       4A    -11.231266     5A    -11.230015     6A    -11.221911
       7A    -11.218059     8A    -11.217028     9A     -1.419667
      10A     -1.150993    11A     -1.025674    12A     -1.016685
      13A     -0.944172    14A     -0.834627    15A     -0.808345
      16A     -0.726123    17A     -0.667783    18A     -0.666587
      19A     -0.660616    20A     -0.619330    21A     -0.590303
      22A     -0.579685    23A     -0.528607    24A     -0.523222
      25A     -0.512258    26A     -0.479586    27A     -0.466667
      28A     -0.339775    29A     -0.310286

  @DF-RHF Final Energy:  -344.70360459621753

   => Energetics <=

    Nuclear Repulsion Energy =            348.8956977616648487
    One-Electron Energy =               -1158.9155351067349784
    Two-Electron Energy =                 465.3162327488524852
    DFT Exchange-Correlation Energy =       0.0000000000000000
    Empirical Dispersion Energy =           0.0000000000000000
    PCM Polarization Energy =               0.0000000000000000
    EFP Energy =                            0.0000000000000000
    Total Energy =                       -344.7036045962175876
    Molecular point group: c1
  Basis Set: CC-PVTZ
  Basis Set:

  -Total Gradient:
     Atom            X                  Y                   Z
    ------   -----------------  -----------------  -----------------
       1        0.000001342471    -0.000000387178    -0.000000226419
       2        0.000010308377     0.000043886287     0.000008526595
       3        0.000033515543    -0.000027605098    -0.000013639587
       4       -0.000044805085    -0.000011163383    -0.000004128665
       5        0.000000756447     0.000001907751     0.000002550557
       6       -0.000038192084    -0.000011159589    -0.000008928463
       7       -0.000000350750     0.000002152213    -0.000001713334
       8        0.000013716085    -0.000016714544     0.000795632535
       9        0.000003969941     0.000000579105     0.000001024530
      10        0.000015442137    -0.000035364038    -0.001613050637
      11       -0.000009519796    -0.000001277267     0.000001068004
      12        0.000072569554     0.000210846808     0.001571716828
      13       -0.000065363199    -0.000150602148    -0.000740316001
      14       -0.000007779344     0.000003329128    -0.000027206445
      15        0.000019474544    -0.000029797750    -0.000001014885
      16       -0.000005084842     0.000021369699     0.000029705386

  **** Optimization is complete! (in 5 steps) ****
    Final optimized geometry and variables:
    Molecular point group: c1

    Geometry (in Angstrom), charge = 0, multiplicity = 1:

    H           -3.294279803664     0.569628111707     0.032435668425
    C           -2.245774529262     0.344259967368     0.030145964484
    C           -1.808415058481    -0.972537441930     0.040616145366
    C           -1.312802396760     1.355021390780     0.017045171256
    H           -2.522115061786    -1.774445519978     0.051051017724
    C           -0.465860877971    -1.265953390742     0.036013199885
    H           -1.632194131931     2.380026093966     0.010412740853
    C            0.046643777080     1.076143438748     0.014573349293
    H           -0.117284965967    -2.279913613329     0.044041916451
    C            0.472218877756    -0.239477813062     0.021395049821
    H            0.747991384363     1.884678766831     0.007210378912
    O            1.761984938656    -0.620857996191     0.035900460728
    C            2.769795085894     0.324217342255    -0.165044521597
    H            2.634139745513     0.854651057902    -1.100956231026
    H            3.698645141553    -0.223179993237    -0.199734994740
    H            2.814413526988     1.039862257918     0.648351162198

  Mulliken Charges: (a.u.)
   Center  Symbol    Alpha    Beta     Spin     Total
       1     H     0.42440  0.42440  0.00000  0.15120
       2     C     3.10067  3.10067  0.00000 -0.20134
       3     C     3.05817  3.05817  0.00000 -0.11635
       4     C     3.06151  3.06151  0.00000 -0.12302
       5     H     0.42298  0.42298  0.00000  0.15404
       6     C     3.11150  3.11150  0.00000 -0.22300
       7     H     0.42359  0.42359  0.00000  0.15283
       8     C     3.14277  3.14277  0.00000 -0.28554
       9     H     0.42086  0.42086  0.00000  0.15829
      10     C     2.85107  2.85107  0.00000  0.29785
      11     H     0.42254  0.42254  0.00000  0.15492
      12     O     4.15148  4.15148  0.00000 -0.30296
      13     C     3.04502  3.04502  0.00000 -0.09003
      14     H     0.46209  0.46209  0.00000  0.07582
      15     H     0.43898  0.43898  0.00000  0.12205
      16     H     0.46238  0.46238  0.00000  0.07523

   Total alpha = 29.00000, Total beta = 29.00000, Total charge = -0.00000

*** Psi4 exiting successfully. Buy a developer a beer!
