  ==> Input File <==

--------------------------------------------------------------------------
set {
	reference rhf
	basis cc-pvtz
}

set_num_threads( 4 )
memory 2 gb

molecule MOL {
0 1

H	 -2.182299	 1.369084	 -1.175776
C	 -1.350785	 2.003521	 -0.899560
C	 -0.040414	 1.232540	 -0.936063
H	 -1.548557	 2.386128	 0.092766
H	 -1.314268	 2.839388	 -1.587960
C	 0.000000	 0.039916	 0.000014
H	 0.795333	 1.878973	 -0.682000
H	 0.167144	 0.870781	 -1.939528
C	 1.286532	 -0.763243	 0.000268
O	 -0.921273	 -0.248000	 0.691924
C	 2.547023	 0.087626	 -0.000114
H	 1.264245	 -1.421103	 -0.864380
H	 1.264290	 -1.420353	 0.865489
H	 2.584452	 0.725630	 -0.872909
H	 3.427035	 -0.544422	 0.000125
H	 2.584484	 0.726356	 0.872143

	symmetry c1
}
set optking {
	frozen_dihedral = ("
		3 6 9 12
	")
}

ee = optimize('scf')
oeprop('DIPOLE', 'QUADRUPOLE', 'MULLIKEN_CHARGES')
f=open( 'psi4out.xyz', 'w' )
f.write( "16  " )
f.write( str(ee) + "\n" )
f.write( MOL.save_string_xyz() )
f.close()
--------------------------------------------------------------------------

    Molecular point group: c1
  Charge       = 0
  Multiplicity = 1
  Basis Set: CC-PVTZ
  Basis Set:
  @DF-RHF Final Energy:  -270.12741156298102
    Total Energy =                       -270.1274115629810240
    Molecular point group: c1
  Basis Set: CC-PVTZ
  Basis Set:
  Basis Set: CC-PVTZ
  Basis Set:
  @DF-RHF Final Energy:  -270.12794386556959
    Total Energy =                       -270.1279438655699323
  Basis Set: CC-PVTZ
  Basis Set:
  Basis Set: CC-PVTZ
  Basis Set:
  @DF-RHF Final Energy:  -270.12868856467765
    Total Energy =                       -270.1286885646777591
  Basis Set: CC-PVTZ
  Basis Set:
  Basis Set: CC-PVTZ
  Basis Set:
  @DF-RHF Final Energy:  -270.12878146339983
    Total Energy =                       -270.1287814633996049
  Basis Set: CC-PVTZ
  Basis Set:
  Basis Set: CC-PVTZ
  Basis Set:
  @DF-RHF Final Energy:  -270.12874361118543
    Total Energy =                       -270.1287436111850866
  Basis Set: CC-PVTZ
  Basis Set:
  Basis Set: CC-PVTZ
  Basis Set:
  @DF-RHF Final Energy:  -270.12884319733445
    Total Energy =                       -270.1288431973348452
  Basis Set: CC-PVTZ
  Basis Set:
  Charge       = 0
  Multiplicity = 1
  Basis Set: CC-PVTZ
  Basis Set:

    Orbital Energies (a.u.)
    -----------------------

    Doubly Occupied:

       1A    -20.537161     2A    -11.317521     3A    -11.232149
       4A    -11.231405     5A    -11.226878     6A    -11.211480
       7A     -1.397481     8A     -1.074028     9A     -1.036069
      10A     -0.909337    11A     -0.865720    12A     -0.724382
      13A     -0.661356    14A     -0.642458    15A     -0.633789
      16A     -0.609447    17A     -0.557129    18A     -0.544363
      19A     -0.535901    20A     -0.511464    21A     -0.507100
      22A     -0.497331    23A     -0.481351    24A     -0.398580

  @DF-RHF Final Energy:  -270.12884404514000

   => Energetics <=

    Nuclear Repulsion Energy =            240.9343959281775085
    One-Electron Energy =                -843.4387210434215376
    Two-Electron Energy =                 332.3754810701040014
    DFT Exchange-Correlation Energy =       0.0000000000000000
    Empirical Dispersion Energy =           0.0000000000000000
    PCM Polarization Energy =               0.0000000000000000
    EFP Energy =                            0.0000000000000000
    Total Energy =                       -270.1288440451399993
    Molecular point group: c1
  Basis Set: CC-PVTZ
  Basis Set:

  -Total Gradient:
     Atom            X                  Y                   Z
    ------   -----------------  -----------------  -----------------
       1        0.000008094474     0.000007641682     0.000009677635
       2       -0.000003259734    -0.000026486177    -0.000033259595
       3        0.000309204009     0.000459853234     0.000616074419
       4       -0.000004729243     0.000007077664     0.000012090385
       5        0.000004434190     0.000002633550     0.000007369306
       6       -0.000534774389    -0.000722384410    -0.000679902106
       7       -0.000002916324    -0.000009961012    -0.000030563457
       8        0.000011357635    -0.000034697421    -0.000022105373
       9        0.000682265128     0.001003024900    -0.000382732200
      10       -0.000012500442    -0.000017039962    -0.000005814249
      11       -0.000023712546    -0.000012892381    -0.000006270751
      12       -0.000411258688    -0.000646072367     0.000526581775
      13       -0.000005237507    -0.000005983546     0.000001624404
      14       -0.000010645635     0.000009315065    -0.000006563058
      15        0.000002543666    -0.000010491435     0.000002568408
      16       -0.000008864596    -0.000003537385    -0.000008775543

  **** Optimization is complete! (in 7 steps) ****
    Final optimized geometry and variables:
    Molecular point group: c1

    Geometry (in Angstrom), charge = 0, multiplicity = 1:

    H           -2.420648884164     0.848373918925    -1.121645647609
    C           -1.673665882289     1.544187972919    -0.762542750532
    C           -0.301200416409     0.891233655615    -0.703935446500
    H           -1.985127217174     1.879211135026     0.217142710408
    H           -1.654542160072     2.398774400953    -1.428350031703
    C           -0.236272262063    -0.312476586641     0.215443704855
    H            0.444489051083     1.603399874523    -0.362875722674
    H            0.024836681581     0.580009175443    -1.692869400969
    C            1.020263040181    -1.165454711377     0.186749811299
    O           -1.143394658182    -0.602009608445     0.926292826252
    C            2.346053783319    -0.408587128921     0.134806434816
    H            0.933634665838    -1.815025225087    -0.681379067282
    H            0.979002690706    -1.804412379015     1.057986147837
    H            2.452716022371     0.169195629957    -0.774454094981
    H            3.171134553375    -1.108388022510     0.176238617484
    H            2.446497889291     0.267494460093     0.976405383803

  Mulliken Charges: (a.u.)
   Center  Symbol    Alpha    Beta     Spin     Total
       1     H     0.44926  0.44926  0.00000  0.10147
       2     C     3.14204  3.14204  0.00000 -0.28409
       3     C     3.10810  3.10810  0.00000 -0.21620
       4     H     0.44589  0.44589  0.00000  0.10823
       5     H     0.45091  0.45091  0.00000  0.09819
       6     C     2.86583  2.86583  0.00000  0.26835
       7     H     0.44323  0.44323  0.00000  0.11354
       8     H     0.44395  0.44395  0.00000  0.11210
       9     C     3.09408  3.09408  0.00000 -0.18815
      10     O     4.17326  4.17326  0.00000 -0.34652
      11     C     3.15820  3.15820  0.00000 -0.31640
      12     H     0.44798  0.44798  0.00000  0.10405
      13     H     0.43630  0.43630  0.00000  0.12740
      14     H     0.45144  0.45144  0.00000  0.09711
      15     H     0.44145  0.44145  0.00000  0.11710
      16     H     0.44809  0.44809  0.00000  0.10383

   Total alpha = 24.00000, Total beta = 24.00000, Total charge = -0.00000
