  ==> Input File <==

--------------------------------------------------------------------------
set {
	reference rhf
	basis cc-pvtz
}

set_num_threads( 4 )
memory 2 gb

molecule MOL {
0 1

H	 2.182630	 -1.170055	 -1.852812
O	 1.612690	 -1.313022	 -1.112228
C	 0.637205	 -0.409953	 -1.151154
C	 -0.318151	 -0.570512	 0.000144
O	 0.566647	 0.403797	 -2.006024
C	 -1.454884	 0.441630	 -0.000560
H	 -0.695908	 -1.587285	 -0.036793
H	 0.266307	 -0.505936	 0.912360
C	 -2.822577	 -0.232186	 0.000063
H	 -1.359760	 1.084704	 -0.867077
H	 -1.359641	 1.085996	 0.864983
H	 -2.954352	 -0.858985	 -0.875745
H	 -3.615886	 0.505352	 0.000019
H	 -2.953878	 -0.858359	 0.876394

	symmetry c1
}
set optking {
	frozen_dihedral = ("
		7 4 6 10
	")
}

ee = optimize('scf')
oeprop('DIPOLE', 'QUADRUPOLE', 'MULLIKEN_CHARGES')
f=open( 'psi4out.xyz', 'w' )
f.write( "14  " )
f.write( str(ee) + "\n" )
f.write( MOL.save_string_xyz() )
f.close()
--------------------------------------------------------------------------

    Molecular point group: c1
  Charge       = 0
  Multiplicity = 1
  Basis Set: CC-PVTZ
  Basis Set:
  @DF-RHF Final Energy:  -305.99593372987306
    Total Energy =                       -305.9959337298732862
    Molecular point group: c1
  Basis Set: CC-PVTZ
  Basis Set:
  Basis Set: CC-PVTZ
  Basis Set:
  @DF-RHF Final Energy:  -305.99622964630350
    Total Energy =                       -305.9962296463035045
  Basis Set: CC-PVTZ
  Basis Set:
  Basis Set: CC-PVTZ
  Basis Set:
  @DF-RHF Final Energy:  -305.99617563862466
    Total Energy =                       -305.9961756386246066
  Basis Set: CC-PVTZ
  Basis Set:
  Basis Set: CC-PVTZ
  Basis Set:
  @DF-RHF Final Energy:  -305.99632060623134
    Total Energy =                       -305.9963206062312793
  Basis Set: CC-PVTZ
  Basis Set:
  Basis Set: CC-PVTZ
  Basis Set:
  @DF-RHF Final Energy:  -305.99632270383302
    Total Energy =                       -305.9963227038332434
  Basis Set: CC-PVTZ
  Basis Set:
  Basis Set: CC-PVTZ
  Basis Set:
  @DF-RHF Final Energy:  -305.99632402854184
    Total Energy =                       -305.9963240285416077
  Basis Set: CC-PVTZ
  Basis Set:
  Charge       = 0
  Multiplicity = 1
  Basis Set: CC-PVTZ
  Basis Set:

    Orbital Energies (a.u.)
    -----------------------

    Doubly Occupied:

       1A    -20.604683     2A    -20.541884     3A    -11.374991
       4A    -11.239817     5A    -11.222158     6A    -11.214167
       7A     -1.478744     8A     -1.370158     9A     -1.080941
      10A     -0.980785    11A     -0.859980    12A     -0.791908
      13A     -0.705520    14A     -0.695697    15A     -0.662753
      16A     -0.615601    17A     -0.598727    18A     -0.569482
      19A     -0.556734    20A     -0.497150    21A     -0.491152
      22A     -0.486597    23A     -0.478353    24A     -0.449884

  @DF-RHF Final Energy:  -305.99632466234402

   => Energetics <=

    Nuclear Repulsion Energy =            241.0536995052143254
    One-Electron Energy =                -894.9643197982486527
    Two-Electron Energy =                 347.9142956306903898
    DFT Exchange-Correlation Energy =       0.0000000000000000
    Empirical Dispersion Energy =           0.0000000000000000
    PCM Polarization Energy =               0.0000000000000000
    EFP Energy =                            0.0000000000000000
    Total Energy =                       -305.9963246623439090
    Molecular point group: c1
  Basis Set: CC-PVTZ
  Basis Set:

  -Total Gradient:
     Atom            X                  Y                   Z
    ------   -----------------  -----------------  -----------------
       1        0.000005051664    -0.000004603356     0.000006846544
       2        0.000053922612    -0.000023558706    -0.000040784758
       3       -0.000057875000     0.000059467121    -0.000030114108
       4        0.000022589293     0.000056292795    -0.000475572767
       5        0.000038224259    -0.000041910286     0.000040241920
       6       -0.000268784795    -0.000321517382    -0.000150193378
       7        0.000006390436    -0.000007716794     0.000420411691
       8        0.000014777668     0.000009809901     0.000001984440
       9       -0.000005251862     0.000018568106     0.000004079961
      10        0.000219445574     0.000253497054     0.000229734540
      11       -0.000024995867    -0.000004451559    -0.000007877457
      12        0.000006249263     0.000001488289     0.000009672413
      13       -0.000011710687    -0.000000722854    -0.000004746593
      14        0.000001967440     0.000005357673    -0.000003682447

  **** Optimization is complete! (in 7 steps) ****
    Final optimized geometry and variables:
    Molecular point group: c1

    Geometry (in Angstrom), charge = 0, multiplicity = 1:

    H            2.470003601802    -0.873911379004    -1.091095501686
    O            1.895883936137    -1.003227409707    -0.351302775761
    C            0.908971784265    -0.114507475431    -0.424595228820
    C           -0.052640405990    -0.268532886455     0.725660367422
    O            0.839003380163     0.672656676341    -1.303874383186
    C           -1.209593794797     0.740212977513     0.740252216712
    H           -0.414743506889    -1.290119495098     0.682927626172
    H            0.541196519103    -0.215811533792     1.630569191314
    C           -2.582587387337     0.074980257262     0.748211471091
    H           -1.123832365625     1.387645028092    -0.120353531541
    H           -1.116665668320     1.375812587267     1.613008179116
    H           -2.724285022477    -0.535445109322    -0.137300453918
    H           -3.371584839817     0.817292242417     0.767781893533
    H           -2.708074430687    -0.564635135416     1.615712081447

  Mulliken Charges: (a.u.)
   Center  Symbol    Alpha    Beta     Spin     Total
       1     H     0.38246  0.38246  0.00000  0.23508
       2     O     4.16016  4.16016  0.00000 -0.32033
       3     C     2.80082  2.80082  0.00000  0.39836
       4     C     3.11438  3.11438  0.00000 -0.22876
       5     O     4.19082  4.19082  0.00000 -0.38164
       6     C     3.08941  3.08941  0.00000 -0.17883
       7     H     0.43756  0.43756  0.00000  0.12487
       8     H     0.43251  0.43251  0.00000  0.13498
       9     C     3.14879  3.14879  0.00000 -0.29758
      10     H     0.43539  0.43539  0.00000  0.12921
      11     H     0.45107  0.45107  0.00000  0.09786
      12     H     0.45344  0.45344  0.00000  0.09313
      13     H     0.44754  0.44754  0.00000  0.10492
      14     H     0.45563  0.45563  0.00000  0.08874

   Total alpha = 24.00000, Total beta = 24.00000, Total charge =  0.00000
