  ==> Input File <==

--------------------------------------------------------------------------
set {
	reference rhf
	basis 6-31G*
}

set_num_threads( 1 )
memory 2 gb

molecule MOL {
0 1

H	 1.940974	 -3.715665	 0.775966
C	 2.183352	 -2.690733	 0.514206
C	 0.920622	 -1.836877	 0.407406
H	 2.854166	 -2.305693	 1.277082
H	 2.728341	 -2.710331	 -0.425394
C	 1.217350	 -0.386724	 0.039429
H	 0.378002	 -1.850916	 1.347489
H	 0.256761	 -2.268049	 -0.340103
N	 0.000003	 0.397874	 -0.023260
H	 1.858879	 0.051776	 0.799115
H	 1.782310	 -0.355015	 -0.898223
C	 -1.217365	 -0.386708	 0.039277
H	 -0.000031	 1.072115	 0.718656
C	 -2.452633	 0.504241	 -0.042481
H	 -1.215291	 -1.074557	 -0.802042
H	 -1.269739	 -1.003477	 0.942735
C	 -3.758029	 -0.289423	 -0.010781
H	 -2.394220	 1.093569	 -0.952170
H	 -2.440793	 1.210787	 0.785871
H	 -3.816659	 -0.981993	 -0.845726
H	 -4.617837	 0.370165	 -0.069296
H	 -3.847478	 -0.867502	 0.904682

	symmetry c1
}
set optking {
	frozen_dihedral = ("
		15 12 14 18
	")
}

ee = energy('scf')
oeprop('DIPOLE', 'QUADRUPOLE', 'MULLIKEN_CHARGES')
f=open( 'psi4out.xyz', 'w' )
f.write( "22  " )
f.write( str(ee) + "\n" )
f.write( MOL.save_string_xyz() )
f.close()
--------------------------------------------------------------------------

    Molecular point group: c1

    Geometry (in Angstrom), charge = 0, multiplicity = 1:

       Center              X                  Y                   Z               Mass
    ------------   -----------------  -----------------  -----------------  -----------------
           H          2.387412528833    -3.034276018722     0.634720697510     1.007825032070
           C          2.629790528833    -2.009344018722     0.372960697510    12.000000000000
           C          1.367060528833    -1.155488018722     0.266160697510    12.000000000000
           H          3.300604528833    -1.624304018722     1.135836697510     1.007825032070
           H          3.174779528833    -2.028942018722    -0.566639302490     1.007825032070
           C          1.663788528833     0.294664981278    -0.101816302490    12.000000000000
           H          0.824440528833    -1.169527018722     1.206243697510     1.007825032070
           H          0.703199528833    -1.586660018722    -0.481348302490     1.007825032070
           N          0.446441528833     1.079262981278    -0.164505302490    14.003074004780
           H          2.305317528833     0.733164981278     0.657869697510     1.007825032070
           H          2.228748528833     0.326373981278    -1.039468302490     1.007825032070
           C         -0.770926471167     0.294680981278    -0.101968302490    12.000000000000
           H          0.446407528833     1.753503981278     0.577410697510     1.007825032070
           C         -2.006194471167     1.185629981278    -0.183726302490    12.000000000000
           H         -0.768852471167    -0.393168018722    -0.943287302490     1.007825032070
           H         -0.823300471167    -0.322088018722     0.801489697510     1.007825032070
           C         -3.311590471167     0.391965981278    -0.152026302490    12.000000000000
           H         -1.947781471167     1.774957981278    -1.093415302490     1.007825032070
           H         -1.994354471167     1.892175981278     0.644625697510     1.007825032070
           H         -3.370220471167    -0.300604018722    -0.986971302490     1.007825032070
           H         -4.171398471167     1.051553981278    -0.210541302490     1.007825032070
           H         -3.401039471167    -0.186113018722     0.763436697510     1.007825032070

  Charge       = 0
  Multiplicity = 1
  Basis Set: 6-31G*
  Basis Set:

    Orbital Energies (a.u.)
    -----------------------

    Doubly Occupied:

       1A    -15.530696     2A    -11.238117     3A    -11.235223
       4A    -11.212598     5A    -11.211475     6A    -11.209392
       7A    -11.208872     8A     -1.207730     9A     -1.054428
      10A     -1.027160    11A     -0.928591    12A     -0.880264
      13A     -0.820012    14A     -0.773139    15A     -0.674099
      16A     -0.624000    17A     -0.622366    18A     -0.611699
      19A     -0.572003    20A     -0.561161    21A     -0.540477
      22A     -0.532497    23A     -0.502989    24A     -0.491276
      25A     -0.482119    26A     -0.470687    27A     -0.465447
      28A     -0.453392    29A     -0.349424

  @DF-RHF Final Energy:  -290.36247593334394

   => Energetics <=

    Nuclear Repulsion Energy =            322.9082421881993241
    One-Electron Energy =               -1031.5588437692633761
    Two-Electron Energy =                 418.2881256477199940
    DFT Exchange-Correlation Energy =       0.0000000000000000
    Empirical Dispersion Energy =           0.0000000000000000
    PCM Polarization Energy =               0.0000000000000000
    EFP Energy =                            0.0000000000000000
    Total Energy =                       -290.3624759333440579

  Mulliken Charges: (a.u.)
   Center  Symbol    Alpha    Beta     Spin     Total
       1     H     0.41878  0.41878  0.00000  0.16243
       2     C     3.23839  3.23839  0.00000 -0.47678
       3     C     3.17223  3.17223  0.00000 -0.34447
       4     H     0.42260  0.42260  0.00000  0.15481
       5     H     0.42082  0.42082  0.00000  0.15835
       6     C     3.04086  3.04086  0.00000 -0.08171
       7     H     0.41935  0.41935  0.00000  0.16129
       8     H     0.41727  0.41727  0.00000  0.16547
       9     N     3.85939  3.85939  0.00000 -0.71878
      10     H     0.42730  0.42730  0.00000  0.14541
      11     H     0.42309  0.42309  0.00000  0.15381
      12     C     3.05797  3.05797  0.00000 -0.11593
      13     H     0.33276  0.33276  0.00000  0.33448
      14     C     3.15103  3.15103  0.00000 -0.30206
      15     H     0.41912  0.41912  0.00000  0.16176
      16     H     0.43305  0.43305  0.00000  0.13390
      17     C     3.24303  3.24303  0.00000 -0.48605
      18     H     0.41360  0.41360  0.00000  0.17280
      19     H     0.42792  0.42792  0.00000  0.14416
      20     H     0.42121  0.42121  0.00000  0.15758
      21     H     0.41784  0.41784  0.00000  0.16431
      22     H     0.42239  0.42239  0.00000  0.15522

   Total alpha = 29.00000, Total beta = 29.00000, Total charge = -0.00000
