                              Psi4 1.0.54 Driver

  ==> Input File <==

--------------------------------------------------------------------------
set {
	reference rhf
	basis cc-pvtz
}

set_num_threads( 4 )
memory 2 gb

molecule MOL {
0 1

H	 -4.375826	 -1.295027	 -0.416832
C	 -3.512288	 -0.922464	 0.094838
C	 -2.318788	 -1.188133	 -0.376676
H	 -3.648747	 -0.337413	 0.983035
O	 -1.189946	 -0.765863	 0.237511
H	 -2.170807	 -1.766251	 -1.270549
C	 0.026572	 -0.995256	 -0.379403
C	 1.057223	 0.049888	 -0.004615
H	 -0.054361	 -1.010670	 -1.459674
H	 0.397526	 -1.952058	 -0.044198
F	 2.203233	 -0.234060	 -0.590375
F	 0.698147	 1.254887	 -0.392621
F	 1.266440	 0.094219	 1.288722

	symmetry c1
}
set optking {
	frozen_dihedral = ("
		3 5 7 9
	")
}

ee,wfn = optimize('scf', return_wfn=True)
oeprop( wfn, 'DIPOLE', 'QUADRUPOLE', 'MULLIKEN_CHARGES')
f=open( 'psi4out.xyz', 'w' )
f.write( "13  " )
f.write( str(ee) + "\n" )
f.write( MOL.save_string_xyz() )
f.close()
--------------------------------------------------------------------------

    Molecular point group: c1
  Charge       = 0
  Multiplicity = 1
  Basis Set: CC-PVTZ
  Basis Set:
  @DF-RHF Final Energy:  -527.74007084569052
    Total Energy =                       -527.7400708456904113
    Molecular point group: c1
  Basis Set: CC-PVTZ
  Basis Set:
  Basis Set: CC-PVTZ
  Basis Set:
  @DF-RHF Final Energy:  -527.74093856959769
    Total Energy =                       -527.7409385695975743
  Basis Set: CC-PVTZ
  Basis Set:
  Basis Set: CC-PVTZ
  Basis Set:
  @DF-RHF Final Energy:  -527.74118087402633
    Total Energy =                       -527.7411808740265542
  Basis Set: CC-PVTZ
  Basis Set:
  Basis Set: CC-PVTZ
  Basis Set:
  @DF-RHF Final Energy:  -527.74126012955276
    Total Energy =                       -527.7412601295527566
  Basis Set: CC-PVTZ
  Basis Set:
  @DF-RHF Final Energy:  -527.52258900940092
    Total Energy =                       -527.5225890094004626
  @DF-RHF Final Energy:  -527.69198718864391
    Total Energy =                       -527.6919871886441342
  @DF-RHF Final Energy:  -527.73957634125429
    Total Energy =                       -527.7395763412544056
  @DF-RHF Final Energy:  -527.74055036270897
    Total Energy =                       -527.7405503627093140
  @DF-RHF Final Energy:  -527.74143751368888
    Total Energy =                       -527.7414375136891067
  Basis Set: CC-PVTZ
  Basis Set:
  @DF-RHF Final Energy:  -527.74152211701733
    Total Energy =                       -527.7415221170176665
  Basis Set: CC-PVTZ
  Basis Set:
  Basis Set: CC-PVTZ
  Basis Set:
  @DF-RHF Final Energy:  -527.74152416102402
    Total Energy =                       -527.7415241610240173
  Basis Set: CC-PVTZ
  Basis Set:
  Basis Set: CC-PVTZ
  Basis Set:
  @DF-RHF Final Energy:  -527.74152735912617
    Total Energy =                       -527.7415273591261666
  Basis Set: CC-PVTZ
  Basis Set:
  Charge       = 0
  Multiplicity = 1
  Basis Set: CC-PVTZ
  Basis Set:

    Orbital Energies (a.u.)
    -----------------------

    Doubly Occupied:

       1A    -26.339913     2A    -26.336826     3A    -26.336253
       4A    -20.603049     5A    -11.497874     6A    -11.319673
       7A    -11.300990     8A    -11.218274     9A     -1.748548
      10A     -1.644689    11A     -1.643207    12A     -1.445259
      13A     -1.091059    14A     -1.019986    15A     -0.930062
      16A     -0.844570    17A     -0.838246    18A     -0.812482
      19A     -0.805811    20A     -0.730134    21A     -0.719421
      22A     -0.706049    23A     -0.684326    24A     -0.664935
      25A     -0.659820    26A     -0.648387    27A     -0.640718
      28A     -0.589963    29A     -0.564010    30A     -0.531393
      31A     -0.513318    32A     -0.361466

  @DF-RHF Final Energy:  -527.74152826440354

   => Energetics <=

    Nuclear Repulsion Energy =            408.0572529363647050
    One-Electron Energy =               -1540.0161363481443004
    Two-Electron Energy =                 604.2173551473761108
    DFT Exchange-Correlation Energy =       0.0000000000000000
    Empirical Dispersion Energy =           0.0000000000000000
    PCM Polarization Energy =               0.0000000000000000
    EFP Energy =                            0.0000000000000000
    Total Energy =                       -527.7415282644035415
    Molecular point group: c1
  Basis Set: CC-PVTZ
  Basis Set:

  -Total Gradient:
     Atom            X                  Y                   Z
    ------   -----------------  -----------------  -----------------
       1       -0.000012972402    -0.000012016629     0.000005922114
       2       -0.000020262096    -0.000004313326    -0.000004328117
       3        0.000032581929     0.000304448095    -0.000547526778
       4       -0.000004087943     0.000007244221     0.000011160681
       5       -0.000098109989    -0.000532009212     0.000901067044
       6       -0.000007385437    -0.000025475653    -0.000005073041
       7        0.000309354441     0.000789609854    -0.000782883390
       8        0.000005159667     0.000006674421    -0.000043128427
       9       -0.000229958514    -0.000522384845     0.000419639898
      10        0.000010053565    -0.000014135869     0.000006736920
      11        0.000031040756    -0.000031975223    -0.000006157611
      12       -0.000014384706     0.000002458724     0.000000800063
      13       -0.000001029273     0.000031875441     0.000043770639

  **** Optimization is complete! (in 13 steps) ****
    Final optimized geometry and variables:
    Molecular point group: c1

    Geometry (in Angstrom), charge = 0, multiplicity = 1:

    H           -4.374787243473    -0.695713481698     0.455596751666
    C           -3.441828531242    -0.262044852739     0.752738041898
    C           -2.338257887806    -0.622756722115     0.144290850864
    H           -3.437896741327     0.473026588514     1.533442113159
    O           -1.138792929424    -0.073099973001     0.431087558182
    H           -2.330635232370    -1.358818879243    -0.640463633309
    C           -0.005167534289    -0.809444553521     0.131995293743
    C            1.117063393945     0.142363848180    -0.210682314478
    H           -0.154049517001    -1.461925123801    -0.719890024033
    H            0.310259113650    -1.407778185847     0.978806965689
    F            2.208527843327    -0.549804330421    -0.472376210271
    F            0.839168337436     0.866512977708    -1.269455334638
    F            1.389436796565     0.961180596290     0.776730331623

  Mulliken Charges: (a.u.)
   Center  Symbol    Alpha    Beta     Spin     Total
       1     H     0.42493  0.42493  0.00000  0.15015
       2     C     3.19195  3.19195  0.00000 -0.38389
       3     C     2.96779  2.96779  0.00000  0.06442
       4     H     0.42327  0.42327  0.00000  0.15345
       5     O     4.14178  4.14178  0.00000 -0.28356
       6     H     0.43568  0.43568  0.00000  0.12864
       7     C     3.00091  3.00091  0.00000 -0.00181
       8     C     2.67406  2.67406  0.00000  0.65188
       9     H     0.45992  0.45992  0.00000  0.08015
      10     H     0.45242  0.45242  0.00000  0.09517
      11     F     4.61248  4.61248  0.00000 -0.22496
      12     F     4.60816  4.60816  0.00000 -0.21631
      13     F     4.60666  4.60666  0.00000 -0.21331

   Total alpha = 32.00000, Total beta = 32.00000, Total charge = -0.00000

*** Psi4 exiting successfully. Buy a developer a beer!
