  ==> Input File <==

--------------------------------------------------------------------------
set {
	reference rhf
	basis cc-pvtz
}

set_num_threads( 4 )
memory 2 gb

molecule MOL {
0 1

H	 2.828711	 -0.346904	 0.001083
C	 1.876752	 0.015931	 -0.363450
C	 0.776285	 -0.474665	 0.563092
H	 1.728113	 -0.357244	 -1.367440
H	 1.906171	 1.096574	 -0.386153
N	 -0.540022	 0.017605	 0.071630
H	 0.707111	 -1.548969	 0.573035
H	 0.886169	 -0.084184	 1.560432
O	 -0.656290	 0.180914	 -1.096277
O	 -1.373057	 0.239913	 0.884666

	symmetry c1
}
set optking {
	frozen_dihedral = ("
		9 6 3 2
	")
}

ee = optimize('scf')
oeprop('DIPOLE', 'QUADRUPOLE', 'MULLIKEN_CHARGES')
f=open( 'psi4out.xyz', 'w' )
f.write( "10  " )
f.write( str(ee) + "\n" )
f.write( MOL.save_string_xyz() )
f.close()
--------------------------------------------------------------------------

    Molecular point group: c1
  Charge       = 0
  Multiplicity = 1
  Basis Set: CC-PVTZ
  Basis Set:
  @DF-RHF Final Energy:  -282.81169387249366
    Total Energy =                       -282.8116938724938336
    Molecular point group: c1
  Basis Set: CC-PVTZ
  Basis Set:
  Basis Set: CC-PVTZ
  Basis Set:
  @DF-RHF Final Energy:  -282.80874435136826
    Total Energy =                       -282.8087443513681478
  Basis Set: CC-PVTZ
  Basis Set:
  Basis Set: CC-PVTZ
  Basis Set:
  @DF-RHF Final Energy:  -282.81011362285824
    Total Energy =                       -282.8101136228584664
  Basis Set: CC-PVTZ
  Basis Set:
  Basis Set: CC-PVTZ
  Basis Set:
  @DF-RHF Final Energy:  -282.81274467506427
    Total Energy =                       -282.8127446750642093
  Basis Set: CC-PVTZ
  Basis Set:
  Basis Set: CC-PVTZ
  Basis Set:
  @DF-RHF Final Energy:  -282.81294669866531
    Total Energy =                       -282.8129466986652574
  Basis Set: CC-PVTZ
  Basis Set:
  Basis Set: CC-PVTZ
  Basis Set:
  @DF-RHF Final Energy:  -282.81296465373703
    Total Energy =                       -282.8129646537370832
  Basis Set: CC-PVTZ
  Basis Set:
  Charge       = 0
  Multiplicity = 1
  Basis Set: CC-PVTZ
  Basis Set:

    Orbital Energies (a.u.)
    -----------------------

    Doubly Occupied:

       1A    -20.592945     2A    -20.591211     3A    -15.839411
       4A    -11.303033     5A    -11.244771     6A     -1.638519
       7A     -1.422699     8A     -1.124320     9A     -0.966988
      10A     -0.835895    11A     -0.764351    12A     -0.748923
      13A     -0.731986    14A     -0.644204    15A     -0.593135
      16A     -0.564070    17A     -0.539352    18A     -0.489907
      19A     -0.479729    20A     -0.455802

  @DF-RHF Final Energy:  -282.81296623174990

   => Energetics <=

    Nuclear Repulsion Energy =            186.5716305809108917
    One-Electron Energy =                -755.6266986396610719
    Two-Electron Energy =                 286.2421018270001696
    DFT Exchange-Correlation Energy =       0.0000000000000000
    Empirical Dispersion Energy =           0.0000000000000000
    PCM Polarization Energy =               0.0000000000000000
    EFP Energy =                            0.0000000000000000
    Total Energy =                       -282.8129662317500106
    Molecular point group: c1
  Basis Set: CC-PVTZ
  Basis Set:

  -Total Gradient:
     Atom            X                  Y                   Z
    ------   -----------------  -----------------  -----------------
       1       -0.000017035297    -0.000000367615    -0.000001707055
       2       -0.000027376184    -0.000116085387    -0.000084823682
       3        0.000033028858     0.000194012241     0.000174844081
       4        0.000019916143    -0.000001167441    -0.000033818293
       5       -0.000001839566     0.000002964530     0.000004281955
       6        0.000058005223    -0.000286312318    -0.000019953778
       7        0.000016950725     0.000013637431    -0.000003158092
       8        0.000010260160    -0.000007080638    -0.000001169952
       9       -0.000037530298     0.000183533282     0.000072750953
      10       -0.000054379764     0.000016865915    -0.000107246138

  **** Optimization is complete! (in 7 steps) ****
    Final optimized geometry and variables:
    Molecular point group: c1

    Geometry (in Angstrom), charge = 0, multiplicity = 1:

    H            2.854121907340    -0.358930756676     0.028636699925
    C            1.921038302929     0.009009331038    -0.379728283219
    C            0.795579808290    -0.446074769618     0.522826774165
    H            1.803333004855    -0.374423273566    -1.381141621519
    H            1.971777103906     1.088626931229    -0.426464096229
    N           -0.544894163372     0.031268914367     0.067407115445
    H            0.702010280093    -1.523043238884     0.541937032944
    H            0.891316479555    -0.090930122450     1.534380651971
    O           -0.713578529275     0.194902589453    -1.093081419784
    O           -1.365590093566     0.184935272602     0.907974826986

  Mulliken Charges: (a.u.)
   Center  Symbol    Alpha    Beta     Spin     Total
       1     H     0.44932  0.44932  0.00000  0.10135
       2     C     3.13986  3.13986  0.00000 -0.27972
       3     C     3.04179  3.04179  0.00000 -0.08358
       4     H     0.43746  0.43746  0.00000  0.12507
       5     H     0.44483  0.44483  0.00000  0.11034
       6     N     3.27690  3.27690  0.00000  0.44620
       7     H     0.43619  0.43619  0.00000  0.12762
       8     H     0.43129  0.43129  0.00000  0.13742
       9     O     4.17108  4.17108  0.00000 -0.34215
      10     O     4.17128  4.17128  0.00000 -0.34256

   Total alpha = 20.00000, Total beta = 20.00000, Total charge = -0.00000
