                              Psi4 1.0.54 Driver

  ==> Input File <==

--------------------------------------------------------------------------
set {
	reference rhf
	basis cc-pvtz
}

set_num_threads( 4 )
memory 2 gb

molecule MOL {
0 1

H	 0.457679	 -1.064789	 -4.576211
O	 1.383512	 -1.220940	 -4.592933
C	 2.020227	 -0.473634	 -3.590235
C	 1.771429	 -1.005827	 -2.186826
H	 3.077636	 -0.521019	 -3.812991
H	 1.724822	 0.572071	 -3.650943
C	 0.318538	 -0.907521	 -1.727163
H	 2.098569	 -2.040492	 -2.146759
H	 2.404229	 -0.447787	 -1.500857
C	 0.113298	 -1.420414	 -0.302504
H	 -0.311795	 -1.469862	 -2.407939
H	 -0.007533	 0.129699	 -1.783192
C	 -1.311023	 -1.277304	 0.237018
H	 0.412711	 -2.464480	 -0.252450
H	 0.786411	 -0.881471	 0.358501
C	 -2.041121	 -0.006551	 -0.194127
H	 -1.888548	 -2.136293	 -0.093331
H	 -1.289731	 -1.328757	 1.323321
C	 -3.489218	 0.042606	 0.286507
H	 -2.022185	 0.066287	 -1.279394
H	 -1.518764	 0.869305	 0.178730
C	 -4.219984	 1.311773	 -0.139038
H	 -4.022855	 -0.824300	 -0.093339
H	 -3.510372	 -0.038577	 1.370031
H	 -4.244251	 1.405725	 -1.219696
H	 -5.244345	 1.313233	 0.215630
H	 -3.732090	 2.196311	 0.257073

	symmetry c1
}
set optking {
	frozen_dihedral = ("
		14 10 13 16
	")
}

ee,wfn = optimize('scf', return_wfn=True)
oeprop( wfn, 'DIPOLE', 'QUADRUPOLE', 'MULLIKEN_CHARGES')
f=open( 'psi4out.xyz', 'w' )
f.write( "27  " )
f.write( str(ee) + "\n" )
f.write( MOL.save_string_xyz() )
f.close()
--------------------------------------------------------------------------

    Molecular point group: c1
  Charge       = 0
  Multiplicity = 1
  Basis Set: CC-PVTZ
  Basis Set:
  @DF-RHF Final Energy:  -388.42330003161368
    Total Energy =                       -388.4233000316132802
    Molecular point group: c1
  Basis Set: CC-PVTZ
  Basis Set:
  Basis Set: CC-PVTZ
  Basis Set:
  @DF-RHF Final Energy:  -388.25264814719765
    Total Energy =                       -388.2526481471970783
  Basis Set: CC-PVTZ
  Basis Set:
  Basis Set: CC-PVTZ
  Basis Set:
  @DF-RHF Final Energy:  -388.36960653051648
    Total Energy =                       -388.3696065305160801
  Basis Set: CC-PVTZ
  Basis Set:
  Basis Set: CC-PVTZ
  Basis Set:
  @DF-RHF Final Energy:  -388.42146723525474
    Total Energy =                       -388.4214672352545676
  Basis Set: CC-PVTZ
  Basis Set:
  @DF-RHF Final Energy:  -388.42469001089830
    Total Energy =                       -388.4246900108978480
  @DF-RHF Final Energy:  -388.42506327895103
    Total Energy =                       -388.4250632789513702
  Basis Set: CC-PVTZ
  Basis Set:
  @DF-RHF Final Energy:  -388.42508485220731
    Total Energy =                       -388.4250848522078741
  Basis Set: CC-PVTZ
  Basis Set:
  Basis Set: CC-PVTZ
  Basis Set:
  @DF-RHF Final Energy:  -388.42511694460995
    Total Energy =                       -388.4251169446101812
  Basis Set: CC-PVTZ
  Basis Set:
  Basis Set: CC-PVTZ
  Basis Set:
  @DF-RHF Final Energy:  -388.42512065544872
    Total Energy =                       -388.4251206554490636
  Basis Set: CC-PVTZ
  Basis Set:
  Charge       = 0
  Multiplicity = 1
  Basis Set: CC-PVTZ
  Basis Set:

    Orbital Energies (a.u.)
    -----------------------

    Doubly Occupied:

       1A    -20.545203     2A    -11.264839     3A    -11.216723
       4A    -11.215098     5A    -11.214210     6A    -11.213530
       7A    -11.213144     8A    -11.212417     9A    -11.207822
      10A     -1.363103    11A     -1.096038    12A     -1.062480
      13A     -1.011783    14A     -0.949074    15A     -0.890268
      16A     -0.820707    17A     -0.806083    18A     -0.771873
      19A     -0.696640    20A     -0.654797    21A     -0.637247
      22A     -0.614027    23A     -0.607970    24A     -0.586188
      25A     -0.574908    26A     -0.554301    27A     -0.546341
      28A     -0.525529    29A     -0.507563    30A     -0.499360
      31A     -0.486965    32A     -0.475050    33A     -0.466788
      34A     -0.457139    35A     -0.452862    36A     -0.442957
      37A     -0.425975

  @DF-RHF Final Energy:  -388.42512107756789

   => Energetics <=

    Nuclear Repulsion Energy =            461.5653060040274909
    One-Electron Energy =               -1441.4068642861491298
    Two-Electron Energy =                 591.4164372045538585
    DFT Exchange-Correlation Energy =       0.0000000000000000
    Empirical Dispersion Energy =           0.0000000000000000
    PCM Polarization Energy =               0.0000000000000000
    EFP Energy =                            0.0000000000000000
    Total Energy =                       -388.4251210775678373
    Molecular point group: c1
  Basis Set: CC-PVTZ
  Basis Set:

  -Total Gradient:
     Atom            X                  Y                   Z
    ------   -----------------  -----------------  -----------------
       1       -0.000022695437     0.000020621626     0.000003160418
       2        0.000003056657    -0.000021427585    -0.000041024610
       3       -0.000025046295    -0.000017048006     0.000023159877
       4        0.000029973482    -0.000017306629     0.000019577109
       5       -0.000000251042    -0.000010944734    -0.000004553237
       6        0.000007246105     0.000019468284    -0.000008796914
       7       -0.000003977162     0.000006455948    -0.000033786963
       8        0.000002490920    -0.000003036332     0.000000465763
       9        0.000018466257     0.000013310950     0.000019872184
      10        0.001872378622    -0.000292096017     0.004622559376
      11       -0.000016216520     0.000011627277    -0.000027392244
      12        0.000009303432    -0.000018592463     0.000020859038
      13        0.002754357012     0.002016265215     0.003458842364
      14       -0.002321141474    -0.000294962151    -0.004947046413
      15       -0.000018563006     0.000007864525     0.000014319836
      16       -0.002273450853    -0.001432915520    -0.003127804761
      17        0.000005871814     0.000028037459     0.000010058888
      18       -0.000002785505    -0.000013523809     0.000018853436
      19        0.000011663120     0.000021816817     0.000006505436
      20        0.000006318573     0.000008381374    -0.000040636847
      21       -0.000004933541    -0.000020734811     0.000016944399
      22       -0.000026225792    -0.000012084057    -0.000006693707
      23       -0.000014844255     0.000002873149    -0.000003836377
      24        0.000009572355    -0.000013157737     0.000041370507
      25       -0.000010438918     0.000017187557    -0.000049129187
      26       -0.000009865133    -0.000001009026     0.000003741383
      27        0.000019736584    -0.000005071302     0.000010411245

  **** Optimization is complete! (in 10 steps) ****
    Final optimized geometry and variables:
    Molecular point group: c1

    Geometry (in Angstrom), charge = 0, multiplicity = 1:

    H            0.487745815805    -1.143474005947    -3.144892851331
    O            1.192880738521    -1.762439312953    -3.181894406050
    C            2.213746258852    -1.388865514038    -2.294477373419
    C            1.850172319528    -1.593594202266    -0.831502993687
    H            3.064647992468    -2.007371027143    -2.546255914820
    H            2.505424006507    -0.354456284655    -2.465788503852
    C            0.707079967830    -0.708201393672    -0.339774091668
    H            1.596154483088    -2.638499843820    -0.681680980133
    H            2.738408328008    -1.396209692410    -0.235752399602
    C            0.412450343559    -0.910344270294     1.148069665458
    H           -0.193045518605    -0.926701477358    -0.909393296938
    H            0.955722238422     0.330762477530    -0.534533434072
    C           -0.817322885729    -0.164073940870     1.686799399746
    H            0.246929074595    -1.974019941096     1.289809421686
    H            1.293416694998    -0.638599173751     1.722043318063
    C           -1.018613775669     1.262386856509     1.177997831482
    H           -1.706905033350    -0.735773083668     1.432712719321
    H           -0.769599282596    -0.156284078455     2.771504624083
    C           -2.201130814161     1.963633335896     1.841674845498
    H           -1.174211616220     1.252259087046     0.104287322179
    H           -0.117246540420     1.847406592343     1.350756505713
    C           -2.427949751772     3.379346413317     1.321892183508
    H           -3.100850642785     1.374591478392     1.684843945686
    H           -2.042913730043     1.995740459987     2.916105550724
    H           -2.626290066077     3.378162340463     0.255051807509
    H           -3.272552458487     3.848071663354     1.813791982623
    H           -1.557302076074     4.003599950131     1.493938738361

  Mulliken Charges: (a.u.)
   Center  Symbol    Alpha    Beta     Spin     Total
       1     H     0.39229  0.39229  0.00000  0.21542
       2     O     4.20586  4.20586  0.00000 -0.41172
       3     C     2.97930  2.97930  0.00000  0.04140
       4     C     3.08891  3.08891  0.00000 -0.17782
       5     H     0.44867  0.44867  0.00000  0.10266
       6     H     0.47014  0.47014  0.00000  0.05973
       7     C     3.10870  3.10870  0.00000 -0.21741
       8     H     0.45022  0.45022  0.00000  0.09957
       9     H     0.45609  0.45609  0.00000  0.08781
      10     C     3.09575  3.09575  0.00000 -0.19150
      11     H     0.45644  0.45644  0.00000  0.08713
      12     H     0.44919  0.44919  0.00000  0.10161
      13     C     3.09680  3.09680  0.00000 -0.19360
      14     H     0.44886  0.44886  0.00000  0.10228
      15     H     0.45135  0.45135  0.00000  0.09729
      16     C     3.09044  3.09044  0.00000 -0.18089
      17     H     0.45331  0.45331  0.00000  0.09339
      18     H     0.44854  0.44854  0.00000  0.10291
      19     C     3.08515  3.08515  0.00000 -0.17029
      20     H     0.45270  0.45270  0.00000  0.09461
      21     H     0.45452  0.45452  0.00000  0.09095
      22     C     3.14979  3.14979  0.00000 -0.29959
      23     H     0.45451  0.45451  0.00000  0.09099
      24     H     0.45333  0.45333  0.00000  0.09334
      25     H     0.45585  0.45585  0.00000  0.08830
      26     H     0.44806  0.44806  0.00000  0.10389
      27     H     0.45523  0.45523  0.00000  0.08954

   Total alpha = 37.00000, Total beta = 37.00000, Total charge =  0.00000

*** Psi4 exiting successfully. Buy a developer a beer!
