  ==> Input File <==

--------------------------------------------------------------------------
set {
	reference rhf
	basis 6-31G*
}

set_num_threads( 4 )
memory 2 gb

molecule MOL {
0 1

H	 0.413399	 -0.996766	 -4.559018
O	 1.340611	 -1.180529	 -4.598773
C	 2.010059	 -0.457414	 -3.597275
C	 1.770215	 -1.008236	 -2.195919
H	 3.062743	 -0.523131	 -3.840607
H	 1.734021	 0.595621	 -3.638495
C	 0.314104	 -0.918490	 -1.732719
H	 2.097612	 -2.044385	 -2.171970
H	 2.404816	 -0.458873	 -1.502487
C	 0.115918	 -1.429151	 -0.302766
H	 -0.312552	 -1.489599	 -2.412058
H	 -0.021522	 0.116978	 -1.791904
C	 -1.309753	 -1.282496	 0.241564
H	 0.414994	 -2.474498	 -0.251275
H	 0.792850	 -0.887942	 0.354924
C	 -2.037799	 -0.007733	 -0.193645
H	 -1.890610	 -2.142323	 -0.085726
H	 -1.285946	 -1.330893	 1.329189
C	 -3.489788	 0.042957	 0.286558
H	 -2.017067	 0.064384	 -1.280144
H	 -1.513726	 0.868678	 0.179924
C	 -4.216917	 1.317354	 -0.141063
H	 -4.025645	 -0.823308	 -0.095450
H	 -3.513059	 -0.038752	 1.371301
H	 -4.239342	 1.411634	 -1.223113
H	 -5.243387	 1.322503	 0.212445
H	 -3.726170	 2.201406	 0.256408

	symmetry c1
}
set optking {
	frozen_dihedral = ("
		14 10 13 16
	")
}

ee = optimize('scf')
oeprop('DIPOLE', 'QUADRUPOLE', 'MULLIKEN_CHARGES')
f=open( 'psi4out.xyz', 'w' )
f.write( "27  " )
f.write( str(ee) + "\n" )
f.write( MOL.save_string_xyz() )
f.close()
--------------------------------------------------------------------------

    Molecular point group: c1
  Charge       = 0
  Multiplicity = 1
  Basis Set: 6-31G*
  Basis Set:
  @DF-RHF Final Energy:  -388.27713262055818
    Total Energy =                       -388.2771326205578362
    Molecular point group: c1
  Basis Set: 6-31G*
  Basis Set:
  Basis Set: 6-31G*
  Basis Set:
  @DF-RHF Final Energy:  -388.27807265694651
    Total Energy =                       -388.2780726569468470
  Basis Set: 6-31G*
  Basis Set:
  Basis Set: 6-31G*
  Basis Set:
  @DF-RHF Final Energy:  -388.27896999781638
    Total Energy =                       -388.2789699978153521
  Basis Set: 6-31G*
  Basis Set:
  Basis Set: 6-31G*
  Basis Set:
  @DF-RHF Final Energy:  -388.27911287699663
    Total Energy =                       -388.2791128769974875
  Basis Set: 6-31G*
  Basis Set:
  Basis Set: 6-31G*
  Basis Set:
  @DF-RHF Final Energy:  -388.27911428328412
    Total Energy =                       -388.2791142832846845
  Basis Set: 6-31G*
  Basis Set:
  Basis Set: 6-31G*
  Basis Set:
  @DF-RHF Final Energy:  -388.27914241864306
    Total Energy =                       -388.2791424186428912
  Basis Set: 6-31G*
  Basis Set:
  Charge       = 0
  Multiplicity = 1
  Basis Set: 6-31G*
  Basis Set:

    Orbital Energies (a.u.)
    -----------------------

    Doubly Occupied:

       1A    -20.552151     2A    -11.266918     3A    -11.219800
       4A    -11.217721     5A    -11.216538     6A    -11.216016
       7A    -11.215167     8A    -11.215004     9A    -11.210071
      10A     -1.358927    11A     -1.095160    12A     -1.061551
      13A     -1.010915    14A     -0.948222    15A     -0.889777
      16A     -0.820222    17A     -0.805898    18A     -0.771930
      19A     -0.694201    20A     -0.653942    21A     -0.635906
      22A     -0.613014    23A     -0.606524    24A     -0.585119
      25A     -0.574834    26A     -0.553281    27A     -0.545479
      28A     -0.525626    29A     -0.506229    30A     -0.498663
      31A     -0.486788    32A     -0.475244    33A     -0.466406
      34A     -0.456499    35A     -0.452875    36A     -0.442338
      37A     -0.423231

  @DF-RHF Final Energy:  -388.27914192062957

   => Energetics <=

    Nuclear Repulsion Energy =            461.1644195181775672
    One-Electron Energy =               -1440.3107577645826041
    Two-Electron Energy =                 590.8671963257756943
    DFT Exchange-Correlation Energy =       0.0000000000000000
    Empirical Dispersion Energy =           0.0000000000000000
    PCM Polarization Energy =               0.0000000000000000
    EFP Energy =                            0.0000000000000000
    Total Energy =                       -388.2791419206293995
    Molecular point group: c1
  Basis Set: 6-31G*
  Basis Set:

  -Total Gradient:
     Atom            X                  Y                   Z
    ------   -----------------  -----------------  -----------------
       1       -0.000002193267    -0.000000455964    -0.000000791896
       2       -0.000006051902    -0.000005198950    -0.000023619581
       3       -0.000020869148    -0.000020882319     0.000013586973
       4       -0.000000861280    -0.000042219647    -0.000015488808
       5       -0.000001919670    -0.000000114109     0.000010822366
       6       -0.000001504259    -0.000000279635     0.000006169792
       7        0.000026302463     0.000234276741    -0.000006474454
       8        0.000030184464    -0.000020361323     0.000007794918
       9       -0.000017301964     0.000005932438    -0.000013519015
      10        0.001399629232    -0.000179606089     0.004568208151
      11       -0.000007844409     0.000005896429     0.000032971577
      12        0.000053010522     0.000000129468    -0.000001570616
      13        0.001366258109     0.002439560290     0.003610372283
      14       -0.001627062382    -0.000641278617    -0.004970973075
      15       -0.000056783137    -0.000013307583     0.000011481852
      16       -0.001217896533    -0.001771731545    -0.003354153692
      17        0.000002714355    -0.000075217893     0.000063552492
      18        0.000045711591     0.000081238531    -0.000010932909
      19        0.000024255282     0.000041570434     0.000046315333
      20        0.000044374646     0.000009126835    -0.000003476816
      21       -0.000049445034    -0.000011021572     0.000054745253
      22        0.000002048981    -0.000042572270    -0.000060283639
      23        0.000015325566    -0.000002629743     0.000021645391
      24       -0.000006209871     0.000027140917     0.000022103012
      25        0.000006607232     0.000019925704    -0.000012142233
      26        0.000002623253    -0.000023196776    -0.000012678642
      27       -0.000003102838    -0.000014723751     0.000016335992

  **** Optimization is complete! (in 7 steps) ****
    Final optimized geometry and variables:
    Molecular point group: c1

    Geometry (in Angstrom), charge = 0, multiplicity = 1:

    H            1.062120673191    -0.356786298650    -3.145443663133
    O            1.963678217524    -0.639856511256    -3.192801308218
    C            2.710749923755    -0.009599217808    -2.183565674678
    C            2.406071585536    -0.543688459642    -0.788447606176
    H            3.748999103889    -0.194566354234    -2.427406196453
    H            2.558827559826     1.068738458414    -2.213892237966
    C            0.968591609721    -0.291475242660    -0.326422001671
    H            2.614005378768    -1.610366700374    -0.774300728415
    H            3.096992429827    -0.076711330601    -0.088263417161
    C            0.721066885085    -0.785079309690     1.104170100845
    H            0.278401932191    -0.797853118384    -0.998991353167
    H            0.753185358136     0.772225783452    -0.398222383886
    C           -0.739536598597    -0.712130595489     1.583642431889
    H            1.033587068429    -1.825983677683     1.135230337711
    H            1.364499046484    -0.232463271966     1.784583484823
    C           -1.518368299201     0.543418910162     1.180811835788
    H           -1.275754984981    -1.576847829448     1.195962800346
    H           -0.754261403532    -0.813505826289     2.666129135836
    C           -2.923556379045     0.583291618320     1.785345930436
    H           -1.599238321618     0.596032080156     0.098580436704
    H           -0.972576490709     1.433923732067     1.491073127921
    C           -3.722690909333     1.814316474234     1.359319207241
    H           -3.464747881174    -0.315345464958     1.496429660183
    H           -2.850168560903     0.558697969362     2.870412249087
    H           -3.843391276999     1.849848643698     0.280153091915
    H           -4.713790706172     1.812886605365     1.802364745563
    H           -3.225063936362     2.730228303252     1.665541804155

  Mulliken Charges: (a.u.)
   Center  Symbol    Alpha    Beta     Spin     Total
       1     H     0.27994  0.27994  0.00000  0.44011
       2     O     4.37100  4.37100  0.00000 -0.74201
       3     C     2.99719  2.99719  0.00000  0.00561
       4     C     3.16096  3.16096  0.00000 -0.32192
       5     H     0.41447  0.41447  0.00000  0.17107
       6     H     0.43209  0.43209  0.00000  0.13582
       7     C     3.16594  3.16594  0.00000 -0.33187
       8     H     0.41521  0.41521  0.00000  0.16958
       9     H     0.42427  0.42427  0.00000  0.15146
      10     C     3.15105  3.15105  0.00000 -0.30209
      11     H     0.42550  0.42550  0.00000  0.14900
      12     H     0.42190  0.42190  0.00000  0.15621
      13     C     3.15354  3.15354  0.00000 -0.30707
      14     H     0.41985  0.41985  0.00000  0.16030
      15     H     0.42227  0.42227  0.00000  0.15547
      16     C     3.15367  3.15367  0.00000 -0.30734
      17     H     0.42337  0.42337  0.00000  0.15327
      18     H     0.42067  0.42067  0.00000  0.15865
      19     C     3.15129  3.15129  0.00000 -0.30259
      20     H     0.42307  0.42307  0.00000  0.15387
      21     H     0.42475  0.42475  0.00000  0.15049
      22     C     3.23912  3.23912  0.00000 -0.47823
      23     H     0.42294  0.42294  0.00000  0.15412
      24     H     0.42267  0.42267  0.00000  0.15466
      25     H     0.42241  0.42241  0.00000  0.15519
      26     H     0.41898  0.41898  0.00000  0.16203
      27     H     0.42190  0.42190  0.00000  0.15620

   Total alpha = 37.00000, Total beta = 37.00000, Total charge =  0.00000
