                              Psi4 1.0.54 Driver

  ==> Input File <==

--------------------------------------------------------------------------
set {
	reference rhf
	basis cc-pvtz
}

set_num_threads( 4 )
memory 2 gb

molecule MOL {
0 1

H	 -2.498963	 -0.741158	 -0.729149
O	 -2.346257	 -0.289210	 0.080372
C	 -1.183935	 0.486039	 -0.009831
C	 0.062853	 -0.375310	 0.027457
H	 -1.178881	 1.094526	 -0.908634
H	 -1.184406	 1.155156	 0.838676
O	 0.769887	 -0.070599	 1.184481
H	 0.674117	 -0.183712	 -0.856027
H	 -0.220182	 -1.425568	 0.006840
C	 1.930412	 -0.813022	 1.366718
H	 2.634823	 -0.655584	 0.552904
H	 2.388171	 -0.490467	 2.290352
H	 1.714987	 -1.876750	 1.434507

	symmetry c1
}
set optking {
	frozen_dihedral = ("
		8 4 3 5
	")
}

ee,wfn = optimize('scf', return_wfn=True)
oeprop( wfn, 'DIPOLE', 'QUADRUPOLE', 'MULLIKEN_CHARGES')
f=open( 'psi4out.xyz', 'w' )
f.write( "13  " )
f.write( str(ee) + "\n" )
f.write( MOL.save_string_xyz() )
f.close()
--------------------------------------------------------------------------

    Molecular point group: c1
  Charge       = 0
  Multiplicity = 1
  Basis Set: CC-PVTZ
  Basis Set:
  @DF-RHF Final Energy:  -268.05512663771026
    Total Energy =                       -268.0551266377101456
    Molecular point group: c1
  Basis Set: CC-PVTZ
  Basis Set:
  Basis Set: CC-PVTZ
  Basis Set:
  @DF-RHF Final Energy:  -268.05565483960493
    Total Energy =                       -268.0556548396052676
  Basis Set: CC-PVTZ
  Basis Set:
  Basis Set: CC-PVTZ
  Basis Set:
  @DF-RHF Final Energy:  -268.05586907264956
    Total Energy =                       -268.0558690726496707
  Basis Set: CC-PVTZ
  Basis Set:
  Basis Set: CC-PVTZ
  Basis Set:
  @DF-RHF Final Energy:  -268.05587144309743
    Total Energy =                       -268.0558714430973168
  Basis Set: CC-PVTZ
  Basis Set:
  Charge       = 0
  Multiplicity = 1
  Basis Set: CC-PVTZ
  Basis Set:

    Orbital Energies (a.u.)
    -----------------------

    Doubly Occupied:

       1A    -20.553506     2A    -20.549942     3A    -11.269657
       4A    -11.267950     5A    -11.265454     6A     -1.389371
       7A     -1.365984     8A     -1.016505     9A     -0.913638
      10A     -0.843744    11A     -0.705484    12A     -0.672027
      13A     -0.665272    14A     -0.641998    15A     -0.592172
      16A     -0.568327    17A     -0.542034    18A     -0.494332
      19A     -0.481158    20A     -0.440396    21A     -0.420966

  @DF-RHF Final Energy:  -268.05587174683308

   => Energetics <=

    Nuclear Repulsion Energy =            190.7138839699331072
    One-Electron Energy =                -744.2196749768122572
    Two-Electron Energy =                 285.4499192600459878
    DFT Exchange-Correlation Energy =       0.0000000000000000
    Empirical Dispersion Energy =           0.0000000000000000
    PCM Polarization Energy =               0.0000000000000000
    EFP Energy =                            0.0000000000000000
    Total Energy =                       -268.0558717468331338
    Molecular point group: c1
  Basis Set: CC-PVTZ
  Basis Set:

  -Total Gradient:
     Atom            X                  Y                   Z
    ------   -----------------  -----------------  -----------------
       1       -0.000007288688     0.000012180541     0.000005364007
       2        0.000009948232    -0.000032290920    -0.000021747551
       3       -0.000540072752    -0.000772351491    -0.000544966335
       4        0.000540023777     0.000805330055     0.000583796456
       5        0.000362529427     0.000516060734     0.000386155724
       6        0.000001454105     0.000016167541    -0.000001893176
       7       -0.000029860719     0.000001782644    -0.000045861400
       8       -0.000355526163    -0.000538233076    -0.000367557970
       9        0.000002286341     0.000002971598     0.000001466133
      10        0.000011751909    -0.000012083201     0.000001863776
      11        0.000001815143     0.000000863525     0.000001691598
      12       -0.000000328308    -0.000000028185    -0.000000734215
      13        0.000003267702    -0.000000369765     0.000002422952

  **** Optimization is complete! (in 5 steps) ****
    Final optimized geometry and variables:
    Molecular point group: c1

    Geometry (in Angstrom), charge = 0, multiplicity = 1:

    H           -2.377290151883    -0.434744535251    -1.244733957233
    O           -2.206143616625     0.007703833955    -0.433935455229
    C           -1.011185068011     0.734578076481    -0.519787607577
    C            0.241953609818    -0.143285144069    -0.487609005697
    H           -1.011874858736     1.361683000544    -1.405966198701
    H           -0.983759121678     1.384636445757     0.341076783601
    O            0.960689132532     0.116033682260     0.676712215031
    H            0.870072852090     0.043382936262    -1.357755884761
    H           -0.060076256117    -1.188119604260    -0.518708091058
    C            2.116052295775    -0.642126013111     0.817237434584
    H            2.813774407957    -0.460580792167     0.002252741701
    H            2.586427505628    -0.358584938232     1.747325282863
    H            1.892627108621    -1.706215905742     0.847658730076

  Mulliken Charges: (a.u.)
   Center  Symbol    Alpha    Beta     Spin     Total
       1     H     0.39573  0.39573  0.00000  0.20853
       2     O     4.19900  4.19900  0.00000 -0.39800
       3     C     2.97380  2.97380  0.00000  0.05240
       4     C     2.96907  2.96907  0.00000  0.06187
       5     H     0.46885  0.46885  0.00000  0.06230
       6     H     0.44943  0.44943  0.00000  0.10114
       7     O     4.17142  4.17142  0.00000 -0.34283
       8     H     0.47820  0.47820  0.00000  0.04361
       9     H     0.47567  0.47567  0.00000  0.04865
      10     C     3.02971  3.02971  0.00000 -0.05942
      11     H     0.47244  0.47244  0.00000  0.05512
      12     H     0.44578  0.44578  0.00000  0.10844
      13     H     0.47090  0.47090  0.00000  0.05820

   Total alpha = 21.00000, Total beta = 21.00000, Total charge = -0.00000

*** Psi4 exiting successfully. Buy a developer a beer!
