  ==> Input File <==

--------------------------------------------------------------------------
set {
	reference rhf
	basis 6-31G*
}

set_num_threads( 4 )
memory 2 gb

molecule MOL {
0 1

O	 3.225979	 0.970355	 -0.599647
C	 2.701189	 0.057885	 -0.047330
C	 1.245376	 -0.013843	 0.345420
O	 3.347903	 -1.046386	 0.304773
C	 0.318612	 -0.294595	 -0.835429
H	 1.161043	 -0.771176	 1.117771
H	 0.993367	 0.928584	 0.825022
C	 -1.169891	 -0.266467	 -0.472025
H	 0.572998	 -1.256590	 -1.270139
H	 0.509668	 0.442613	 -1.607727
C	 -1.624214	 -1.380978	 0.474846
H	 -1.742960	 -0.338472	 -1.393508
H	 -1.418731	 0.700505	 -0.037222
C	 -3.134626	 -1.375301	 0.719023
H	 -1.330693	 -2.344235	 0.060359
H	 -1.113699	 -1.291522	 1.431060
C	 -3.599381	 -2.481539	 1.667903
H	 -3.653285	 -1.477958	 -0.232653
H	 -3.430382	 -0.408531	 1.123476
C	 -5.109387	 -2.471287	 1.903435
H	 -3.303763	 -3.448248	 1.265751
H	 -3.085274	 -2.377998	 2.621189
H	 -5.407835	 -3.266362	 2.579742
H	 -5.652293	 -2.607957	 0.972430
H	 -5.432096	 -1.529205	 2.337732
C	 4.728119	 -1.109107	 -0.004993
H	 4.882018	 -1.033965	 -1.071845
H	 5.068212	 -2.067527	 0.355250
H	 5.265056	 -0.311663	 0.488280

	symmetry c1
}
set optking {
	frozen_dihedral = ("
		6 3 2 1
	")
}

ee = optimize('scf')
oeprop('DIPOLE', 'QUADRUPOLE', 'MULLIKEN_CHARGES')
f=open( 'psi4out.xyz', 'w' )
f.write( "29  " )
f.write( str(ee) + "\n" )
f.write( MOL.save_string_xyz() )
f.close()
--------------------------------------------------------------------------

    Molecular point group: c1
  Charge       = 0
  Multiplicity = 1
  Basis Set: 6-31G*
  Basis Set:
  @DF-RHF Final Energy:  -501.04181172185133
    Total Energy =                       -501.0418117218511043
    Molecular point group: c1
  Basis Set: 6-31G*
  Basis Set:
  Basis Set: 6-31G*
  Basis Set:
  @DF-RHF Final Energy:  -501.04235759433948
    Total Energy =                       -501.0423575943392507
  Basis Set: 6-31G*
  Basis Set:
  Basis Set: 6-31G*
  Basis Set:
  @DF-RHF Final Energy:  -501.04252024756681
    Total Energy =                       -501.0425202475665856
  Basis Set: 6-31G*
  Basis Set:
  Basis Set: 6-31G*
  Basis Set:
  @DF-RHF Final Energy:  -501.04261213750158
    Total Energy =                       -501.0426121375010098
  Basis Set: 6-31G*
  Basis Set:
  Basis Set: 6-31G*
  Basis Set:
  @DF-RHF Final Energy:  -501.04262293804811
    Total Energy =                       -501.0426229380476570
  Basis Set: 6-31G*
  Basis Set:
  Charge       = 0
  Multiplicity = 1
  Basis Set: 6-31G*
  Basis Set:

    Orbital Energies (a.u.)
    -----------------------

    Doubly Occupied:

       1A    -20.604868     2A    -20.541690     3A    -11.370391
       4A    -11.280301     5A    -11.232548     6A    -11.228777
       7A    -11.221226     8A    -11.217876     9A    -11.216950
      10A    -11.215899    11A    -11.209880    12A     -1.468549
      13A     -1.360538    14A     -1.100769    15A     -1.068375
      16A     -1.019597    17A     -0.976391    18A     -0.930491
      19A     -0.863664    20A     -0.799809    21A     -0.791273
      22A     -0.771669    23A     -0.698017    24A     -0.678138
      25A     -0.673004    26A     -0.652461    27A     -0.626856
      28A     -0.606978    29A     -0.593113    30A     -0.579865
      31A     -0.564549    32A     -0.558377    33A     -0.536469
      34A     -0.528108    35A     -0.520464    36A     -0.515689
      37A     -0.497636    38A     -0.480579    39A     -0.471773
      40A     -0.464353    41A     -0.460572    42A     -0.453986
      43A     -0.444931    44A     -0.429113

  @DF-RHF Final Energy:  -501.04262223360502

   => Energetics <=

    Nuclear Repulsion Energy =            612.2402313414499986
    One-Electron Energy =               -1895.5125804235558462
    Two-Electron Energy =                 782.2297268485008317
    DFT Exchange-Correlation Energy =       0.0000000000000000
    Empirical Dispersion Energy =           0.0000000000000000
    PCM Polarization Energy =               0.0000000000000000
    EFP Energy =                            0.0000000000000000
    Total Energy =                       -501.0426222336050159
    Molecular point group: c1
  Basis Set: 6-31G*
  Basis Set:

  -Total Gradient:
     Atom            X                  Y                   Z
    ------   -----------------  -----------------  -----------------
       1       -0.000008815632    -0.000102233426    -0.000205267680
       2        0.000056709981     0.000157791080     0.000275722464
       3        0.000011430689     0.000090041124     0.000009709103
       4        0.000024315546     0.000019664974     0.000035028133
       5       -0.000005429657    -0.000023547708     0.000033082111
       6       -0.000018114324    -0.000120678423    -0.000144103685
       7        0.000008229345    -0.000016825825     0.000014483120
       8        0.000006703215     0.000025377764     0.000053940076
       9        0.000015114932    -0.000001800176     0.000032684697
      10       -0.000010252742    -0.000012608500    -0.000037516265
      11       -0.000023419059    -0.000003772241    -0.000002340581
      12       -0.000000381236     0.000024894423    -0.000003279043
      13        0.000022802340    -0.000006179854     0.000021818749
      14        0.000001308132    -0.000013378652    -0.000019519102
      15        0.000015634690    -0.000011015541     0.000006545149
      16       -0.000056538590     0.000001205484    -0.000021851120
      17        0.000002362201    -0.000002278524    -0.000003702959
      18       -0.000006443593     0.000000981418    -0.000002045005
      19        0.000003672487    -0.000002508051    -0.000000271579
      20        0.000000459361     0.000002182182     0.000000310524
      21       -0.000000721243     0.000000729152     0.000000239926
      22        0.000001267559    -0.000000326379     0.000000417821
      23        0.000000657001     0.000000262421     0.000000146728
      24        0.000000535756     0.000000158205     0.000000134602
      25       -0.000000719906     0.000000031177    -0.000000185228
      26       -0.000040407102    -0.000021129185    -0.000074681969
      27        0.000019951767    -0.000003094379     0.000004565094
      28       -0.000004199772     0.000003583835     0.000009898713
      29       -0.000015712151     0.000014473620     0.000016037205

  **** Optimization is complete! (in 6 steps) ****
    Final optimized geometry and variables:
    Molecular point group: c1

    Geometry (in Angstrom), charge = 0, multiplicity = 1:

    O            3.060767598077     1.850437009306    -0.883805088171
    C            2.573052459934     0.923796191233    -0.319060869543
    C            1.128189008469     0.851118543482     0.108761482231
    O            3.242445170540    -0.183550739666    -0.029375995846
    C            0.228216831352     0.533556613057    -1.097003279817
    H            1.021218469079     0.103642096388     0.882808429020
    H            0.862396354812     1.819730838233     0.516815571958
    C           -1.269754104431     0.564022641772    -0.776789232347
    H            0.494978876254    -0.442650170254    -1.495502552302
    H            0.437632566560     1.259072829667    -1.876514927340
    C           -1.746475718969    -0.530492458456     0.181794703286
    H           -1.815174219473     0.469897036852    -1.713031457802
    H           -1.529737736089     1.540369493835    -0.371866061530
    C           -3.263580427011    -0.525783775777     0.380540411088
    H           -1.436716397316    -1.501794957388    -0.200765523304
    H           -1.264631869975    -0.415741623911     1.149753026500
    C           -3.751533633039    -1.610987283510     1.341963074418
    H           -3.753470365016    -0.653927835702    -0.583234274335
    H           -3.575013410506     0.449026627892     0.752454207548
    C           -5.267803019751    -1.601748942571     1.533019319603
    H           -3.440571763925    -2.585750253117     0.972127114898
    H           -3.265870773995    -1.482120937181     2.306948996521
    H           -5.582767797117    -2.381534072141     2.219522460037
    H           -5.782775669536    -1.763409853337     0.590222955993
    H           -5.606605162250    -0.650909946508     1.934678560793
    C            4.599506611266    -0.235692808682    -0.430817775893
    H            4.681904069005    -0.141857605529    -1.504079238899
    H            4.965502922175    -1.198446722770    -0.109726317071
    H            5.164538278904     0.556170406243     0.039283467520

  Mulliken Charges: (a.u.)
   Center  Symbol    Alpha    Beta     Spin     Total
       1     O     4.28678  4.28678  0.00000 -0.57356
       2     C     2.61445  2.61445  0.00000  0.77110
       3     C     3.19799  3.19799  0.00000 -0.39599
       4     O     4.30253  4.30253  0.00000 -0.60506
       5     C     3.16713  3.16713  0.00000 -0.33427
       6     H     0.40068  0.40068  0.00000  0.19863
       7     H     0.40156  0.40156  0.00000  0.19688
       8     C     3.15498  3.15498  0.00000 -0.30996
       9     H     0.41490  0.41490  0.00000  0.17019
      10     H     0.40439  0.40439  0.00000  0.19123
      11     C     3.15497  3.15497  0.00000 -0.30994
      12     H     0.41811  0.41811  0.00000  0.16378
      13     H     0.42083  0.42083  0.00000  0.15834
      14     C     3.15068  3.15068  0.00000 -0.30137
      15     H     0.42258  0.42258  0.00000  0.15484
      16     H     0.42226  0.42226  0.00000  0.15549
      17     C     3.15154  3.15154  0.00000 -0.30308
      18     H     0.42341  0.42341  0.00000  0.15317
      19     H     0.42344  0.42344  0.00000  0.15313
      20     C     3.23943  3.23943  0.00000 -0.47885
      21     H     0.42282  0.42282  0.00000  0.15435
      22     H     0.42307  0.42307  0.00000  0.15386
      23     H     0.41905  0.41905  0.00000  0.16190
      24     H     0.42158  0.42158  0.00000  0.15684
      25     H     0.42159  0.42159  0.00000  0.15683
      26     C     3.09312  3.09312  0.00000 -0.18623
      27     H     0.40901  0.40901  0.00000  0.18198
      28     H     0.40871  0.40871  0.00000  0.18259
      29     H     0.40841  0.40841  0.00000  0.18318

   Total alpha = 44.00000, Total beta = 44.00000, Total charge =  0.00000
