  ==> Input File <==

--------------------------------------------------------------------------
set {
	reference rhf
	basis 6-31G*
}

set_num_threads( 4 )
memory 2 gb

molecule MOL {
0 1

O	 -2.439739	 -0.935931	 -0.423848
C	 -1.921153	 0.064240	 -0.045697
C	 -2.624470	 1.379923	 0.150949
O	 -0.632575	 0.154573	 0.251549
H	 -2.168117	 2.136577	 -0.476876
H	 -3.669540	 1.273223	 -0.098610
H	 -2.519365	 1.700893	 1.180846
C	 0.160891	 -1.019931	 0.106212
C	 1.589627	 -0.672828	 0.480843
H	 0.089836	 -1.367806	 -0.916050
H	 -0.238459	 -1.792301	 0.749618
C	 2.627108	 -1.110017	 -0.554965
H	 1.802495	 -1.150607	 1.434964
H	 1.658909	 0.399271	 0.645350
C	 4.055809	 -0.769064	 -0.133580
H	 2.543582	 -2.183109	 -0.714955
H	 2.405865	 -0.637226	 -1.506216
H	 4.771938	 -1.087956	 -0.884245
H	 4.317740	 -1.256319	 0.801435
H	 4.178262	 0.301225	 0.006295

	symmetry c1
}
set optking {
	frozen_dihedral = ("
		12 9 8 10
	")
}

ee = optimize('scf')
oeprop('DIPOLE', 'QUADRUPOLE', 'MULLIKEN_CHARGES')
f=open( 'psi4out.xyz', 'w' )
f.write( "20  " )
f.write( str(ee) + "\n" )
f.write( MOL.save_string_xyz() )
f.close()
--------------------------------------------------------------------------

    Molecular point group: c1
  Charge       = 0
  Multiplicity = 1
  Basis Set: 6-31G*
  Basis Set:
  @DF-RHF Final Energy:  -383.93974979265357
    Total Energy =                       -383.9397497926537994
    Molecular point group: c1
  Basis Set: 6-31G*
  Basis Set:
  Basis Set: 6-31G*
  Basis Set:
  @DF-RHF Final Energy:  -383.94012339506776
    Total Energy =                       -383.9401233950673031
  Basis Set: 6-31G*
  Basis Set:
  Basis Set: 6-31G*
  Basis Set:
  @DF-RHF Final Energy:  -383.93911545255509
    Total Energy =                       -383.9391154525551428
  Basis Set: 6-31G*
  Basis Set:
  Basis Set: 6-31G*
  Basis Set:
  @DF-RHF Final Energy:  -383.94025436754720
    Total Energy =                       -383.9402543675469701
  Basis Set: 6-31G*
  Basis Set:
  Basis Set: 6-31G*
  Basis Set:
  @DF-RHF Final Energy:  -383.94024597253497
    Total Energy =                       -383.9402459725347398
  Basis Set: 6-31G*
  Basis Set:
  Basis Set: 6-31G*
  Basis Set:
  @DF-RHF Final Energy:  -383.94026390737855
    Total Energy =                       -383.9402639073788350
  Basis Set: 6-31G*
  Basis Set:
  Charge       = 0
  Multiplicity = 1
  Basis Set: 6-31G*
  Basis Set:

    Orbital Energies (a.u.)
    -----------------------

    Doubly Occupied:

       1A    -20.601471     2A    -20.543600     3A    -11.373819
       4A    -11.281797     5A    -11.232943     6A    -11.225344
       7A    -11.224041     8A    -11.215128     9A     -1.467460
      10A     -1.361589    11A     -1.085451    12A     -1.029205
      13A     -0.979400    14A     -0.881886    15A     -0.808050
      16A     -0.779545    17A     -0.689452    18A     -0.682166
      19A     -0.667782    20A     -0.634955    21A     -0.598528
      22A     -0.593029    23A     -0.570444    24A     -0.556451
      25A     -0.544888    26A     -0.521014    27A     -0.511917
      28A     -0.482531    29A     -0.480826    30A     -0.474560
      31A     -0.447990    32A     -0.436848

  @DF-RHF Final Energy:  -383.94026450118781

   => Energetics <=

    Nuclear Repulsion Energy =            379.3952813634814447
    One-Electron Energy =               -1274.7028716778995658
    Two-Electron Energy =                 511.3673258132302522
    DFT Exchange-Correlation Energy =       0.0000000000000000
    Empirical Dispersion Energy =           0.0000000000000000
    PCM Polarization Energy =               0.0000000000000000
    EFP Energy =                            0.0000000000000000
    Total Energy =                       -383.9402645011878690
    Molecular point group: c1
  Basis Set: 6-31G*
  Basis Set:

  -Total Gradient:
     Atom            X                  Y                   Z
    ------   -----------------  -----------------  -----------------
       1        0.000008470254    -0.000004342963    -0.000007246563
       2        0.000005574894     0.000018573428     0.000006330356
       3       -0.000015167742     0.000002978920     0.000004595885
       4       -0.000030820281     0.000011978587    -0.000016324894
       5       -0.000002139001    -0.000000230658    -0.000001334473
       6       -0.000001672423     0.000005251440     0.000000170626
       7        0.000001166690     0.000002837689    -0.000000916609
       8       -0.000432963680     0.003354261020    -0.001192637750
       9        0.000277913284    -0.002657860474     0.001270388624
      10        0.000321827016    -0.002219642746     0.000727698372
      11        0.000011194792     0.000003951293    -0.000004468030
      12       -0.000135805884     0.001482144207    -0.000779100840
      13       -0.000007234690    -0.000005431824    -0.000003564506
      14       -0.000003377138    -0.000001978876    -0.000004816598
      15        0.000005261143     0.000010804768    -0.000004912024
      16       -0.000007488628     0.000000455407     0.000006176503
      17        0.000004803397    -0.000001883361    -0.000001224941
      18        0.000000322390     0.000004479169    -0.000001626313
      19        0.000000560745    -0.000005906615    -0.000003431167
      20       -0.000000425138    -0.000000438413     0.000006244340

  **** Optimization is complete! (in 7 steps) ****
    Final optimized geometry and variables:
    Molecular point group: c1

    Geometry (in Angstrom), charge = 0, multiplicity = 1:

    O           -2.534404159999    -0.582313055046    -0.398320199280
    C           -2.020347693526     0.422890633335    -0.026634618809
    C           -2.733877406402     1.732108742555     0.177613588903
    O           -0.730757808157     0.524911676088     0.260747307566
    H           -2.289793370013     2.493353391641    -0.453385614893
    H           -3.780009556243     1.615985283131    -0.063213918272
    H           -2.622815799291     2.053002168363     1.206933115938
    C            0.069260641203    -0.644740523536     0.114770685921
    C            1.508357218660    -0.303397387625     0.512527178233
    H            0.006616513207    -0.990732185755    -0.908459206265
    H           -0.346980969125    -1.425389145492     0.736216419118
    C            2.540366286903    -0.753810964581    -0.524490473077
    H            1.740462818419    -0.743883497827     1.477791146560
    H            1.578245209212     0.771710649680     0.639792882181
    C            3.974077107290    -0.429888827003    -0.109155622588
    H            2.447363732671    -1.824934785121    -0.692755125886
    H            2.319287471403    -0.274646635163    -1.475306994992
    H            4.683117522432    -0.751208732215    -0.865359430996
    H            4.234795938597    -0.926163619958     0.821263712077
    H            4.107157131590     0.638126573762     0.037771214424

  Mulliken Charges: (a.u.)
   Center  Symbol    Alpha    Beta     Spin     Total
       1     O     4.28366  4.28366  0.00000 -0.56732
       2     C     2.62000  2.62000  0.00000  0.76000
       3     C     3.28152  3.28152  0.00000 -0.56305
       4     O     4.30944  4.30944  0.00000 -0.61888
       5     H     0.40075  0.40075  0.00000  0.19849
       6     H     0.39701  0.39701  0.00000  0.20597
       7     H     0.40061  0.40061  0.00000  0.19879
       8     C     3.00161  3.00161  0.00000 -0.00323
       9     C     3.16963  3.16963  0.00000 -0.33926
      10     H     0.40820  0.40820  0.00000  0.18360
      11     H     0.40877  0.40877  0.00000  0.18246
      12     C     3.15956  3.15956  0.00000 -0.31913
      13     H     0.41597  0.41597  0.00000  0.16805
      14     H     0.40592  0.40592  0.00000  0.18815
      15     C     3.24059  3.24059  0.00000 -0.48119
      16     H     0.42061  0.42061  0.00000  0.15877
      17     H     0.41868  0.41868  0.00000  0.16264
      18     H     0.41702  0.41702  0.00000  0.16596
      19     H     0.42040  0.42040  0.00000  0.15919
      20     H     0.42001  0.42001  0.00000  0.15997

   Total alpha = 32.00000, Total beta = 32.00000, Total charge =  0.00000
