  ==> Input File <==

--------------------------------------------------------------------------
set {
	reference rhf
	basis 6-31G*
}

set_num_threads( 1 )
memory 2 gb

molecule MOL {
0 1

H	 3.276176	 0.174363	 -0.109463
N	 2.434251	 -0.367735	 -0.081097
C	 1.267428	 0.496480	 0.024474
H	 2.501951	 -0.965776	 0.720575
C	 -0.016086	 -0.325158	 -0.029487
H	 1.288818	 1.183521	 -0.816092
H	 1.267576	 1.109062	 0.929528
C	 -1.282277	 0.529072	 0.046735
H	 -0.012495	 -0.908639	 -0.945788
H	 -0.015903	 -1.041248	 0.791956
C	 -2.325660	 0.140080	 -1.000041
H	 -1.018296	 1.576874	 -0.081374
H	 -1.719770	 0.443983	 1.039366
H	 -1.930016	 0.248146	 -2.005779
H	 -3.211256	 0.763309	 -0.923717
H	 -2.636895	 -0.893546	 -0.877681

	symmetry c1
}
set optking {
	frozen_dihedral = ("
		6 3 5 9,
		1 2 3 6
	")
}

ee = energy('scf')
oeprop('DIPOLE', 'QUADRUPOLE', 'MULLIKEN_CHARGES')
f=open( 'psi4out.xyz', 'w' )
f.write( "16  " )
f.write( str(ee) + "\n" )
f.write( MOL.save_string_xyz() )
f.close()
--------------------------------------------------------------------------

    Molecular point group: c1

    Geometry (in Angstrom), charge = 0, multiplicity = 1:

       Center              X                  Y                   Z               Mass
    ------------   -----------------  -----------------  -----------------  -----------------
           H          3.227188527180     0.083521317933     0.094831803221     1.007825032070
           N          2.385263527180    -0.458576682067     0.123197803221    14.003074004780
           C          1.218440527180     0.405638317933     0.228768803221    12.000000000000
           H          2.452963527180    -1.056617682067     0.924869803221     1.007825032070
           C         -0.065073472820    -0.415999682067     0.174807803221    12.000000000000
           H          1.239830527180     1.092679317933    -0.611797196779     1.007825032070
           H          1.218588527180     1.018220317933     1.133822803221     1.007825032070
           C         -1.331264472820     0.438230317933     0.251029803221    12.000000000000
           H         -0.061482472820    -0.999480682067    -0.741493196779     1.007825032070
           H         -0.064890472820    -1.132089682067     0.996250803221     1.007825032070
           C         -2.374647472820     0.049238317933    -0.795746196779    12.000000000000
           H         -1.067283472820     1.486032317933     0.122920803221     1.007825032070
           H         -1.768757472820     0.353141317933     1.243660803221     1.007825032070
           H         -1.979003472820     0.157304317933    -1.801484196779     1.007825032070
           H         -3.260243472820     0.672467317933    -0.719422196779     1.007825032070
           H         -2.685882472820    -0.984387682067    -0.673386196779     1.007825032070

  Charge       = 0
  Multiplicity = 1
  Basis Set: 6-31G*
  Basis Set:

    Orbital Energies (a.u.)
    -----------------------

    Doubly Occupied:

       1A    -15.532435     2A    -11.240389     3A    -11.213755
       4A    -11.208202     5A    -11.207470     6A     -1.176706
       7A     -1.059346     8A     -0.957598     9A     -0.845686
      10A     -0.790736    11A     -0.662834    12A     -0.628636
      13A     -0.616734    14A     -0.578557    15A     -0.557187
      16A     -0.528273    17A     -0.500468    18A     -0.471331
      19A     -0.462186    20A     -0.456892    21A     -0.381172

  @DF-RHF Final Energy:  -212.31221115882087

   => Energetics <=

    Nuclear Repulsion Energy =            186.8022322553031529
    One-Electron Energy =                -656.0758780662556546
    Two-Electron Energy =                 256.9614346521319703
    DFT Exchange-Correlation Energy =       0.0000000000000000
    Empirical Dispersion Energy =           0.0000000000000000
    PCM Polarization Energy =               0.0000000000000000
    EFP Energy =                            0.0000000000000000
    Total Energy =                       -212.3122111588205598

  Mulliken Charges: (a.u.)
   Center  Symbol    Alpha    Beta     Spin     Total
       1     H     0.33258  0.33258  0.00000  0.33484
       2     N     3.92185  3.92185  0.00000 -0.84370
       3     C     3.06345  3.06345  0.00000 -0.12690
       4     H     0.33532  0.33532  0.00000  0.32936
       5     C     3.15308  3.15308  0.00000 -0.30615
       6     H     0.42065  0.42065  0.00000  0.15870
       7     H     0.43421  0.43421  0.00000  0.13158
       8     C     3.15770  3.15770  0.00000 -0.31541
       9     H     0.41079  0.41079  0.00000  0.17841
      10     H     0.42555  0.42555  0.00000  0.14891
      11     C     3.23967  3.23967  0.00000 -0.47935
      12     H     0.42175  0.42175  0.00000  0.15651
      13     H     0.42088  0.42088  0.00000  0.15823
      14     H     0.42054  0.42054  0.00000  0.15892
      15     H     0.42103  0.42103  0.00000  0.15793
      16     H     0.42095  0.42095  0.00000  0.15810

   Total alpha = 21.00000, Total beta = 21.00000, Total charge =  0.00000
