  ==> Input File <==

--------------------------------------------------------------------------
set {
	reference rhf
	basis 6-31G*
}

set_num_threads( 1 )
memory 2 gb

molecule MOL {
0 1

H	 3.089270	 -1.380733	 0.000000
O	 2.178328	 -1.639175	 0.000000
C	 1.368216	 -0.558384	 0.000000
C	 0.202981	 -0.501768	 -0.753873
C	 1.735248	 0.518321	 0.788305
H	 -0.080839	 -1.340782	 -1.366686
C	 -0.593723	 0.630362	 -0.719033
H	 2.635043	 0.475893	 1.371096
C	 0.932034	 1.647945	 0.817512
H	 -1.493137	 0.662512	 -1.306741
C	 -0.234581	 1.711057	 0.065982
C	 1.320474	 2.808272	 1.662276
H	 -0.851935	 2.591434	 0.094542
O	 2.296894	 2.852127	 2.339938
H	 0.630248	 3.656506	 1.625731

	symmetry c1
}
set optking {
	frozen_dihedral = ("
		11 9 12 14
	")
}

ee = energy('scf')
oeprop('DIPOLE', 'QUADRUPOLE', 'MULLIKEN_CHARGES')
f=open( 'psi4out.xyz', 'w' )
f.write( "15  " )
f.write( str(ee) + "\n" )
f.write( MOL.save_string_xyz() )
f.close()
--------------------------------------------------------------------------

    Molecular point group: c1

    Geometry (in Angstrom), charge = 0, multiplicity = 1:

       Center              X                  Y                   Z               Mass
    ------------   -----------------  -----------------  -----------------  -----------------
           H          2.005105257026    -2.193373718511    -0.493149272006     1.007825032070
           O          1.094163257026    -2.451815718511    -0.493149272006    15.994914619560
           C          0.284051257026    -1.371024718511    -0.493149272006    12.000000000000
           C         -0.881183742974    -1.314408718511    -1.247022272006    12.000000000000
           C          0.651083257026    -0.294319718511     0.295155727994    12.000000000000
           H         -1.165003742974    -2.153422718511    -1.859835272006     1.007825032070
           C         -1.677887742974    -0.182278718511    -1.212182272006    12.000000000000
           H          1.550878257026    -0.336747718511     0.877946727994     1.007825032070
           C         -0.152130742974     0.835304281489     0.324362727994    12.000000000000
           H         -2.577301742974    -0.150128718511    -1.799890272006     1.007825032070
           C         -1.318745742974     0.898416281489    -0.427167272006    12.000000000000
           C          0.236309257026     1.995631281489     1.169126727994    12.000000000000
           H         -1.936099742974     1.778793281489    -0.398607272006     1.007825032070
           O          1.212729257026     2.039486281489     1.846788727994    15.994914619560
           H         -0.453916742974     2.843865281489     1.132581727994     1.007825032070

  Charge       = 0
  Multiplicity = 1
  Basis Set: 6-31G*
  Basis Set:

    Orbital Energies (a.u.)
    -----------------------

    Doubly Occupied:

       1A    -20.594452     2A    -20.566601     3A    -11.334758
       4A    -11.309570     5A    -11.252763     6A    -11.251847
       7A    -11.249067     8A    -11.247893     9A    -11.243345
      10A     -1.416852    11A     -1.407578    12A     -1.169997
      13A     -1.049368    14A     -1.025881    15A     -0.899313
      16A     -0.851593    17A     -0.797966    18A     -0.751972
      19A     -0.701856    20A     -0.671932    21A     -0.658794
      22A     -0.631254    23A     -0.617423    24A     -0.607658
      25A     -0.561390    26A     -0.550660    27A     -0.532112
      28A     -0.512416    29A     -0.486579    30A     -0.424827
      31A     -0.353307    32A     -0.331739

  @DF-RHF Final Energy:  -418.28373821421155

   => Energetics <=

    Nuclear Repulsion Energy =            403.4235293964397897
    One-Electron Energy =               -1369.2889868514248519
    Two-Electron Energy =                 547.5817192407746461
    DFT Exchange-Correlation Energy =       0.0000000000000000
    Empirical Dispersion Energy =           0.0000000000000000
    PCM Polarization Energy =               0.0000000000000000
    EFP Energy =                            0.0000000000000000
    Total Energy =                       -418.2837382142104161

  Mulliken Charges: (a.u.)
   Center  Symbol    Alpha    Beta     Spin     Total
       1     H     0.26803  0.26803  0.00000  0.46394
       2     O     4.38230  4.38230  0.00000 -0.76460
       3     C     2.79650  2.79650  0.00000  0.40700
       4     C     3.11370  3.11370  0.00000 -0.22740
       5     C     3.12958  3.12958  0.00000 -0.25916
       6     H     0.38690  0.38690  0.00000  0.22620
       7     C     3.09783  3.09783  0.00000 -0.19566
       8     H     0.37920  0.37920  0.00000  0.24161
       9     C     3.04823  3.04823  0.00000 -0.09646
      10     H     0.39216  0.39216  0.00000  0.21568
      11     C     3.11213  3.11213  0.00000 -0.22426
      12     C     2.83220  2.83220  0.00000  0.33560
      13     H     0.39250  0.39250  0.00000  0.21501
      14     O     4.24735  4.24735  0.00000 -0.49469
      15     H     0.42140  0.42140  0.00000  0.15720

   Total alpha = 32.00000, Total beta = 32.00000, Total charge =  0.00000
