                              Psi4 1.0.54 Driver

  ==> Input File <==

--------------------------------------------------------------------------
set {
	reference rhf
	basis cc-pvtz
}

set_num_threads( 4 )
memory 2 gb

molecule MOL {
0 1

H	 2.614283	 2.028610	 0.296620
O	 3.358864	 1.662087	 -0.142800
C	 3.565468	 0.338079	 0.273842
C	 4.483684	 0.218436	 1.481008
H	 2.586877	 -0.049027	 0.523820
H	 3.949213	 -0.262950	 -0.548322
C	 5.923204	 0.655998	 1.219912
H	 4.064669	 0.804948	 2.293158
H	 4.476402	 -0.819621	 1.804711
C	 6.822496	 0.490852	 2.444182
H	 5.930780	 1.693663	 0.903372
H	 6.332562	 0.074311	 0.395684
C	 8.293491	 0.844825	 2.218060
H	 6.429673	 1.093518	 3.259480
H	 6.765309	 -0.541675	 2.777479
C	 8.568621	 2.322912	 1.947312
H	 8.855500	 0.544549	 3.098121
H	 8.682908	 0.249937	 1.394885
C	 10.056800	 2.641305	 1.827486
H	 8.138998	 2.919581	 2.749109
H	 8.069467	 2.634914	 1.034896
C	 10.334888	 4.115568	 1.553428
H	 10.562036	 2.343913	 2.742294
H	 10.489329	 2.039758	 1.032424
H	 9.942498	 4.742064	 2.347639
H	 11.399082	 4.307243	 1.476894
H	 9.874123	 4.435100	 0.624479

	symmetry c1
}
set optking {
	frozen_dihedral = ("
		4 3 2 1
	")
}

ee,wfn = optimize('scf', return_wfn=True)
oeprop( wfn, 'DIPOLE', 'QUADRUPOLE', 'MULLIKEN_CHARGES')
f=open( 'psi4out.xyz', 'w' )
f.write( "27  " )
f.write( str(ee) + "\n" )
f.write( MOL.save_string_xyz() )
f.close()
--------------------------------------------------------------------------

    Molecular point group: c1
  Charge       = 0
  Multiplicity = 1
  Basis Set: CC-PVTZ
  Basis Set:
  @DF-RHF Final Energy:  -388.42596443802609
    Total Energy =                       -388.4259644380261989
    Molecular point group: c1
  Basis Set: CC-PVTZ
  Basis Set:
  Basis Set: CC-PVTZ
  Basis Set:
  @DF-RHF Final Energy:  -388.41018072100121
    Total Energy =                       -388.4101807210014385
  Basis Set: CC-PVTZ
  Basis Set:
  Basis Set: CC-PVTZ
  Basis Set:
  @DF-RHF Final Energy:  -388.42728720854387
    Total Energy =                       -388.4272872085443851
  Basis Set: CC-PVTZ
  Basis Set:
  Basis Set: CC-PVTZ
  Basis Set:
  @DF-RHF Final Energy:  -388.41563487260896
    Total Energy =                       -388.4156348726090755
  Basis Set: CC-PVTZ
  Basis Set:
  Basis Set: CC-PVTZ
  Basis Set:
  @DF-RHF Final Energy:  -388.42757404055959
    Total Energy =                       -388.4275740405597617
  Basis Set: CC-PVTZ
  Basis Set:
  Basis Set: CC-PVTZ
  Basis Set:
  @DF-RHF Final Energy:  -388.42762056506172
    Total Energy =                       -388.4276205650617158
  Basis Set: CC-PVTZ
  Basis Set:
  Basis Set: CC-PVTZ
  Basis Set:
  @DF-RHF Final Energy:  -388.42762325607896
    Total Energy =                       -388.4276232560788458
  Basis Set: CC-PVTZ
  Basis Set:
  Charge       = 0
  Multiplicity = 1
  Basis Set: CC-PVTZ
  Basis Set:

    Orbital Energies (a.u.)
    -----------------------

    Doubly Occupied:

       1A    -20.546145     2A    -11.265978     3A    -11.211911
       4A    -11.209274     5A    -11.208714     6A    -11.207728
       7A    -11.206047     8A    -11.205735     9A    -11.203148
      10A     -1.363604    11A     -1.090489    12A     -1.058213
      13A     -1.009235    14A     -0.944463    15A     -0.882308
      16A     -0.817477    17A     -0.798992    18A     -0.773477
      19A     -0.692768    20A     -0.649146    21A     -0.640824
      22A     -0.606891    23A     -0.600932    24A     -0.585019
      25A     -0.569678    26A     -0.553448    27A     -0.535670
      28A     -0.522253    29A     -0.509929    30A     -0.491739
      31A     -0.476877    32A     -0.468265    33A     -0.464667
      34A     -0.456591    35A     -0.450846    36A     -0.438024
      37A     -0.422341

  @DF-RHF Final Energy:  -388.42762338644377

   => Energetics <=

    Nuclear Repulsion Energy =            460.2567885097176941
    One-Electron Energy =               -1439.0911240138930225
    Two-Electron Energy =                 590.4067121177317858
    DFT Exchange-Correlation Energy =       0.0000000000000000
    Empirical Dispersion Energy =           0.0000000000000000
    PCM Polarization Energy =               0.0000000000000000
    EFP Energy =                            0.0000000000000000
    Total Energy =                       -388.4276233864435426
    Molecular point group: c1
  Basis Set: CC-PVTZ
  Basis Set:

  -Total Gradient:
     Atom            X                  Y                   Z
    ------   -----------------  -----------------  -----------------
       1       -0.000681255018    -0.000727997509    -0.001012486081
       2        0.001184686106     0.000773872970     0.001103576627
       3       -0.001282977783     0.000237627765     0.000243963750
       4        0.000777190347    -0.000284047597    -0.000322810867
       5        0.000000517462    -0.000009707002     0.000007179013
       6        0.000004572891     0.000017981154    -0.000009294860
       7        0.000002367367     0.000005378894    -0.000006562202
       8       -0.000004500251     0.000002438768    -0.000004581876
       9        0.000001052895     0.000000595281    -0.000001687723
      10       -0.000002816964    -0.000007807847     0.000001332941
      11       -0.000012961294    -0.000010669257     0.000005719304
      12        0.000008322500    -0.000001164835    -0.000003984807
      13       -0.000001627317     0.000000996764    -0.000007366716
      14       -0.000006685377     0.000006178512    -0.000004265530
      15        0.000000825783     0.000003885038     0.000011260618
      16        0.000011169992    -0.000007866058    -0.000003878689
      17        0.000000015128    -0.000008100027     0.000001939461
      18        0.000003994529    -0.000001219866    -0.000006546716
      19       -0.000007554200     0.000009499232     0.000005388408
      20       -0.000005911606     0.000003668064     0.000000681984
      21        0.000010486387     0.000005377232     0.000003190483
      22        0.000009501876    -0.000014168058    -0.000007815645
      23        0.000000450308    -0.000002555996     0.000004573661
      24        0.000002695357    -0.000002552782    -0.000001567399
      25       -0.000002288194     0.000006497866     0.000004304137
      26       -0.000006109592     0.000000857142     0.000002464031
      27       -0.000003161333     0.000003002144    -0.000002725314

  **** Optimization is complete! (in 8 steps) ****
    Final optimized geometry and variables:
    Molecular point group: c1

    Geometry (in Angstrom), charge = 0, multiplicity = 1:

    H           -3.665499263755     0.291267905934    -2.086521201930
    O           -2.915309514701    -0.262204250589    -2.196162919627
    C           -3.008855849390    -1.378764596563    -1.347337415810
    C           -2.377319815584    -1.136068669902     0.014707414625
    H           -4.045661838266    -1.679655282275    -1.228500682989
    H           -2.496442445708    -2.190481761063    -1.850119302710
    C           -0.881659484577    -0.840586459368    -0.050049047801
    H           -2.892941446410    -0.310460662217     0.500712668077
    H           -2.552733252230    -2.014911186091     0.631160646309
    C           -0.273149995889    -0.565098367884     1.323694906264
    H           -0.721848223779     0.001951747454    -0.710251727280
    H           -0.372226086281    -1.688818876769    -0.502817933766
    C            1.241574715811    -0.350471064423     1.324587920438
    H           -0.757362665474     0.304319267854     1.762908891990
    H           -0.501403868081    -1.400542391906     1.980509237683
    C            1.713255486171     0.916779515476     0.613968930487
    H            1.582434594935    -0.316036041227     2.355881783872
    H            1.725624389284    -1.215016495225     0.875974088192
    C            3.220759551597     1.133512536472     0.716516644845
    H            1.199338577539     1.776697897479     1.038447508668
    H            1.433936690203     0.882309782634    -0.434270589326
    C            3.694900597623     2.397155497467     0.006408339260
    H            3.506831057401     1.180495703078     1.763813467298
    H            3.735752492536     0.272235519399     0.299425038655
    H            3.222930275070     3.280749705885     0.423406727867
    H            4.767889774204     2.521311200323     0.098772309791
    H            3.455610738615     2.364895865812    -1.051325851788

  Mulliken Charges: (a.u.)
   Center  Symbol    Alpha    Beta     Spin     Total
       1     H     0.39422  0.39422  0.00000  0.21156
       2     O     4.20361  4.20361  0.00000 -0.40723
       3     C     2.98161  2.98161  0.00000  0.03678
       4     C     3.09106  3.09106  0.00000 -0.18213
       5     H     0.46009  0.46009  0.00000  0.07982
       6     H     0.46058  0.46058  0.00000  0.07884
       7     C     3.09271  3.09271  0.00000 -0.18542
       8     H     0.45983  0.45983  0.00000  0.08035
       9     H     0.45525  0.45525  0.00000  0.08951
      10     C     3.09832  3.09832  0.00000 -0.19663
      11     H     0.44280  0.44280  0.00000  0.11440
      12     H     0.45629  0.45629  0.00000  0.08742
      13     C     3.09760  3.09760  0.00000 -0.19519
      14     H     0.45419  0.45419  0.00000  0.09163
      15     H     0.45007  0.45007  0.00000  0.09985
      16     C     3.08806  3.08806  0.00000 -0.17613
      17     H     0.44927  0.44927  0.00000  0.10146
      18     H     0.45414  0.45414  0.00000  0.09172
      19     C     3.08384  3.08384  0.00000 -0.16768
      20     H     0.45606  0.45606  0.00000  0.08788
      21     H     0.45140  0.45140  0.00000  0.09720
      22     C     3.14975  3.14975  0.00000 -0.29950
      23     H     0.45479  0.45479  0.00000  0.09042
      24     H     0.45490  0.45490  0.00000  0.09020
      25     H     0.45567  0.45567  0.00000  0.08866
      26     H     0.44905  0.44905  0.00000  0.10190
      27     H     0.45485  0.45485  0.00000  0.09030

   Total alpha = 37.00000, Total beta = 37.00000, Total charge =  0.00000

*** Psi4 exiting successfully. Buy a developer a beer!
