  ==> Input File <==

--------------------------------------------------------------------------
set {
	reference rhf
	basis cc-pvtz
}

set_num_threads( 4 )
memory 2 gb

molecule MOL {
0 1

H	 -2.644180	 -0.653737	 1.272255
C	 -2.092774	 -0.380414	 0.391915
O	 -0.808934	 -0.154049	 0.752536
F	 -2.163230	 -1.351640	 -0.507133
F	 -2.627232	 0.691260	 -0.169301
C	 0.085006	 0.250800	 -0.215074
C	 1.370439	 -0.548013	 -0.012993
Cl	 0.421658	 1.987697	 -0.091007
H	 -0.272219	 0.063284	 -1.212508
F	 2.411565	 0.162391	 -0.365703
F	 1.333460	 -1.616200	 -0.773864
F	 1.525126	 -0.932043	 1.224280

	symmetry c1
}
set optking {
	frozen_dihedral = ("
		10 7 6 9
	")
}

ee = optimize('scf')
oeprop('DIPOLE', 'QUADRUPOLE', 'MULLIKEN_CHARGES')
f=open( 'psi4out.xyz', 'w' )
f.write( "12  " )
f.write( str(ee) + "\n" )
f.write( MOL.save_string_xyz() )
f.close()
--------------------------------------------------------------------------

    Molecular point group: c1
  Charge       = 0
  Multiplicity = 1
  Basis Set: CC-PVTZ
  Basis Set:
  @DF-RHF Final Energy: -1146.61392011023781
    Total Energy =                      -1146.6139201102378138
    Molecular point group: c1
  Basis Set: CC-PVTZ
  Basis Set:
  Basis Set: CC-PVTZ
  Basis Set:
  @DF-RHF Final Energy: -1146.61432320260360
    Total Energy =                      -1146.6143232026038277
  Basis Set: CC-PVTZ
  Basis Set:
  Basis Set: CC-PVTZ
  Basis Set:
  @DF-RHF Final Energy: -1146.61529546890233
    Total Energy =                      -1146.6152954689023318
  Basis Set: CC-PVTZ
  Basis Set:
  Basis Set: CC-PVTZ
  Basis Set:
  @DF-RHF Final Energy: -1146.61534305976284
    Total Energy =                      -1146.6153430597626084
  Basis Set: CC-PVTZ
  Basis Set:
  Basis Set: CC-PVTZ
  Basis Set:
  @DF-RHF Final Energy: -1146.61534992480870
    Total Energy =                      -1146.6153499248080152
  Basis Set: CC-PVTZ
  Basis Set:
  Basis Set: CC-PVTZ
  Basis Set:
  @DF-RHF Final Energy: -1146.61535147022960
    Total Energy =                      -1146.6153514702295979
  Basis Set: CC-PVTZ
  Basis Set:
  Charge       = 0
  Multiplicity = 1
  Basis Set: CC-PVTZ
  Basis Set:

    Orbital Energies (a.u.)
    -----------------------

    Doubly Occupied:

       1A   -104.857326     2A    -26.356190     3A    -26.354027
       4A    -26.350183     5A    -26.342604     6A    -26.342339
       7A    -20.639052     8A    -11.521458     9A    -11.482726
      10A    -11.401415    11A    -10.582906    12A     -8.049710
      13A     -8.047703    14A     -8.047640    15A     -1.768175
      16A     -1.723813    17A     -1.663700    18A     -1.659609
      19A     -1.643956    20A     -1.484974    21A     -1.177485
      22A     -1.052148    23A     -0.989643    24A     -0.923716
      25A     -0.862988    26A     -0.856795    27A     -0.853611
      28A     -0.829214    29A     -0.817371    30A     -0.794847
      31A     -0.733141    32A     -0.729574    33A     -0.711500
      34A     -0.708004    35A     -0.685824    36A     -0.679513
      37A     -0.665096    38A     -0.663206    39A     -0.649920
      40A     -0.636244    41A     -0.598007    42A     -0.580532
      43A     -0.525609    44A     -0.477739    45A     -0.470384

  @DF-RHF Final Energy: -1146.61535202546793

   => Energetics <=

    Nuclear Repulsion Energy =            737.1745065844797864
    One-Electron Energy =               -3057.5964910919606154
    Two-Electron Energy =                1173.8066324820133559
    DFT Exchange-Correlation Energy =       0.0000000000000000
    Empirical Dispersion Energy =           0.0000000000000000
    PCM Polarization Energy =               0.0000000000000000
    EFP Energy =                            0.0000000000000000
    Total Energy =                      -1146.6153520254674731
    Molecular point group: c1
  Basis Set: CC-PVTZ
  Basis Set:

  -Total Gradient:
     Atom            X                  Y                   Z
    ------   -----------------  -----------------  -----------------
       1       -0.000000005256     0.000009860655     0.000012381357
       2        0.000024737025    -0.000066696151     0.000090448549
       3       -0.000146090148     0.000039978861     0.000031436969
       4        0.000019289612     0.000008312189    -0.000050007886
       5        0.000019271732    -0.000011175145    -0.000016949021
       6        0.005193688971     0.007734269999    -0.001656330555
       7       -0.001754421934    -0.004396498273    -0.007116685510
       8        0.000009584834    -0.000104630579    -0.000013058730
       9       -0.004092154104    -0.005635117235     0.002770841664
      10        0.000660992396     0.002361232425     0.005852785692
      11       -0.000033621486     0.000068706086    -0.000086594594
      12        0.000098728366    -0.000008242771     0.000181732063

  **** Optimization is complete! (in 7 steps) ****
    Final optimized geometry and variables:
    Molecular point group: c1

    Geometry (in Angstrom), charge = 0, multiplicity = 1:

    H           -2.640417087371    -0.682964776210     1.249477113452
    C           -2.086141939539    -0.389236035742     0.377416386568
    O           -0.805330105513    -0.167864738446     0.747223328456
    F           -2.150319945125    -1.343248340323    -0.542080788219
    F           -2.624611663899     0.690615344642    -0.164619321824
    C            0.091759460128     0.269878358469    -0.211451928410
    C            1.382767693127    -0.552138598491    -0.023732773473
    CL           0.381118365962     2.005686309358    -0.056013305889
    H           -0.292527752289     0.059154835488    -1.193663020175
    F            2.446269011682     0.097557403383    -0.412846946218
    F            1.286075427414    -1.655703596567    -0.727536035513
    F            1.561008998904    -0.882371306134     1.228289858654

  Mulliken Charges: (a.u.)
   Center  Symbol    Alpha    Beta     Spin     Total
       1     H     0.45199  0.45199  0.00000  0.09601
       2     C     2.74002  2.74002  0.00000  0.51995
       3     O     4.15368  4.15368  0.00000 -0.30735
       4     F     4.61891  4.61891  0.00000 -0.23783
       5     F     4.61532  4.61532  0.00000 -0.23063
       6     C     2.94996  2.94996  0.00000  0.10007
       7     C     2.66770  2.66770  0.00000  0.66460
       8    CL     8.56843  8.56843  0.00000 -0.13687
       9     H     0.43153  0.43153  0.00000  0.13695
      10     F     4.59784  4.59784  0.00000 -0.19569
      11     F     4.60489  4.60489  0.00000 -0.20979
      12     F     4.59972  4.59972  0.00000 -0.19943

   Total alpha = 45.00000, Total beta = 45.00000, Total charge =  0.00000
