                              Psi4 1.0.54 Driver

  ==> Input File <==

--------------------------------------------------------------------------
set {
	reference rhf
	basis cc-pvtz
}

set_num_threads( 4 )
memory 2 gb

molecule MOL {
0 1

H	 3.397997	 -0.284142	 -0.919280
C	 2.686896	 -0.478931	 -0.127022
C	 1.322304	 0.099773	 -0.484271
H	 2.634756	 -1.552412	 0.015422
H	 3.075922	 -0.037967	 0.783775
C	 0.308557	 -0.162619	 0.622645
H	 0.959471	 -0.341252	 -1.404370
H	 1.400316	 1.168302	 -0.642690
N	 -1.069352	 -0.004081	 0.085342
H	 0.371632	 -1.172932	 0.991288
H	 0.400391	 0.548875	 1.426218
O	 -1.584901	 -0.965470	 -0.377818
O	 -1.548033	 1.079343	 0.130056

	symmetry c1
}
set optking {
	frozen_dihedral = ("
		7 3 6 9
	")
}

ee,wfn = optimize('scf', return_wfn=True)
oeprop( wfn, 'DIPOLE', 'QUADRUPOLE', 'MULLIKEN_CHARGES')
f=open( 'psi4out.xyz', 'w' )
f.write( "13  " )
f.write( str(ee) + "\n" )
f.write( MOL.save_string_xyz() )
f.close()
--------------------------------------------------------------------------

    Molecular point group: c1
  Charge       = 0
  Multiplicity = 1
  Basis Set: CC-PVTZ
  Basis Set:
  @DF-RHF Final Energy:  -321.86028750201183
    Total Energy =                       -321.8602875020119427
    Molecular point group: c1
  Basis Set: CC-PVTZ
  Basis Set:
  Basis Set: CC-PVTZ
  Basis Set:
  @DF-RHF Final Energy:  -321.86012870896479
    Total Energy =                       -321.8601287089646803
  Basis Set: CC-PVTZ
  Basis Set:
  Basis Set: CC-PVTZ
  Basis Set:
  @DF-RHF Final Energy:  -321.85704770084169
    Total Energy =                       -321.8570477008416901
  Basis Set: CC-PVTZ
  Basis Set:
  Basis Set: CC-PVTZ
  Basis Set:
  @DF-RHF Final Energy:  -321.86012576325993
    Total Energy =                       -321.8601257632599300
  Basis Set: CC-PVTZ
  Basis Set:
  @DF-RHF Final Energy:  -321.86031471163494
    Total Energy =                       -321.8603147116350556
  Basis Set: CC-PVTZ
  Basis Set:
  @DF-RHF Final Energy:  -321.86042123301183
    Total Energy =                       -321.8604212330118912
  Basis Set: CC-PVTZ
  Basis Set:
  Basis Set: CC-PVTZ
  Basis Set:
  @DF-RHF Final Energy:  -321.86042389905634
    Total Energy =                       -321.8604238990565136
  Basis Set: CC-PVTZ
  Basis Set:
  Basis Set: CC-PVTZ
  Basis Set:
  @DF-RHF Final Energy:  -321.86042492579577
    Total Energy =                       -321.8604249257959395
  Basis Set: CC-PVTZ
  Basis Set:
  Charge       = 0
  Multiplicity = 1
  Basis Set: CC-PVTZ
  Basis Set:

    Orbital Energies (a.u.)
    -----------------------

    Doubly Occupied:

       1A    -20.590596     2A    -20.590304     3A    -15.836990
       4A    -11.297267     5A    -11.254506     6A    -11.237115
       7A     -1.635943     8A     -1.420261     9A     -1.133812
      10A     -1.028027    11A     -0.884314    12A     -0.834792
      13A     -0.761799    14A     -0.738571    15A     -0.727618
      16A     -0.670448    17A     -0.605414    18A     -0.590275
      19A     -0.550266    20A     -0.521009    21A     -0.513568
      22A     -0.486463    23A     -0.475291    24A     -0.453181

  @DF-RHF Final Energy:  -321.86042556293728

   => Energetics <=

    Nuclear Repulsion Energy =            248.0676671740104382
    One-Electron Energy =                -930.1805228774970828
    Two-Electron Energy =                 360.2524301405492793
    DFT Exchange-Correlation Energy =       0.0000000000000000
    Empirical Dispersion Energy =           0.0000000000000000
    PCM Polarization Energy =               0.0000000000000000
    EFP Energy =                            0.0000000000000000
    Total Energy =                       -321.8604255629373370
    Molecular point group: c1
  Basis Set: CC-PVTZ
  Basis Set:

  -Total Gradient:
     Atom            X                  Y                   Z
    ------   -----------------  -----------------  -----------------
       1       -0.000009250117     0.000007452340    -0.000005488245
       2        0.000005545994     0.000013656406    -0.000017629691
       3        0.001956794250    -0.004434296180     0.000733118144
       4       -0.000001195551    -0.000009896431     0.000008765516
       5       -0.000005172405     0.000000925016     0.000009920529
       6       -0.000290522679     0.003917841368     0.000685561018
       7       -0.001584637193     0.002908020233    -0.000729935415
       8       -0.000018093355     0.000030257038    -0.000023837213
       9        0.000065526188    -0.002225376279    -0.000567005413
      10       -0.000001334753    -0.000053935130    -0.000004624499
      11        0.000034002356    -0.000010816826     0.000015178927
      12       -0.000101970209    -0.000226708010    -0.000099943431
      13       -0.000049692526     0.000082876455    -0.000004080226

  **** Optimization is complete! (in 9 steps) ****
    Final optimized geometry and variables:
    Molecular point group: c1

    Geometry (in Angstrom), charge = 0, multiplicity = 1:

    H            3.425055237479    -0.134301649134    -0.872243569855
    C            2.708475164525    -0.378230082469    -0.098713355057
    C            1.333641185338     0.172940542396    -0.454663843618
    H            2.684375646838    -1.456581059671     0.006691446890
    H            3.071916444134     0.041920644481     0.832786026650
    C            0.315138574195    -0.105331081335     0.648714494562
    H            0.974364152333    -0.254404439874    -1.382962322347
    H            1.390084640866     1.242884552999    -0.612878654714
    N           -1.061450894168     0.060894501854     0.111664398611
    H            0.370309139167    -1.125380204702     0.990523359945
    H            0.409465279599     0.582061479247     1.472606785312
    O           -1.602092846508    -0.907279594762    -0.306872293097
    O           -1.514241524508     1.156557273833     0.110208810248

  Mulliken Charges: (a.u.)
   Center  Symbol    Alpha    Beta     Spin     Total
       1     H     0.44206  0.44206  0.00000  0.11587
       2     C     3.15030  3.15030  0.00000 -0.30059
       3     C     3.09486  3.09486  0.00000 -0.18971
       4     H     0.45021  0.45021  0.00000  0.09958
       5     H     0.45226  0.45226  0.00000  0.09549
       6     C     3.03778  3.03778  0.00000 -0.07555
       7     H     0.43845  0.43845  0.00000  0.12309
       8     H     0.43970  0.43970  0.00000  0.12059
       9     N     3.27802  3.27802  0.00000  0.44397
      10     H     0.43672  0.43672  0.00000  0.12656
      11     H     0.43334  0.43334  0.00000  0.13331
      12     O     4.17210  4.17210  0.00000 -0.34420
      13     O     4.17420  4.17420  0.00000 -0.34840

   Total alpha = 24.00000, Total beta = 24.00000, Total charge = -0.00000

*** Psi4 exiting successfully. Buy a developer a beer!
