                              Psi4 1.0.54 Driver

  ==> Input File <==

--------------------------------------------------------------------------
set {
	reference rhf
	basis cc-pvtz
}

set_num_threads( 4 )
memory 2 gb

molecule MOL {
0 1

H	 -3.626812	 1.841338	 -1.219158
O	 -2.919929	 1.268222	 -1.451641
C	 -1.993581	 1.193089	 -0.400617
C	 -0.871435	 0.261830	 -0.812525
H	 -1.592842	 2.179167	 -0.175161
H	 -2.471965	 0.819778	 0.502499
C	 0.196029	 0.106276	 0.266738
H	 -0.425263	 0.643984	 -1.725274
H	 -1.299358	 -0.705317	 -1.056299
C	 1.330220	 -0.826136	 -0.155230
H	 0.595336	 1.084549	 0.516237
H	 -0.260978	 -0.279045	 1.175724
C	 2.719700	 -0.407669	 0.328325
H	 1.339388	 -0.911200	 -1.239363
H	 1.119001	 -1.821953	 0.224128
C	 3.241564	 0.893452	 -0.276737
H	 3.418299	 -1.204729	 0.093035
H	 2.711776	 -0.323368	 1.411960
H	 3.254204	 0.841071	 -1.360784
H	 2.634460	 1.745075	 0.005842
H	 4.254264	 1.092401	 0.054971

	symmetry c1
}
set optking {
	frozen_dihedral = ("
		4 7 10 14
	")
}

ee,wfn = optimize('scf', return_wfn=True)
oeprop( wfn, 'DIPOLE', 'QUADRUPOLE', 'MULLIKEN_CHARGES')
f=open( 'psi4out.xyz', 'w' )
f.write( "21  " )
f.write( str(ee) + "\n" )
f.write( MOL.save_string_xyz() )
f.close()
--------------------------------------------------------------------------

    Molecular point group: c1
  Charge       = 0
  Multiplicity = 1
  Basis Set: CC-PVTZ
  Basis Set:
  @DF-RHF Final Energy:  -310.32894281389929
    Total Energy =                       -310.3289428138991752
    Molecular point group: c1
  Basis Set: CC-PVTZ
  Basis Set:
  Basis Set: CC-PVTZ
  Basis Set:
  @DF-RHF Final Energy:  -310.32879410953177
    Total Energy =                       -310.3287941095316000
  Basis Set: CC-PVTZ
  Basis Set:
  Basis Set: CC-PVTZ
  Basis Set:
  @DF-RHF Final Energy:  -310.32936982968005
    Total Energy =                       -310.3293698296804450
  Basis Set: CC-PVTZ
  Basis Set:
  Basis Set: CC-PVTZ
  Basis Set:
  @DF-RHF Final Energy:  -310.32942180120506
    Total Energy =                       -310.3294218012052852
  Basis Set: CC-PVTZ
  Basis Set:
  Basis Set: CC-PVTZ
  Basis Set:
  @DF-RHF Final Energy:  -310.32943497617805
    Total Energy =                       -310.3294349761777653
  Basis Set: CC-PVTZ
  Basis Set:
  Charge       = 0
  Multiplicity = 1
  Basis Set: CC-PVTZ
  Basis Set:

    Orbital Energies (a.u.)
    -----------------------

    Doubly Occupied:

       1A    -20.545361     2A    -11.264840     3A    -11.213465
       4A    -11.213113     5A    -11.210978     6A    -11.209253
       7A    -11.205944     8A     -1.363193     9A     -1.086074
      10A     -1.034365    11A     -0.955022    12A     -0.876143
      13A     -0.806991    14A     -0.781532    15A     -0.696233
      16A     -0.661759    17A     -0.619510    18A     -0.612337
      19A     -0.588543    20A     -0.562225    21A     -0.548237
      22A     -0.521101    23A     -0.503747    24A     -0.490903
      25A     -0.481660    26A     -0.460893    27A     -0.452255
      28A     -0.443702    29A     -0.437523

  @DF-RHF Final Energy:  -310.32943554333247

   => Energetics <=

    Nuclear Repulsion Energy =            314.0645633667688799
    One-Electron Energy =               -1043.0941971741945054
    Two-Electron Energy =                 418.7001982640929896
    DFT Exchange-Correlation Energy =       0.0000000000000000
    Empirical Dispersion Energy =           0.0000000000000000
    PCM Polarization Energy =               0.0000000000000000
    EFP Energy =                            0.0000000000000000
    Total Energy =                       -310.3294355433326359
    Molecular point group: c1
  Basis Set: CC-PVTZ
  Basis Set:

  -Total Gradient:
     Atom            X                  Y                   Z
    ------   -----------------  -----------------  -----------------
       1       -0.000008089472     0.000007023787    -0.000011236608
       2       -0.000028666430     0.000010830479    -0.000003032625
       3        0.000010397191    -0.000004981105    -0.000022982776
       4        0.001310505502     0.002089394997    -0.000936825588
       5        0.000004318128     0.000001927360     0.000009972892
       6        0.000005388323    -0.000006071053    -0.000002068933
       7       -0.002353020989    -0.003592560517     0.001377425936
       8        0.000013286877    -0.000011817278    -0.000005598667
       9       -0.000011954505     0.000005673497     0.000014682214
      10        0.003286385885     0.004395811307    -0.000547882653
      11       -0.000020224787     0.000005167207     0.000003417210
      12        0.000001097667    -0.000003338458     0.000000308591
      13        0.000019627216    -0.000027114066    -0.000028982807
      14       -0.002220856652    -0.002862070661     0.000131570313
      15        0.000001262247    -0.000011057152    -0.000000459933
      16       -0.000005897602    -0.000003844235     0.000017591797
      17        0.000012754817    -0.000001132795     0.000010801527
      18       -0.000005400869     0.000013043679    -0.000017089074
      19       -0.000009381711    -0.000008116551     0.000012132157
      20       -0.000003716575     0.000005300349     0.000001137036
      21        0.000002185734    -0.000002068788    -0.000002880012

  **** Optimization is complete! (in 6 steps) ****
    Final optimized geometry and variables:
    Molecular point group: c1

    Geometry (in Angstrom), charge = 0, multiplicity = 1:

    H           -3.857641945670     1.401384823082    -0.827128564705
    O           -3.125171531528     0.869059579436    -1.076581264144
    C           -2.219605609552     0.762937432061    -0.010208834066
    C           -1.054639674509    -0.099973872778    -0.450117655685
    H           -1.860825028629     1.747208602406     0.284038111884
    H           -2.702993111079     0.318192424345     0.857109162590
    C            0.006092951291    -0.264582909564     0.634488901485
    H           -0.608563205032     0.345010342007    -1.333511786042
    H           -1.439491232795    -1.069851811025    -0.750836617086
    C            1.164226905057    -1.186864303771     0.217256136495
    H            0.391665142416     0.718475918720     0.887184052462
    H           -0.448563126010    -0.647333442821     1.543417373182
    C            2.536790919393    -0.778808183329     0.753328845841
    H            1.198486765883    -1.266730311600    -0.865753858137
    H            0.943702633608    -2.192344777232     0.563252543346
    C            3.130563651758     0.455369344380     0.078921982566
    H            3.223980614393    -1.608905295167     0.622420132943
    H            2.467069679855    -0.610246108254     1.824959383153
    H            3.262381013829     0.287550390430    -0.984861273042
    H            2.499390946913     1.328289554766     0.197967788967
    H            4.101000601369     0.696164137418     0.497847835137

  Mulliken Charges: (a.u.)
   Center  Symbol    Alpha    Beta     Spin     Total
       1     H     0.39741  0.39741  0.00000  0.20519
       2     O     4.19471  4.19471  0.00000 -0.38942
       3     C     2.96361  2.96361  0.00000  0.07279
       4     C     3.08468  3.08468  0.00000 -0.16935
       5     H     0.47508  0.47508  0.00000  0.04984
       6     H     0.47474  0.47474  0.00000  0.05052
       7     C     3.10820  3.10820  0.00000 -0.21641
       8     H     0.45073  0.45073  0.00000  0.09853
       9     H     0.45039  0.45039  0.00000  0.09921
      10     C     3.09615  3.09615  0.00000 -0.19229
      11     H     0.45401  0.45401  0.00000  0.09198
      12     H     0.44948  0.44948  0.00000  0.10103
      13     C     3.08976  3.08976  0.00000 -0.17952
      14     H     0.45324  0.45324  0.00000  0.09353
      15     H     0.44812  0.44812  0.00000  0.10375
      16     C     3.14931  3.14931  0.00000 -0.29863
      17     H     0.44849  0.44849  0.00000  0.10301
      18     H     0.45467  0.45467  0.00000  0.09066
      19     H     0.45427  0.45427  0.00000  0.09146
      20     H     0.45528  0.45528  0.00000  0.08944
      21     H     0.44766  0.44766  0.00000  0.10468

   Total alpha = 29.00000, Total beta = 29.00000, Total charge = -0.00000

*** Psi4 exiting successfully. Buy a developer a beer!
