                              Psi4 1.0.54 Driver

  ==> Input File <==

--------------------------------------------------------------------------
set {
	reference rhf
	basis cc-pvtz
}

set_num_threads( 4 )
memory 2 gb

molecule MOL {
0 1

H	 2.531769	 2.119800	 0.054599
O	 3.282653	 1.743794	 -0.365667
C	 3.524243	 0.454911	 0.134021
C	 2.513741	 -0.578756	 -0.340429
H	 4.511186	 0.182923	 -0.215188
H	 3.560282	 0.470177	 1.221642
C	 1.092466	 -0.345352	 0.166865
H	 2.517040	 -0.591965	 -1.426234
H	 2.856881	 -1.556810	 -0.011698
C	 0.113298	 -1.420414	 -0.302504
H	 0.747873	 0.627735	 -0.166843
H	 1.098316	 -0.319022	 1.255239
C	 -1.311023	 -1.277304	 0.237018
H	 0.086130	 -1.428394	 -1.389438
H	 0.497693	 -2.391547	 -0.003153
C	 -2.041121	 -0.006551	 -0.194127
H	 -1.888548	 -2.136293	 -0.093331
H	 -1.289731	 -1.328757	 1.323321
C	 -3.489218	 0.042606	 0.286507
H	 -2.022185	 0.066287	 -1.279394
H	 -1.518764	 0.869305	 0.178730
C	 -4.219984	 1.311773	 -0.139038
H	 -4.022855	 -0.824300	 -0.093339
H	 -3.510372	 -0.038577	 1.370031
H	 -4.244251	 1.405725	 -1.219696
H	 -5.244345	 1.313233	 0.215630
H	 -3.732090	 2.196311	 0.257073

	symmetry c1
}
set optking {
	frozen_dihedral = ("
		14 10 13 16
	")
}

ee,wfn = optimize('scf', return_wfn=True)
oeprop( wfn, 'DIPOLE', 'QUADRUPOLE', 'MULLIKEN_CHARGES')
f=open( 'psi4out.xyz', 'w' )
f.write( "27  " )
f.write( str(ee) + "\n" )
f.write( MOL.save_string_xyz() )
f.close()
--------------------------------------------------------------------------

    Molecular point group: c1
  Charge       = 0
  Multiplicity = 1
  Basis Set: CC-PVTZ
  Basis Set:
  @DF-RHF Final Energy:  -388.42772910240205
    Total Energy =                       -388.4277291024027363
    Molecular point group: c1
  Basis Set: CC-PVTZ
  Basis Set:
  Basis Set: CC-PVTZ
  Basis Set:
  @DF-RHF Final Energy:  -388.42770740828831
    Total Energy =                       -388.4277074082883701
  Basis Set: CC-PVTZ
  Basis Set:
  Basis Set: CC-PVTZ
  Basis Set:
  @DF-RHF Final Energy:  -388.42774936249486
    Total Energy =                       -388.4277493624945237
  Basis Set: CC-PVTZ
  Basis Set:
  Charge       = 0
  Multiplicity = 1
  Basis Set: CC-PVTZ
  Basis Set:

    Orbital Energies (a.u.)
    -----------------------

    Doubly Occupied:

       1A    -20.545342     2A    -11.264990     3A    -11.216786
       4A    -11.214699     5A    -11.213931     6A    -11.213277
       7A    -11.213256     8A    -11.211904     9A    -11.207314
      10A     -1.363242    11A     -1.096287    12A     -1.062571
      13A     -1.012537    14A     -0.949347    15A     -0.889021
      16A     -0.820523    17A     -0.802576    18A     -0.777386
      19A     -0.696193    20A     -0.653571    21A     -0.638706
      22A     -0.616056    23A     -0.601782    24A     -0.584008
      25A     -0.580680    26A     -0.553654    27A     -0.540827
      28A     -0.533299    29A     -0.505839    30A     -0.495635
      31A     -0.485475    32A     -0.474360    33A     -0.469142
      34A     -0.460844    35A     -0.452982    36A     -0.442607
      37A     -0.425749

  @DF-RHF Final Energy:  -388.42774958203375

   => Energetics <=

    Nuclear Repulsion Energy =            460.4264948352400211
    One-Electron Energy =               -1439.1356865009083776
    Two-Electron Energy =                 590.2814420836346017
    DFT Exchange-Correlation Energy =       0.0000000000000000
    Empirical Dispersion Energy =           0.0000000000000000
    PCM Polarization Energy =               0.0000000000000000
    EFP Energy =                            0.0000000000000000
    Total Energy =                       -388.4277495820338117
    Molecular point group: c1
  Basis Set: CC-PVTZ
  Basis Set:

  -Total Gradient:
     Atom            X                  Y                   Z
    ------   -----------------  -----------------  -----------------
       1        0.000020809950    -0.000004595019    -0.000003675124
       2        0.000012013114     0.000005570406    -0.000011829747
       3       -0.000017485912     0.000009770268     0.000053461452
       4       -0.000018233305    -0.000015572308    -0.000030120099
       5       -0.000006889210     0.000004540271    -0.000000355709
       6        0.000011031257     0.000006854159     0.000011081257
       7        0.000000361982     0.000025375469    -0.000013038721
       8       -0.000015340070    -0.000000414328    -0.000011546332
       9        0.000001719170    -0.000007140594    -0.000007142321
      10        0.000141553824     0.000872693230     0.000157123257
      11       -0.000011426061    -0.000014927758    -0.000005659653
      12       -0.000006334749    -0.000004580827    -0.000010979051
      13       -0.000249887439    -0.000466732127    -0.000536728696
      14       -0.000040790418    -0.000627671245     0.000018355360
      15        0.000001471389    -0.000015906443    -0.000007282368
      16        0.000176708397     0.000233167526     0.000395291530
      17        0.000005591198    -0.000000330390    -0.000000584878
      18       -0.000005689520     0.000009863833     0.000001970159
      19        0.000014164125     0.000000671427     0.000014585859
      20        0.000000101037     0.000009057100    -0.000001073628
      21        0.000005761726    -0.000012303426     0.000007906015
      22       -0.000021007167    -0.000009249525    -0.000025117500
      23       -0.000009053660    -0.000005367517     0.000004988125
      24        0.000010535979     0.000001417400     0.000009547963
      25       -0.000001666233     0.000010044339    -0.000011115034
      26       -0.000001263704    -0.000000358976    -0.000006530259
      27        0.000003244301    -0.000003874944     0.000008468144

  **** Optimization is complete! (in 4 steps) ****
    Final optimized geometry and variables:
    Molecular point group: c1

    Geometry (in Angstrom), charge = 0, multiplicity = 1:

    H            2.576279559812     2.084150102218     0.085316685745
    O            3.325469613411     1.698151277350    -0.328533188597
    C            3.553418856838     0.411103298034     0.182014017503
    C            2.535613638775    -0.617224788872    -0.288342220271
    H            4.539193224778     0.127630737876    -0.161249692729
    H            3.585503380959     0.434556024808     1.269592513764
    C            1.114266289268    -0.366804158858     0.210405428786
    H            2.543616048093    -0.639443475971    -1.373943215965
    H            2.868420811567    -1.595535383964     0.049963943597
    C            0.129344464930    -1.439658496059    -0.250701625584
    H            0.778410638725     0.604820529248    -0.135887634953
    H            1.116213819943    -0.327874709923     1.298412836417
    C           -1.289582891717    -1.301688115076     0.303876096774
    H            0.091081042574    -1.449452709329    -1.337294987022
    H            0.515919726153    -2.411888380355     0.042805034567
    C           -2.032321207066    -0.035723730949    -0.119388364175
    H           -1.865077073890    -2.165946372816    -0.015771256870
    H           -1.254701077859    -1.348307954561     1.390084689937
    C           -3.480958185252    -0.005051632906     0.361018273753
    H           -2.013954843048     0.045934272992    -1.204135578380
    H           -1.519066410240     0.842191750208     0.260752742605
    C           -4.224219143243     1.260414705728    -0.053648562541
    H           -4.005888532432    -0.873797317271    -0.026565557463
    H           -3.501511302484    -0.095966356026     1.443768849207
    H           -4.248608089121     1.363936069788    -1.133412965997
    H           -5.248784609403     1.248346044239     0.300091159626
    H           -3.745619851201     2.146189360557     0.350901833862

  Mulliken Charges: (a.u.)
   Center  Symbol    Alpha    Beta     Spin     Total
       1     H     0.39232  0.39232  0.00000  0.21535
       2     O     4.20550  4.20550  0.00000 -0.41099
       3     C     2.97998  2.97998  0.00000  0.04003
       4     C     3.08930  3.08930  0.00000 -0.17860
       5     H     0.44853  0.44853  0.00000  0.10294
       6     H     0.46977  0.46977  0.00000  0.06047
       7     C     3.10318  3.10318  0.00000 -0.20637
       8     H     0.45080  0.45080  0.00000  0.09841
       9     H     0.45509  0.45509  0.00000  0.08981
      10     C     3.09834  3.09834  0.00000 -0.19668
      11     H     0.45539  0.45539  0.00000  0.08922
      12     H     0.45363  0.45363  0.00000  0.09274
      13     C     3.09785  3.09785  0.00000 -0.19569
      14     H     0.45136  0.45136  0.00000  0.09729
      15     H     0.44837  0.44837  0.00000  0.10326
      16     C     3.08867  3.08867  0.00000 -0.17735
      17     H     0.44807  0.44807  0.00000  0.10385
      18     H     0.45369  0.45369  0.00000  0.09262
      19     C     3.08408  3.08408  0.00000 -0.16815
      20     H     0.45393  0.45393  0.00000  0.09213
      21     H     0.45518  0.45518  0.00000  0.08964
      22     C     3.14964  3.14964  0.00000 -0.29929
      23     H     0.45367  0.45367  0.00000  0.09266
      24     H     0.45473  0.45473  0.00000  0.09055
      25     H     0.45484  0.45484  0.00000  0.09031
      26     H     0.44827  0.44827  0.00000  0.10347
      27     H     0.45582  0.45582  0.00000  0.08836

   Total alpha = 37.00000, Total beta = 37.00000, Total charge = -0.00000

*** Psi4 exiting successfully. Buy a developer a beer!
