  ==> Input File <==

--------------------------------------------------------------------------
set {
	reference rhf
	basis 6-31G*
}

set_num_threads( 4 )
memory 2 gb

molecule MOL {
0 1

H	 -2.657203	 0.605146	 -0.714293
C	 -1.903182	 1.129109	 -1.288977
C	 -0.611907	 0.322712	 -1.360321
H	 -1.736761	 2.087602	 -0.812659
H	 -2.293561	 1.305291	 -2.285892
C	 -0.000005	 0.033229	 -0.000001
H	 0.134111	 0.840980	 -1.959697
H	 -0.778228	 -0.628489	 -1.862266
C	 1.290528	 -0.768786	 0.000276
O	 -0.504657	 0.414537	 1.011491
C	 2.545731	 0.095645	 -0.000061
H	 1.275672	 -1.427874	 -0.865626
H	 1.275566	 -1.427086	 0.866768
H	 2.577157	 0.734767	 -0.874036
H	 3.433520	 -0.528139	 0.000137
H	 2.577172	 0.735117	 0.873581

	symmetry c1
}
set optking {
	frozen_dihedral = ("
		3 6 9 12
	")
}

ee = optimize('scf')
oeprop('DIPOLE', 'QUADRUPOLE', 'MULLIKEN_CHARGES')
f=open( 'psi4out.xyz', 'w' )
f.write( "16  " )
f.write( str(ee) + "\n" )
f.write( MOL.save_string_xyz() )
f.close()
--------------------------------------------------------------------------

    Molecular point group: c1
  Charge       = 0
  Multiplicity = 1
  Basis Set: 6-31G*
  Basis Set:
  @DF-RHF Final Energy:  -270.03044107430662
    Total Energy =                       -270.0304410743067933
    Molecular point group: c1
  Basis Set: 6-31G*
  Basis Set:
  Basis Set: 6-31G*
  Basis Set:
  @DF-RHF Final Energy:  -270.03055968593117
    Total Energy =                       -270.0305596859310526
  Basis Set: 6-31G*
  Basis Set:
  Basis Set: 6-31G*
  Basis Set:
  @DF-RHF Final Energy:  -270.03110047434961
    Total Energy =                       -270.0311004743493868
  Basis Set: 6-31G*
  Basis Set:
  Basis Set: 6-31G*
  Basis Set:
  @DF-RHF Final Energy:  -270.03128371816683
    Total Energy =                       -270.0312837181668328
  Basis Set: 6-31G*
  Basis Set:
  Basis Set: 6-31G*
  Basis Set:
  @DF-RHF Final Energy:  -270.03129625574013
    Total Energy =                       -270.0312962557400738
  Basis Set: 6-31G*
  Basis Set:
  Basis Set: 6-31G*
  Basis Set:
  @DF-RHF Final Energy:  -270.03130025805240
    Total Energy =                       -270.0313002580523971
  Basis Set: 6-31G*
  Basis Set:
  Charge       = 0
  Multiplicity = 1
  Basis Set: 6-31G*
  Basis Set:

    Orbital Energies (a.u.)
    -----------------------

    Doubly Occupied:

       1A    -20.548762     2A    -11.322666     3A    -11.234058
       4A    -11.232104     5A    -11.227968     6A    -11.213274
       7A     -1.394307     8A     -1.071458     9A     -1.036515
      10A     -0.911846    11A     -0.855864    12A     -0.726603
      13A     -0.663979    14A     -0.642510    15A     -0.624277
      16A     -0.601979    17A     -0.565650    18A     -0.539285
      19A     -0.531950    20A     -0.511013    21A     -0.503121
      22A     -0.498363    23A     -0.477695    24A     -0.396249

  @DF-RHF Final Energy:  -270.03130078749473

   => Energetics <=

    Nuclear Repulsion Energy =            240.5857152360118789
    One-Electron Energy =                -842.5710374484881413
    Two-Electron Energy =                 331.9540214249813062
    DFT Exchange-Correlation Energy =       0.0000000000000000
    Empirical Dispersion Energy =           0.0000000000000000
    PCM Polarization Energy =               0.0000000000000000
    EFP Energy =                            0.0000000000000000
    Total Energy =                       -270.0313007874949562
    Molecular point group: c1
  Basis Set: 6-31G*
  Basis Set:

  -Total Gradient:
     Atom            X                  Y                   Z
    ------   -----------------  -----------------  -----------------
       1       -0.000002321447     0.000001188081    -0.000000541010
       2       -0.000006062376    -0.000007852632    -0.000002789100
       3        0.000155082627     0.000280507036    -0.000001862554
       4        0.000000962854    -0.000001308670     0.000001824164
       5       -0.000000490746    -0.000001762032     0.000000190534
       6       -0.000302568176    -0.000521831633     0.000059696704
       7        0.000000188754     0.000022189252     0.000004186862
       8        0.000020450093     0.000003938338    -0.000013258334
       9        0.000302680429     0.000535960526    -0.000290603776
      10        0.000020285481     0.000024412811     0.000010349560
      11        0.000006137273     0.000003692215    -0.000005694415
      12       -0.000191090553    -0.000330627994     0.000238322310
      13        0.000001132336    -0.000002512594     0.000002644020
      14        0.000002601775    -0.000000368892    -0.000003331667
      15       -0.000000940556    -0.000000326340     0.000002871676
      16       -0.000006047768    -0.000005297473    -0.000002004973

  **** Optimization is complete! (in 7 steps) ****
    Final optimized geometry and variables:
    Molecular point group: c1

    Geometry (in Angstrom), charge = 0, multiplicity = 1:

    H           -2.754787629724     0.548351618793    -0.391317108616
    C           -1.980322324942     0.994469717513    -1.002611173594
    C           -0.762668458260     0.082887626200    -1.089312701069
    H           -1.721016351749     1.947731729216    -0.557332323579
    H           -2.386694164680     1.178873788023    -1.991624280574
    C           -0.143974256651    -0.238947908228     0.258362324367
    H            0.006914835875     0.518132618004    -1.723811962706
    H           -1.022775103856    -0.864408245129    -1.559539396933
    C            1.170538046564    -1.000599794753     0.253343370466
    O           -0.646252944355     0.106343074864     1.284638088735
    C            2.364142849651    -0.035743226308     0.275327559822
    H            1.231071167464    -1.647398433060    -0.616886402577
    H            1.190469312826    -1.623850610900     1.139436635488
    H            2.382286171787     0.600976264985    -0.603835790761
    H            3.296483202630    -0.588809182401     0.301235331301
    H            2.322310023138     0.599419977324     1.152645655221

  Mulliken Charges: (a.u.)
   Center  Symbol    Alpha    Beta     Spin     Total
       1     H     0.40870  0.40870  0.00000  0.18260
       2     C     3.23517  3.23517  0.00000 -0.47034
       3     C     3.20925  3.20925  0.00000 -0.41850
       4     H     0.41219  0.41219  0.00000  0.17561
       5     H     0.42012  0.42012  0.00000  0.15977
       6     C     2.73609  2.73609  0.00000  0.52781
       7     H     0.40981  0.40981  0.00000  0.18037
       8     H     0.40753  0.40753  0.00000  0.18494
       9     C     3.19721  3.19721  0.00000 -0.39443
      10     O     4.26437  4.26437  0.00000 -0.52875
      11     C     3.24862  3.24862  0.00000 -0.49724
      12     H     0.41556  0.41556  0.00000  0.16889
      13     H     0.40004  0.40004  0.00000  0.19993
      14     H     0.41821  0.41821  0.00000  0.16358
      15     H     0.41160  0.41160  0.00000  0.17680
      16     H     0.40552  0.40552  0.00000  0.18895

   Total alpha = 24.00000, Total beta = 24.00000, Total charge =  0.00000
