  ==> Input File <==

--------------------------------------------------------------------------
set {
	reference rhf
	basis cc-pvtz
}

set_num_threads( 4 )
memory 2 gb

molecule MOL {
0 1

H	 -0.939693	 0.000281	 1.681345
O	 -0.046262	 -0.000157	 1.387678
C	 -0.000837	 0.000006	 -0.025491
C	 -1.401269	 -0.249109	 -0.582159
C	 0.548069	 1.337164	 -0.519309
C	 0.937955	 -1.138862	 -0.399440
H	 -1.392058	 -0.290446	 -1.665210
H	 -2.079780	 0.545575	 -0.286912
H	 -1.793998	 -1.184944	 -0.204747
H	 0.628694	 1.353866	 -1.600053
H	 -0.103635	 2.153689	 -0.223266
H	 1.528669	 1.518927	 -0.097584
H	 1.038338	 -1.219532	 -1.475406
H	 0.558854	 -2.077926	 -0.016488
H	 1.918744	 -0.971358	 0.027422

	symmetry c1
}
set optking {
	frozen_dihedral = ("
		4 3 2 1
	")
}

ee = optimize('scf')
oeprop('DIPOLE', 'QUADRUPOLE', 'MULLIKEN_CHARGES')
f=open( 'psi4out.xyz', 'w' )
f.write( "15  " )
f.write( str(ee) + "\n" )
f.write( MOL.save_string_xyz() )
f.close()
--------------------------------------------------------------------------

    Molecular point group: c1
  Charge       = 0
  Multiplicity = 1
  Basis Set: CC-PVTZ
  Basis Set:
  @DF-RHF Final Energy:  -232.24443833676631
    Total Energy =                       -232.2444383367663931
    Molecular point group: c1
  Basis Set: CC-PVTZ
  Basis Set:
  Basis Set: CC-PVTZ
  Basis Set:
  @DF-RHF Final Energy:  -232.24474161423319
    Total Energy =                       -232.2447416142333623
  Basis Set: CC-PVTZ
  Basis Set:
  Basis Set: CC-PVTZ
  Basis Set:
  @DF-RHF Final Energy:  -232.24485869429117
    Total Energy =                       -232.2448586942911106
  Basis Set: CC-PVTZ
  Basis Set:
  Charge       = 0
  Multiplicity = 1
  Basis Set: CC-PVTZ
  Basis Set:

    Orbital Energies (a.u.)
    -----------------------

    Doubly Occupied:

       1A    -20.540323     2A    -11.281125     3A    -11.216116
       4A    -11.203563     5A    -11.203400     6A     -1.362872
       7A     -1.065758     8A     -0.946278     9A     -0.936693
      10A     -0.778624    11A     -0.671878    12A     -0.624608
      13A     -0.622787    14A     -0.576543    15A     -0.557388
      16A     -0.534724    17A     -0.517049    18A     -0.511332
      19A     -0.503211    20A     -0.458359    21A     -0.426549

  @DF-RHF Final Energy:  -232.24485877719204

   => Energetics <=

    Nuclear Repulsion Energy =            200.5801455622637093
    One-Electron Energy =                -712.5716501504309690
    Two-Electron Energy =                 279.7466458109751670
    DFT Exchange-Correlation Energy =       0.0000000000000000
    Empirical Dispersion Energy =           0.0000000000000000
    PCM Polarization Energy =               0.0000000000000000
    EFP Energy =                            0.0000000000000000
    Total Energy =                       -232.2448587771920643
    Molecular point group: c1
  Basis Set: CC-PVTZ
  Basis Set:

  -Total Gradient:
     Atom            X                  Y                   Z
    ------   -----------------  -----------------  -----------------
       1        0.000013442933    -0.000924335093     0.000054731648
       2       -0.000191425741     0.001429543294    -0.000087530368
       3        0.000276652644    -0.001029863907     0.000075415807
       4       -0.000101984913     0.000682038989     0.000010161483
       5       -0.000101294761    -0.000020404845    -0.000003327641
       6        0.000025777112    -0.000062453176    -0.000074660929
       7        0.000031636638     0.000007504882     0.000014777006
       8       -0.000021503187    -0.000015877120     0.000026014106
       9        0.000054755311    -0.000032578222    -0.000029864284
      10       -0.000028086965     0.000028160383    -0.000035565487
      11        0.000044152053     0.000034147012     0.000026928998
      12       -0.000013386750    -0.000071933948    -0.000011877751
      13       -0.000008300992    -0.000017393548     0.000015843874
      14        0.000024168766    -0.000029061059     0.000011480651
      15       -0.000004602148     0.000022506358     0.000007472886

  **** Optimization is complete! (in 4 steps) ****
    Final optimized geometry and variables:
    Molecular point group: c1

    Geometry (in Angstrom), charge = 0, multiplicity = 1:

    H           -0.922356683737     0.060488854322     1.700929644750
    O           -0.036788855167     0.039617872877     1.391654020767
    C            0.003062223000    -0.000706165285    -0.024956895899
    C           -1.397045412924    -0.246114963030    -0.579627958530
    C            0.546621834404     1.338437689735    -0.516476810891
    C            0.944807053358    -1.136383911648    -0.409898595815
    H           -1.384890773600    -0.284572324691    -1.661737829551
    H           -2.072696936909     0.550390590291    -0.283640369129
    H           -1.793865772899    -1.187361620874    -0.214683765941
    H            0.639291392804     1.354065788219    -1.596816054925
    H           -0.110088917959     2.146945784060    -0.217103009419
    H            1.522460454720     1.522819029374    -0.085153898379
    H            1.068036713142    -1.195810777015    -1.485375057950
    H            0.560109783161    -2.083939142089    -0.052875515985
    H            1.917597339671    -0.978753404354     0.038778199403

  Mulliken Charges: (a.u.)
   Center  Symbol    Alpha    Beta     Spin     Total
       1     H     0.39195  0.39195  0.00000  0.21609
       2     O     4.21522  4.21522  0.00000 -0.43045
       3     C     2.88033  2.88033  0.00000  0.23934
       4     C     3.16272  3.16272  0.00000 -0.32543
       5     C     3.14036  3.14036  0.00000 -0.28073
       6     C     3.13952  3.13952  0.00000 -0.27904
       7     H     0.45049  0.45049  0.00000  0.09901
       8     H     0.45058  0.45058  0.00000  0.09883
       9     H     0.44699  0.44699  0.00000  0.10601
      10     H     0.45934  0.45934  0.00000  0.08133
      11     H     0.45424  0.45424  0.00000  0.09153
      12     H     0.44828  0.44828  0.00000  0.10344
      13     H     0.45953  0.45953  0.00000  0.08094
      14     H     0.45280  0.45280  0.00000  0.09440
      15     H     0.44763  0.44763  0.00000  0.10473

   Total alpha = 21.00000, Total beta = 21.00000, Total charge =  0.00000
