  ==> Input File <==

--------------------------------------------------------------------------
set {
	reference rhf
	basis 6-31G*
}

set_num_threads( 4 )
memory 2 gb

molecule MOL {
0 1

O	 -2.227725	 1.543935	 -0.485294
C	 -2.062919	 0.392957	 -0.215996
C	 -0.870507	 -0.371638	 -0.763587
C	 -3.006445	 -0.350350	 0.703041
C	 0.402200	 -0.047630	 0.035398
H	 -0.734712	 -0.072734	 -1.797279
H	 -1.059848	 -1.441097	 -0.742731
C	 1.631333	 -0.777471	 -0.511575
H	 0.552996	 1.025694	 0.010472
H	 0.258706	 -0.320779	 1.079690
C	 2.915987	 -0.544314	 0.291766
H	 1.794820	 -0.478128	 -1.545205
H	 1.424613	 -1.845498	 -0.532411
C	 3.373361	 0.914346	 0.347591
H	 3.708709	 -1.142521	 -0.150311
H	 2.780642	 -0.921148	 1.303579
H	 3.506512	 1.320010	 -0.651625
H	 4.322697	 0.999599	 0.867103
H	 2.660624	 1.545032	 0.868198
H	 -3.526657	 -1.123991	 0.144363
H	 -3.728530	 0.334680	 1.125075
H	 -2.457549	 -0.844841	 1.499280

	symmetry c1
}
set optking {
	frozen_dihedral = ("
		12 8 11 15
	")
}

ee = optimize('scf')
oeprop('DIPOLE', 'QUADRUPOLE', 'MULLIKEN_CHARGES')
f=open( 'psi4out.xyz', 'w' )
f.write( "22  " )
f.write( str(ee) + "\n" )
f.write( MOL.save_string_xyz() )
f.close()
--------------------------------------------------------------------------

    Molecular point group: c1
  Charge       = 0
  Multiplicity = 1
  Basis Set: 6-31G*
  Basis Set:
  @DF-RHF Final Energy:  -348.09823911036045
    Total Energy =                       -348.0982391103605096
    Molecular point group: c1
  Basis Set: 6-31G*
  Basis Set:
  Basis Set: 6-31G*
  Basis Set:
  @DF-RHF Final Energy:  -348.09802133568195
    Total Energy =                       -348.0980213356822333
  Basis Set: 6-31G*
  Basis Set:
  Basis Set: 6-31G*
  Basis Set:
  @DF-RHF Final Energy:  -348.09805718585335
    Total Energy =                       -348.0980571858535768
  Basis Set: 6-31G*
  Basis Set:
  Basis Set: 6-31G*
  Basis Set:
  @DF-RHF Final Energy:  -348.09825283560752
    Total Energy =                       -348.0982528356077523
  Basis Set: 6-31G*
  Basis Set:
  Basis Set: 6-31G*
  Basis Set:
  @DF-RHF Final Energy:  -348.09796612526861
    Total Energy =                       -348.0979661252686128
  Basis Set: 6-31G*
  Basis Set:
  Basis Set: 6-31G*
  Basis Set:
  @DF-RHF Final Energy:  -348.09825389128270
    Total Energy =                       -348.0982538912825248
  Basis Set: 6-31G*
  Basis Set:
  Basis Set: 6-31G*
  Basis Set:
  @DF-RHF Final Energy:  -348.09826488048628
    Total Energy =                       -348.0982648804863402
  Basis Set: 6-31G*
  Basis Set:
  Charge       = 0
  Multiplicity = 1
  Basis Set: 6-31G*
  Basis Set:

    Orbital Energies (a.u.)
    -----------------------

    Doubly Occupied:

       1A    -20.547372     2A    -11.324505     3A    -11.229603
       4A    -11.229023     5A    -11.228233     6A    -11.222412
       7A    -11.220707     8A    -11.211015     9A     -1.393128
      10A     -1.095658    11A     -1.044216    12A     -0.999434
      13A     -0.937627    14A     -0.858427    15A     -0.785492
      16A     -0.732988    17A     -0.662928    18A     -0.643707
      19A     -0.626552    20A     -0.620224    21A     -0.596373
      22A     -0.583631    23A     -0.562665    24A     -0.540445
      25A     -0.534657    26A     -0.520583    27A     -0.497360
      28A     -0.488109    29A     -0.470044    30A     -0.464366
      31A     -0.459889    32A     -0.396241

  @DF-RHF Final Energy:  -348.09826416256510

   => Energetics <=

    Nuclear Repulsion Energy =            373.1302773012241687
    One-Electron Energy =               -1211.0018573417207790
    Two-Electron Energy =                 489.7733158779316227
    DFT Exchange-Correlation Energy =       0.0000000000000000
    Empirical Dispersion Energy =           0.0000000000000000
    PCM Polarization Energy =               0.0000000000000000
    EFP Energy =                            0.0000000000000000
    Total Energy =                       -348.0982641625649876
    Molecular point group: c1
  Basis Set: 6-31G*
  Basis Set:

  -Total Gradient:
     Atom            X                  Y                   Z
    ------   -----------------  -----------------  -----------------
       1       -0.000079101535    -0.000002908825    -0.000111974159
       2        0.000227217326     0.000089633930     0.000319493187
       3       -0.000073156291     0.000004792278    -0.000112370496
       4       -0.000076030537    -0.000034551317    -0.000103902434
       5       -0.000078018359    -0.000028708772     0.000089402207
       6       -0.000000649773    -0.000005894123    -0.000018156671
       7        0.000028082460     0.000000920758    -0.000007598014
       8       -0.000212564087     0.001150851308    -0.000006360813
       9       -0.000054095173    -0.000065119579    -0.000020828389
      10       -0.000023819252     0.000029932291     0.000024652216
      11       -0.000216723474    -0.000933025657     0.000635905707
      12        0.000262236035    -0.000842541328    -0.000224611809
      13        0.000010691874     0.000042148305     0.000021929678
      14        0.000016067726    -0.000032683823    -0.000016359621
      15        0.000250798152     0.000682789121    -0.000480042847
      16       -0.000022874138    -0.000015172343     0.000013237618
      17       -0.000042030886     0.000002795461     0.000000320661
      18        0.000021424173    -0.000007490284    -0.000033508045
      19        0.000067567718    -0.000028305702     0.000029798270
      20       -0.000020651771    -0.000021326180     0.000020086047
      21        0.000001455370    -0.000000303480    -0.000003380202
      22        0.000014174439     0.000014167959    -0.000015732091

  **** Optimization is complete! (in 8 steps) ****
    Final optimized geometry and variables:
    Molecular point group: c1

    Geometry (in Angstrom), charge = 0, multiplicity = 1:

    O           -2.262041361661     1.428448017423    -0.430168794390
    C           -2.088747669829     0.281347947723    -0.150059164344
    C           -0.893425786984    -0.481199139189    -0.694316953893
    C           -3.029807164298    -0.461979063579     0.771695157170
    C            0.378610429093    -0.146596924253     0.101176044987
    H           -0.760238160637    -0.188003681413    -1.730030702391
    H           -1.078031778559    -1.551316168561    -0.666772741783
    C            1.610368090518    -0.872597916085    -0.444419633301
    H            0.523707942653     0.927205973279     0.070093872744
    H            0.238103875600    -0.414527279778     1.147360491515
    C            2.893405774338    -0.650850387041     0.364680818685
    H            1.779876654679    -0.572135945417    -1.476817064719
    H            1.403334236444    -1.940602731810    -0.472580545608
    C            3.368039176522     0.802662917335     0.419267122635
    H            3.681822287237    -1.254744965758    -0.077390342229
    H            2.751561737884    -1.024287811795     1.376697495857
    H            3.484983002352     1.213035468374    -0.580093194475
    H            4.329020225159     0.873552696307     0.919136852074
    H            2.673984976836     1.438277482504     0.958607956619
    H           -3.544319223895    -1.242138126947     0.216853907944
    H           -3.756714044703     0.221452789980     1.187951273899
    H           -2.479609324098    -0.948202301166     1.572082193935

  Mulliken Charges: (a.u.)
   Center  Symbol    Alpha    Beta     Spin     Total
       1     O     4.26242  4.26242  0.00000 -0.52484
       2     C     2.73718  2.73718  0.00000  0.52564
       3     C     3.19961  3.19961  0.00000 -0.39922
       4     C     3.28950  3.28950  0.00000 -0.57900
       5     C     3.16430  3.16430  0.00000 -0.32859
       6     H     0.40114  0.40114  0.00000  0.19773
       7     H     0.41695  0.41695  0.00000  0.16610
       8     C     3.15259  3.15259  0.00000 -0.30518
       9     H     0.40333  0.40333  0.00000  0.19335
      10     H     0.42143  0.42143  0.00000  0.15714
      11     C     3.15289  3.15289  0.00000 -0.30579
      12     H     0.42050  0.42050  0.00000  0.15900
      13     H     0.42213  0.42213  0.00000  0.15574
      14     C     3.24247  3.24247  0.00000 -0.48495
      15     H     0.41962  0.41962  0.00000  0.16077
      16     H     0.42291  0.42291  0.00000  0.15419
      17     H     0.42069  0.42069  0.00000  0.15861
      18     H     0.41827  0.41827  0.00000  0.16346
      19     H     0.41836  0.41836  0.00000  0.16327
      20     H     0.40683  0.40683  0.00000  0.18634
      21     H     0.39710  0.39710  0.00000  0.20580
      22     H     0.40978  0.40978  0.00000  0.18043

   Total alpha = 32.00000, Total beta = 32.00000, Total charge =  0.00000
