  ==> Input File <==

--------------------------------------------------------------------------
set {
	reference rhf
	basis 6-31G*
}

set_num_threads( 4 )
memory 2 gb

molecule MOL {
0 1

H	 -3.892951	 0.981613	 -0.358725
C	 -3.196921	 0.361773	 0.172313
C	 -2.076860	 -0.007332	 -0.404944
H	 -3.439953	 0.057760	 1.173024
O	 -1.180634	 -0.819263	 0.215062
H	 -1.811520	 0.292194	 -1.403480
C	 0.051604	 -1.018856	 -0.387932
C	 1.043764	 0.054862	 -0.001873
H	 -0.017620	 -1.041351	 -1.469781
H	 0.437898	 -1.966374	 -0.042284
F	 2.160096	 -0.105830	 -0.697422
F	 0.580679	 1.266746	 -0.260174
F	 1.352163	 0.006877	 1.277571

	symmetry c1
}
set optking {
	frozen_dihedral = ("
		11 8 7 9
	")
}

ee = optimize('scf')
oeprop('DIPOLE', 'QUADRUPOLE', 'MULLIKEN_CHARGES')
f=open( 'psi4out.xyz', 'w' )
f.write( "13  " )
f.write( str(ee) + "\n" )
f.write( MOL.save_string_xyz() )
f.close()
--------------------------------------------------------------------------

    Molecular point group: c1
  Charge       = 0
  Multiplicity = 1
  Basis Set: 6-31G*
  Basis Set:
  @DF-RHF Final Energy:  -527.53562906906370
    Total Energy =                       -527.5356290690638161
    Molecular point group: c1
  Basis Set: 6-31G*
  Basis Set:
  Basis Set: 6-31G*
  Basis Set:
  @DF-RHF Final Energy:  -527.53565300597870
    Total Energy =                       -527.5356530059783609
  Basis Set: 6-31G*
  Basis Set:
  Basis Set: 6-31G*
  Basis Set:
  @DF-RHF Final Energy:  -527.53565956012358
    Total Energy =                       -527.5356595601236904
  Basis Set: 6-31G*
  Basis Set:
  Basis Set: 6-31G*
  Basis Set:
  @DF-RHF Final Energy:  -527.53566129924707
    Total Energy =                       -527.5356612992466125
  Basis Set: 6-31G*
  Basis Set:
  Basis Set: 6-31G*
  Basis Set:
  @DF-RHF Final Energy:  -527.53566233725064
    Total Energy =                       -527.5356623372508693
  Basis Set: 6-31G*
  Basis Set:
  Charge       = 0
  Multiplicity = 1
  Basis Set: 6-31G*
  Basis Set:

    Orbital Energies (a.u.)
    -----------------------

    Doubly Occupied:

       1A    -26.344684     2A    -26.343288     3A    -26.341227
       4A    -20.608719     5A    -11.503315     6A    -11.318932
       7A    -11.299556     8A    -11.215605     9A     -1.741866
      10A     -1.639770    11A     -1.638542    12A     -1.438603
      13A     -1.084345    14A     -1.016420    15A     -0.925465
      16A     -0.837068    17A     -0.830788    18A     -0.821466
      19A     -0.791309    20A     -0.722978    21A     -0.711827
      22A     -0.696535    23A     -0.675680    24A     -0.660375
      25A     -0.654713    26A     -0.643288    27A     -0.633525
      28A     -0.584638    29A     -0.562862    30A     -0.524487
      31A     -0.514130    32A     -0.351308

  @DF-RHF Final Energy:  -527.53566287636704

   => Energetics <=

    Nuclear Repulsion Energy =            413.2499454564505186
    One-Electron Energy =               -1550.2165820140535288
    Two-Electron Energy =                 609.4309736812364235
    DFT Exchange-Correlation Energy =       0.0000000000000000
    Empirical Dispersion Energy =           0.0000000000000000
    PCM Polarization Energy =               0.0000000000000000
    EFP Energy =                            0.0000000000000000
    Total Energy =                       -527.5356628763667004
    Molecular point group: c1
  Basis Set: 6-31G*
  Basis Set:

  -Total Gradient:
     Atom            X                  Y                   Z
    ------   -----------------  -----------------  -----------------
       1       -0.000009667570    -0.000013426291    -0.000006782805
       2        0.000020517706    -0.000001469655     0.000008481136
       3       -0.000078277553     0.000070158041     0.000029210412
       4        0.000003672558     0.000004157516    -0.000004618230
       5        0.000078431962    -0.000072793631    -0.000060172987
       6        0.000010613428    -0.000026369019    -0.000012281499
       7       -0.002007649885     0.001911277755    -0.000195006705
       8        0.001035456598    -0.001533955008     0.001464728833
       9        0.001456666200    -0.001319468406    -0.000069877098
      10        0.000015229853     0.000000939794     0.000010178094
      11       -0.000555337646     0.000929726197    -0.001146916813
      12        0.000017100358     0.000067262465     0.000003900470
      13        0.000013243985    -0.000016039761    -0.000020842807

  **** Optimization is complete! (in 6 steps) ****
    Final optimized geometry and variables:
    Molecular point group: c1

    Geometry (in Angstrom), charge = 0, multiplicity = 1:

    H           -3.914070313277     0.968072459183    -0.357555067214
    C           -3.217036044137     0.349175322520     0.173258959517
    C           -2.084661371678     0.003781835815    -0.394421279236
    H           -3.468673211153     0.027665393567     1.166425531221
    O           -1.184211033685    -0.802192906770     0.227443826661
    H           -1.810451140327     0.320820485334    -1.384953645682
    C            0.041643828539    -1.011687015553    -0.382681591011
    C            1.049156314623     0.051261426692    -0.004119091452
    H           -0.025685908008    -1.044379756886    -1.464329317363
    H            0.422937376356    -1.961606755559    -0.036813996553
    F            2.164830546960    -0.132957880239    -0.695052996207
    F            0.606119355411     1.266513806259    -0.279535832544
    F            1.352391015156     0.015134096252     1.277303337424

  Mulliken Charges: (a.u.)
   Center  Symbol    Alpha    Beta     Spin     Total
       1     H     0.40710  0.40710  0.00000  0.18581
       2     C     3.23629  3.23629  0.00000 -0.47258
       3     C     2.89399  2.89399  0.00000  0.21202
       4     H     0.40193  0.40193  0.00000  0.19614
       5     O     4.30160  4.30160  0.00000 -0.60321
       6     H     0.40681  0.40681  0.00000  0.18639
       7     C     3.06546  3.06546  0.00000 -0.13092
       8     C     2.45470  2.45470  0.00000  1.09060
       9     H     0.40521  0.40521  0.00000  0.18959
      10     H     0.38980  0.38980  0.00000  0.22040
      11     F     4.68299  4.68299  0.00000 -0.36599
      12     F     4.67931  4.67931  0.00000 -0.35861
      13     F     4.67482  4.67482  0.00000 -0.34964

   Total alpha = 32.00000, Total beta = 32.00000, Total charge = -0.00000
