  ==> Input File <==

--------------------------------------------------------------------------
set {
	reference rhf
	basis 6-31G*
}

set_num_threads( 4 )
memory 2 gb

molecule MOL {
0 1

H	 -2.675559	 -0.745389	 1.813095
O	 -1.836999	 -0.453041	 1.485796
C	 -2.026376	 0.340750	 0.341611
C	 -0.673256	 0.843270	 -0.132153
H	 -2.499507	 -0.239632	 -0.448478
H	 -2.678738	 1.184012	 0.565187
C	 0.486613	 -0.083066	 0.235839
H	 -0.715586	 0.970948	 -1.210718
H	 -0.508072	 1.829858	 0.297090
C	 1.840406	 0.433480	 -0.254303
H	 0.300215	 -1.068318	 -0.178947
H	 0.519509	 -0.203625	 1.318070
C	 3.000220	 -0.489290	 0.118523
H	 1.809207	 0.553576	 -1.335192
H	 2.021860	 1.424500	 0.157276
H	 2.864959	 -1.479103	 -0.307933
H	 3.946603	 -0.099227	 -0.243630
H	 3.080049	 -0.602997	 1.196117

	symmetry c1
}
set optking {
	frozen_dihedral = ("
		2 3 4 8
	")
}

ee = optimize('scf')
oeprop('DIPOLE', 'QUADRUPOLE', 'MULLIKEN_CHARGES')
f=open( 'psi4out.xyz', 'w' )
f.write( "18  " )
f.write( str(ee) + "\n" )
f.write( MOL.save_string_xyz() )
f.close()
--------------------------------------------------------------------------

    Molecular point group: c1
  Charge       = 0
  Multiplicity = 1
  Basis Set: 6-31G*
  Basis Set:
  @DF-RHF Final Energy:  -271.17405221960041
    Total Energy =                       -271.1740522196002985
    Molecular point group: c1
  Basis Set: 6-31G*
  Basis Set:
  Basis Set: 6-31G*
  Basis Set:
  @DF-RHF Final Energy:  -271.17460593554392
    Total Energy =                       -271.1746059355438092
  Basis Set: 6-31G*
  Basis Set:
  Basis Set: 6-31G*
  Basis Set:
  @DF-RHF Final Energy:  -271.17507259641235
    Total Energy =                       -271.1750725964122921
  Basis Set: 6-31G*
  Basis Set:
  Basis Set: 6-31G*
  Basis Set:
  @DF-RHF Final Energy:  -271.17508095532480
    Total Energy =                       -271.1750809553249155
  Basis Set: 6-31G*
  Basis Set:
  Basis Set: 6-31G*
  Basis Set:
  @DF-RHF Final Energy:  -271.17508308233357
    Total Energy =                       -271.1750830823334013
  Basis Set: 6-31G*
  Basis Set:
  Basis Set: 6-31G*
  Basis Set:
  @DF-RHF Final Energy:  -271.17508603096564
    Total Energy =                       -271.1750860309657014
  Basis Set: 6-31G*
  Basis Set:
  Charge       = 0
  Multiplicity = 1
  Basis Set: 6-31G*
  Basis Set:

    Orbital Energies (a.u.)
    -----------------------

    Doubly Occupied:

       1A    -20.552870     2A    -11.268837     3A    -11.212869
       4A    -11.208891     5A    -11.203283     6A    -11.202904
       7A     -1.359855     8A     -1.071989     9A     -1.005794
      10A     -0.912436    11A     -0.817098    12A     -0.781086
      13A     -0.698484    14A     -0.654123    15A     -0.617396
      16A     -0.580247    17A     -0.571242    18A     -0.554079
      19A     -0.517721    20A     -0.499998    21A     -0.491891
      22A     -0.463174    23A     -0.456761    24A     -0.442362
      25A     -0.427872

  @DF-RHF Final Energy:  -271.17508601846754

   => Energetics <=

    Nuclear Repulsion Energy =            249.8947293618339813
    One-Electron Energy =                -862.9931119119698906
    Two-Electron Energy =                 341.9232965316682566
    DFT Exchange-Correlation Energy =       0.0000000000000000
    Empirical Dispersion Energy =           0.0000000000000000
    PCM Polarization Energy =               0.0000000000000000
    EFP Energy =                            0.0000000000000000
    Total Energy =                       -271.1750860184677094
    Molecular point group: c1
  Basis Set: 6-31G*
  Basis Set:

  -Total Gradient:
     Atom            X                  Y                   Z
    ------   -----------------  -----------------  -----------------
       1        0.000006057124     0.000011986998    -0.000017568040
       2        0.000732050927    -0.004145507367    -0.002802454667
       3       -0.000524942103     0.004125593771     0.003598533123
       4       -0.002335447601     0.006013195886    -0.000140727754
       5        0.000002536022     0.000004319568    -0.000005577403
       6        0.000007321373     0.000012771774    -0.000026659646
       7        0.000004523511    -0.000010811107    -0.000000615592
       8        0.002108612343    -0.006029974943    -0.000603743461
       9        0.000003554440     0.000008436078    -0.000005874263
      10        0.000002053420     0.000013924531     0.000015091470
      11        0.000006565441    -0.000006984697     0.000007245155
      12       -0.000001262314     0.000005560206    -0.000008142471
      13       -0.000010972607    -0.000011644499    -0.000012932873
      14        0.000000866195     0.000006108111     0.000001193674
      15        0.000001744902     0.000002967179     0.000005676135
      16        0.000000800069    -0.000005574431     0.000005391900
      17       -0.000004166463    -0.000001032818    -0.000006606120
      18        0.000000105323     0.000006665758    -0.000002229167

  **** Optimization is complete! (in 7 steps) ****
    Final optimized geometry and variables:
    Molecular point group: c1

    Geometry (in Angstrom), charge = 0, multiplicity = 1:

    H           -2.853888655090    -0.822099663657     1.430930809929
    O           -1.994854130784    -0.525900493013     1.166132916074
    C           -2.110835812793     0.252898224734     0.001996710869
    C           -0.736347764751     0.779685443297    -0.422301096801
    H           -2.521842100857    -0.358922249988    -0.799460921057
    H           -2.796247866069     1.082956065400     0.158227786631
    C            0.424114236955    -0.156958932423    -0.068290117935
    H           -0.744201036376     0.886128775462    -1.504493142440
    H           -0.555516401267     1.759292590207     0.010072416887
    C            1.764249511599     0.351349811775    -0.603419730485
    H            0.225388246607    -1.147109144610    -0.473115811245
    H            0.481429989451    -0.275908075388     1.007347434270
    C            2.931959610293    -0.569037905104    -0.249394971168
    H            1.708237078657     0.461112024302    -1.684840168202
    H            1.958175430236     1.346153602037    -0.206800401676
    H            2.784620750437    -1.564132954498    -0.659741976838
    H            3.869471969085    -0.185382879453    -0.640513305374
    H            3.038269330627    -0.669604513467     0.826941264066

  Mulliken Charges: (a.u.)
   Center  Symbol    Alpha    Beta     Spin     Total
       1     H     0.28048  0.28048  0.00000  0.43904
       2     O     4.37008  4.37008  0.00000 -0.74016
       3     C     2.99307  2.99307  0.00000  0.01386
       4     C     3.16940  3.16940  0.00000 -0.33880
       5     H     0.43201  0.43201  0.00000  0.13598
       6     H     0.42920  0.42920  0.00000  0.14160
       7     C     3.14644  3.14644  0.00000 -0.29289
       8     H     0.42243  0.42243  0.00000  0.15515
       9     H     0.41865  0.41865  0.00000  0.16269
      10     C     3.15268  3.15268  0.00000 -0.30536
      11     H     0.42353  0.42353  0.00000  0.15295
      12     H     0.40868  0.40868  0.00000  0.18265
      13     C     3.23846  3.23846  0.00000 -0.47692
      14     H     0.42598  0.42598  0.00000  0.14805
      15     H     0.42451  0.42451  0.00000  0.15099
      16     H     0.42226  0.42226  0.00000  0.15549
      17     H     0.42103  0.42103  0.00000  0.15793
      18     H     0.42111  0.42111  0.00000  0.15777

   Total alpha = 25.00000, Total beta = 25.00000, Total charge =  0.00000
