  ==> Input File <==

--------------------------------------------------------------------------
set {
	reference rhf
	basis 6-31G*
}

set_num_threads( 4 )
memory 2 gb

molecule MOL {
0 1

O	 3.225979	 0.970355	 -0.599647
C	 2.701189	 0.057885	 -0.047330
C	 1.245376	 -0.013843	 0.345420
O	 3.347903	 -1.046386	 0.304773
C	 0.541947	 -1.261570	 -0.184188
H	 1.204356	 0.047731	 1.427878
H	 0.766817	 0.890542	 -0.021683
C	 -0.960308	 -1.297631	 0.116518
H	 1.020746	 -2.145069	 0.227273
H	 0.690698	 -1.313039	 -1.257336
C	 -1.318726	 -1.417574	 1.600520
H	 -1.389754	 -2.144261	 -0.414064
H	 -1.434622	 -0.409664	 -0.298874
C	 -2.823210	 -1.560365	 1.839556
H	 -0.804088	 -2.278595	 2.024323
H	 -0.957841	 -0.547699	 2.144626
C	 -3.193566	 -1.675757	 3.319304
H	 -3.190193	 -2.437160	 1.308719
H	 -3.339406	 -0.704933	 1.406569
C	 -4.697401	 -1.821865	 3.549153
H	 -2.677807	 -2.529489	 3.753788
H	 -2.831386	 -0.798193	 3.850799
H	 -4.928177	 -1.901291	 4.607000
H	 -5.084408	 -2.710600	 3.058673
H	 -5.239121	 -0.966220	 3.155853
C	 4.728119	 -1.109107	 -0.004993
H	 4.882018	 -1.033965	 -1.071845
H	 5.068212	 -2.067527	 0.355250
H	 5.265056	 -0.311663	 0.488280

	symmetry c1
}
set optking {
	frozen_dihedral = ("
		6 3 2 1
	")
}

ee = optimize('scf')
oeprop('DIPOLE', 'QUADRUPOLE', 'MULLIKEN_CHARGES')
f=open( 'psi4out.xyz', 'w' )
f.write( "29  " )
f.write( str(ee) + "\n" )
f.write( MOL.save_string_xyz() )
f.close()
--------------------------------------------------------------------------

    Molecular point group: c1
  Charge       = 0
  Multiplicity = 1
  Basis Set: 6-31G*
  Basis Set:
  @DF-RHF Final Energy:  -501.04241736185327
    Total Energy =                       -501.0424173618544046
    Molecular point group: c1
  Basis Set: 6-31G*
  Basis Set:
  Basis Set: 6-31G*
  Basis Set:
  @DF-RHF Final Energy:  -501.04179917322347
    Total Energy =                       -501.0417991732235805
  Basis Set: 6-31G*
  Basis Set:
  Basis Set: 6-31G*
  Basis Set:
  @DF-RHF Final Energy:  -501.04258572959338
    Total Energy =                       -501.0425857295933838
  Basis Set: 6-31G*
  Basis Set:
  Basis Set: 6-31G*
  Basis Set:
  @DF-RHF Final Energy:  -501.04270415193844
    Total Energy =                       -501.0427041519379827
  Basis Set: 6-31G*
  Basis Set:
  Basis Set: 6-31G*
  Basis Set:
  @DF-RHF Final Energy:  -501.04265550500338
    Total Energy =                       -501.0426555050030402
  Basis Set: 6-31G*
  Basis Set:
  Basis Set: 6-31G*
  Basis Set:
  @DF-RHF Final Energy:  -501.04270801768939
    Total Energy =                       -501.0427080176897334
  Basis Set: 6-31G*
  Basis Set:
  Charge       = 0
  Multiplicity = 1
  Basis Set: 6-31G*
  Basis Set:

    Orbital Energies (a.u.)
    -----------------------

    Doubly Occupied:

       1A    -20.603990     2A    -20.543040     3A    -11.370736
       4A    -11.280711     5A    -11.233690     6A    -11.227194
       7A    -11.221002     8A    -11.217992     9A    -11.216978
      10A    -11.215949    11A    -11.209893    12A     -1.468569
      13A     -1.360852    14A     -1.100978    15A     -1.068715
      16A     -1.019566    17A     -0.974094    18A     -0.931583
      19A     -0.865261    20A     -0.800020    21A     -0.791422
      22A     -0.772838    23A     -0.696889    24A     -0.679912
      25A     -0.671573    26A     -0.652681    27A     -0.629178
      28A     -0.606634    29A     -0.589795    30A     -0.574552
      31A     -0.572802    32A     -0.548071    33A     -0.539090
      34A     -0.533106    35A     -0.518742    36A     -0.515240
      37A     -0.501016    38A     -0.479813    39A     -0.473041
      40A     -0.464325    41A     -0.461873    42A     -0.454331
      43A     -0.446535    44A     -0.426572

  @DF-RHF Final Energy:  -501.04270776540329

   => Energetics <=

    Nuclear Repulsion Energy =            613.0461252043044169
    One-Electron Energy =               -1897.1159723065188700
    Two-Electron Energy =                 783.0271393368112740
    DFT Exchange-Correlation Energy =       0.0000000000000000
    Empirical Dispersion Energy =           0.0000000000000000
    PCM Polarization Energy =               0.0000000000000000
    EFP Energy =                            0.0000000000000000
    Total Energy =                       -501.0427077654031791
    Molecular point group: c1
  Basis Set: 6-31G*
  Basis Set:

  -Total Gradient:
     Atom            X                  Y                   Z
    ------   -----------------  -----------------  -----------------
       1        0.000175733180     0.000187497745     0.000587691784
       2       -0.000261097213    -0.000168807102    -0.000841639153
       3        0.000128611787    -0.000617417385     0.000271429148
       4        0.000024757498     0.000029445034    -0.000018867000
       5        0.000002127600    -0.000041645545     0.000034730254
       6       -0.000038095850     0.000610684119    -0.000033437798
       7        0.000002218770    -0.000001824462     0.000013157177
       8       -0.000019498940    -0.000025237379    -0.000012099024
       9        0.000010140941    -0.000010377547    -0.000011667026
      10       -0.000014150213     0.000004436814     0.000023456403
      11        0.000006945452     0.000033268684     0.000000303105
      12       -0.000035094179     0.000003334688     0.000001666080
      13        0.000007602049     0.000007290478     0.000009675007
      14        0.000002308379    -0.000004794497    -0.000017615861
      15        0.000013382910     0.000020476485     0.000002627417
      16       -0.000024814197     0.000002838817    -0.000005130073
      17        0.000009663251    -0.000024495903    -0.000001335098
      18       -0.000009148866     0.000006793883    -0.000014473139
      19        0.000003555615     0.000006710991     0.000013437252
      20        0.000001301413    -0.000007926556    -0.000005696990
      21        0.000003843816    -0.000000174920     0.000008146454
      22       -0.000003019018     0.000000467025    -0.000007518465
      23        0.000002390232    -0.000000083750    -0.000000479596
      24       -0.000001787002     0.000000144302     0.000000760577
      25        0.000001295131     0.000000297879    -0.000000686086
      26       -0.000006555788    -0.000011245501     0.000007231964
      27        0.000001794293     0.000000089273    -0.000001359498
      28        0.000013370285    -0.000000448417    -0.000002546136
      29        0.000002218652     0.000000702747     0.000000238322

  **** Optimization is complete! (in 7 steps) ****
    Final optimized geometry and variables:
    Molecular point group: c1

    Geometry (in Angstrom), charge = 0, multiplicity = 1:

    O            2.911415599104     1.913361356396    -1.482990069854
    C            2.410241908761     0.968093739606    -0.964125107783
    C            0.961036454722     0.877039680640    -0.553480740848
    O            3.087195952210    -0.131452518651    -0.657040652387
    C            0.247207958129    -0.369504405838    -1.094126028751
    H            0.936201515624     0.890606931031     0.531844774602
    H            0.479501839362     1.781131302904    -0.904343551228
    C           -1.257523502741    -0.388214418753    -0.803979705319
    H            0.712521331088    -1.258559645762    -0.682421628997
    H            0.391837184604    -0.414065630514    -2.170755193896
    C           -1.624275255722    -0.497542020842     0.678573910760
    H           -1.691790219298    -1.233060214092    -1.333680367468
    H           -1.718163856827     0.502914774043    -1.226489309966
    C           -3.130912612495    -0.632523300869     0.908775147586
    H           -1.115643251196    -1.357748733172     1.111093018730
    H           -1.263250708132     0.374594030965     1.218570602212
    C           -3.510287313799    -0.740536902972     2.386778244758
    H           -3.498854311462    -1.509683474361     0.379162903149
    H           -3.640368658961     0.223648645499     0.469526506885
    C           -5.016042121591    -0.879638561844     2.608159915844
    H           -3.000533574086    -1.594577546431     2.827730129062
    H           -3.147729734707     0.137723807274     2.916744082360
    H           -5.253305224501    -0.953598047559     3.664938037774
    H           -5.403749351529    -1.768907743729     2.119186675062
    H           -5.551887397915    -0.023487149855     2.208072475137
    C            4.465245484356    -0.149316688759    -0.982305156990
    H            4.605832577457    -0.028231128438    -2.046674324214
    H            4.831378537614    -1.112839632385    -0.663575315227
    H            4.987943266193     0.640827918336    -0.462823365355

  Mulliken Charges: (a.u.)
   Center  Symbol    Alpha    Beta     Spin     Total
       1     O     4.28662  4.28662  0.00000 -0.57325
       2     C     2.61221  2.61221  0.00000  0.77558
       3     C     3.20172  3.20172  0.00000 -0.40343
       4     O     4.30245  4.30245  0.00000 -0.60490
       5     C     3.16256  3.16256  0.00000 -0.32513
       6     H     0.40170  0.40170  0.00000  0.19659
       7     H     0.39898  0.39898  0.00000  0.20203
       8     C     3.15534  3.15534  0.00000 -0.31068
       9     H     0.40820  0.40820  0.00000  0.18360
      10     H     0.41504  0.41504  0.00000  0.16992
      11     C     3.15540  3.15540  0.00000 -0.31081
      12     H     0.41850  0.41850  0.00000  0.16299
      13     H     0.42115  0.42115  0.00000  0.15771
      14     C     3.15056  3.15056  0.00000 -0.30111
      15     H     0.42250  0.42250  0.00000  0.15500
      16     H     0.42239  0.42239  0.00000  0.15521
      17     C     3.15159  3.15159  0.00000 -0.30317
      18     H     0.42353  0.42353  0.00000  0.15295
      19     H     0.42330  0.42330  0.00000  0.15341
      20     C     3.23943  3.23943  0.00000 -0.47886
      21     H     0.42290  0.42290  0.00000  0.15420
      22     H     0.42299  0.42299  0.00000  0.15402
      23     H     0.41902  0.41902  0.00000  0.16196
      24     H     0.42165  0.42165  0.00000  0.15670
      25     H     0.42152  0.42152  0.00000  0.15697
      26     C     3.09216  3.09216  0.00000 -0.18432
      27     H     0.40881  0.40881  0.00000  0.18238
      28     H     0.40893  0.40893  0.00000  0.18213
      29     H     0.40884  0.40884  0.00000  0.18232

   Total alpha = 44.00000, Total beta = 44.00000, Total charge = -0.00000
