  ==> Input File <==

--------------------------------------------------------------------------
set {
	reference rhf
	basis cc-pvtz
}

set_num_threads( 4 )
memory 2 gb

molecule MOL {
0 1

H	 -1.088256	 -1.364742	 0.152233
O	 -1.432053	 -0.565244	 -0.200812
C	 -0.727158	 0.534527	 0.310686
C	 0.680222	 0.664433	 -0.252229
H	 -1.306802	 1.408001	 0.044211
H	 -0.690821	 0.490158	 1.397609
C	 1.435357	 1.892419	 0.247638
H	 1.236396	 -0.233742	 -0.004874
H	 0.605483	 0.702645	 -1.335559
H	 1.582435	 1.859664	 1.321612
H	 2.416501	 1.956447	 -0.207126
H	 0.901347	 2.807080	 0.008505

	symmetry c1
}
set optking {
	frozen_dihedral = ("
		8 4 3 2
	")
}

ee = optimize('scf')
oeprop('DIPOLE', 'QUADRUPOLE', 'MULLIKEN_CHARGES')
f=open( 'psi4out.xyz', 'w' )
f.write( "12  " )
f.write( str(ee) + "\n" )
f.write( MOL.save_string_xyz() )
f.close()
--------------------------------------------------------------------------

    Molecular point group: c1
  Charge       = 0
  Multiplicity = 1
  Basis Set: CC-PVTZ
  Basis Set:
  @DF-RHF Final Energy:  -193.19092128533313
    Total Energy =                       -193.1909212853331042
    Molecular point group: c1
  Basis Set: CC-PVTZ
  Basis Set:
  Basis Set: CC-PVTZ
  Basis Set:
  @DF-RHF Final Energy:  -193.19114205799406
    Total Energy =                       -193.1911420579941705
  Basis Set: CC-PVTZ
  Basis Set:
  Basis Set: CC-PVTZ
  Basis Set:
  @DF-RHF Final Energy:  -193.19118389616938
    Total Energy =                       -193.1911838961694912
  Basis Set: CC-PVTZ
  Basis Set:
  Basis Set: CC-PVTZ
  Basis Set:
  @DF-RHF Final Energy:  -193.19118884560990
    Total Energy =                       -193.1911888456098154
  Basis Set: CC-PVTZ
  Basis Set:
  Charge       = 0
  Multiplicity = 1
  Basis Set: CC-PVTZ
  Basis Set:

    Orbital Energies (a.u.)
    -----------------------

    Doubly Occupied:

       1A    -20.546110     2A    -11.265647     3A    -11.217794
       4A    -11.214265     5A     -1.364365     6A     -1.054620
       7A     -0.919404     8A     -0.819934     9A     -0.696061
      10A     -0.636805    11A     -0.599937    12A     -0.587796
      13A     -0.546679    14A     -0.501707    15A     -0.499830
      16A     -0.469757    17A     -0.432874

  @DF-RHF Final Energy:  -193.19118905188191

   => Energetics <=

    Nuclear Repulsion Energy =            131.1877437430790110
    One-Electron Energy =                -522.0106946091027567
    Two-Electron Energy =                 197.6317618141419246
    DFT Exchange-Correlation Energy =       0.0000000000000000
    Empirical Dispersion Energy =           0.0000000000000000
    PCM Polarization Energy =               0.0000000000000000
    EFP Energy =                            0.0000000000000000
    Total Energy =                       -193.1911890518818211
    Molecular point group: c1
  Basis Set: CC-PVTZ
  Basis Set:

  -Total Gradient:
     Atom            X                  Y                   Z
    ------   -----------------  -----------------  -----------------
       1        0.000002926622     0.000007833620     0.000003264160
       2       -0.000009739693    -0.000024747468     0.000011739419
       3        0.000011581842     0.000009825457    -0.000008595973
       4        0.000026858620     0.000051800368     0.000056332638
       5        0.000006927488    -0.000022685493    -0.000022342564
       6       -0.000001549474     0.000015626542     0.000016337430
       7        0.000007822719    -0.000021546969     0.000011295426
       8       -0.000029342882    -0.000020270472    -0.000051885609
       9       -0.000001478487    -0.000002297381    -0.000017923329
      10        0.000001943883    -0.000001289301     0.000002799340
      11       -0.000011837072     0.000001381833     0.000012420122
      12       -0.000004113565     0.000006369264    -0.000013441060

  **** Optimization is complete! (in 5 steps) ****
    Final optimized geometry and variables:
    Molecular point group: c1

    Geometry (in Angstrom), charge = 0, multiplicity = 1:

    H           -0.964712573601    -1.947376515704     0.046382729191
    O           -1.393263930820    -1.149441335144    -0.204852108139
    C           -0.678589962373    -0.048227907362     0.285301410825
    C            0.719814977097     0.058238763876    -0.300734660343
    H           -1.258980253549     0.825848114643     0.018843198778
    H           -0.625521290805    -0.079631737229     1.371884852676
    C            1.473798573003     1.283578002014     0.204288276146
    H            1.278644381773    -0.841422050096    -0.052379806393
    H            0.640643082503     0.085941131987    -1.382208343463
    H            1.583016813197     1.263017627222     1.283508600099
    H            2.466413980931     1.334801579716    -0.226077005911
    H            0.953479197566     2.198749041591    -0.057467059408

  Mulliken Charges: (a.u.)
   Center  Symbol    Alpha    Beta     Spin     Total
       1     H     0.39489  0.39489  0.00000  0.21021
       2     O     4.20120  4.20120  0.00000 -0.40241
       3     C     2.96635  2.96635  0.00000  0.06730
       4     C     3.08754  3.08754  0.00000 -0.17509
       5     H     0.45561  0.45561  0.00000  0.08879
       6     H     0.47273  0.47273  0.00000  0.05455
       7     C     3.15310  3.15310  0.00000 -0.30620
       8     H     0.46292  0.46292  0.00000  0.07416
       9     H     0.44941  0.44941  0.00000  0.10117
      10     H     0.45582  0.45582  0.00000  0.08835
      11     H     0.44689  0.44689  0.00000  0.10621
      12     H     0.45353  0.45353  0.00000  0.09294

   Total alpha = 17.00000, Total beta = 17.00000, Total charge =  0.00000
