  ==> Input File <==

--------------------------------------------------------------------------
set {
	reference rhf
	basis 6-31G*
}

set_num_threads( 4 )
memory 2 gb

molecule MOL {
0 1

H	 3.297690	 -0.442402	 -0.018187
C	 2.238257	 -0.257992	 -0.014277
C	 1.665599	 0.453814	 1.032745
C	 1.453314	 -0.731257	 -1.052480
H	 2.281540	 0.817898	 1.834982
C	 0.305354	 0.692417	 1.040894
H	 1.899826	 -1.281459	 -1.860656
C	 0.088813	 -0.491225	 -1.043141
H	 -0.156588	 1.240320	 1.840621
C	 -0.488460	 0.219100	 0.000000
H	 -0.526622	 -0.856544	 -1.847336
C	 -1.949954	 0.470334	 0.000000
O	 -2.781584	 -0.381627	 0.000000
H	 -2.238022	 1.526388	 0.000000

	symmetry c1
}
set optking {
	frozen_dihedral = ("
		8 10 12 14
	")
}

ee = optimize('scf')
oeprop('DIPOLE', 'QUADRUPOLE', 'MULLIKEN_CHARGES')
f=open( 'psi4out.xyz', 'w' )
f.write( "14  " )
f.write( str(ee) + "\n" )
f.write( MOL.save_string_xyz() )
f.close()
--------------------------------------------------------------------------

    Molecular point group: c1
  Charge       = 0
  Multiplicity = 1
  Basis Set: 6-31G*
  Basis Set:
  @DF-RHF Final Energy:  -343.42225851457408
    Total Energy =                       -343.4222585145744233
    Molecular point group: c1
  Basis Set: 6-31G*
  Basis Set:
  Basis Set: 6-31G*
  Basis Set:
  @DF-RHF Final Energy:  -343.42076306133288
    Total Energy =                       -343.4207630613327638
  Basis Set: 6-31G*
  Basis Set:
  Basis Set: 6-31G*
  Basis Set:
  @DF-RHF Final Energy:  -343.42312950305666
    Total Energy =                       -343.4231295030562592
  Basis Set: 6-31G*
  Basis Set:
  Basis Set: 6-31G*
  Basis Set:
  @DF-RHF Final Energy:  -343.42329735409220
    Total Energy =                       -343.4232973540921989
  Basis Set: 6-31G*
  Basis Set:
  Basis Set: 6-31G*
  Basis Set:
  @DF-RHF Final Energy:  -343.42329979085167
    Total Energy =                       -343.4232997908517291
  Basis Set: 6-31G*
  Basis Set:
  Charge       = 0
  Multiplicity = 1
  Basis Set: 6-31G*
  Basis Set:

    Orbital Energies (a.u.)
    -----------------------

    Doubly Occupied:

       1A    -20.568853     2A    -11.334169     3A    -11.250487
       4A    -11.249320     5A    -11.247207     6A    -11.246199
       7A    -11.244343     8A    -11.243110     9A     -1.408244
      10A     -1.169905    11A     -1.045753    12A     -1.029922
      13A     -0.887665    14A     -0.841815    15A     -0.793208
      16A     -0.720807    17A     -0.677150    18A     -0.652057
      19A     -0.632627    20A     -0.616978    21A     -0.601473
      22A     -0.539044    23A     -0.527680    24A     -0.508362
      25A     -0.502620    26A     -0.422098    27A     -0.347530
      28A     -0.346562

  @DF-RHF Final Energy:  -343.42330043656614

   => Energetics <=

    Nuclear Repulsion Energy =            322.5462614286907410
    One-Electron Energy =               -1104.6287517720493270
    Two-Electron Energy =                 438.6591899067926761
    DFT Exchange-Correlation Energy =       0.0000000000000000
    Empirical Dispersion Energy =           0.0000000000000000
    PCM Polarization Energy =               0.0000000000000000
    EFP Energy =                            0.0000000000000000
    Total Energy =                       -343.4233004365659099
    Molecular point group: c1
  Basis Set: 6-31G*
  Basis Set:

  -Total Gradient:
     Atom            X                  Y                   Z
    ------   -----------------  -----------------  -----------------
       1        0.000003909483     0.000006631550     0.000004564138
       2       -0.000017126167    -0.000053375428    -0.000079892607
       3       -0.000079763729     0.000029346575     0.000039201452
       4        0.000118536308     0.000023870920     0.000054180619
       5        0.000009260244    -0.000005224223    -0.000009895957
       6        0.000100835996    -0.000014551643     0.000065387119
       7       -0.000003869787    -0.000000169814     0.000003424177
       8        0.001020443151     0.005256575824    -0.002725017809
       9       -0.000008214356    -0.000000226928    -0.000008010307
      10       -0.001612043874    -0.007514997473     0.001578654168
      11        0.000000169359     0.000000203221    -0.000000728806
      12        0.000276538037     0.001982304064     0.008471091656
      13       -0.000002396134     0.000030853030     0.000000754577
      14        0.000193721472     0.000258760324    -0.007393712422

  **** Optimization is complete! (in 6 steps) ****
    Final optimized geometry and variables:
    Molecular point group: c1

    Geometry (in Angstrom), charge = 0, multiplicity = 1:

    H            3.311869913431    -0.406934369896    -0.020667611891
    C            2.249981886056    -0.239172355318    -0.001480500425
    C            1.679769454616     0.465599103052     1.047472804340
    C            1.454594589288    -0.718766253897    -1.030057603676
    H            2.296935501216     0.843031843745     1.842641497313
    C            0.314892310534     0.695579253400     1.062366338356
    H            1.898481200351    -1.254049655416    -1.849887448488
    C            0.085891703750    -0.509727827996    -1.003646526015
    H           -0.124301604536     1.263207636144     1.864882335705
    C           -0.490209236296     0.182233632406     0.053313991403
    H           -0.538257308091    -0.888745936019    -1.792226167682
    C           -1.953322034071     0.483455931200     0.027281780239
    O           -2.798599284078    -0.338883931568    -0.122977433339
    H           -2.216769110118     1.544873878224     0.058459967330

  Mulliken Charges: (a.u.)
   Center  Symbol    Alpha    Beta     Spin     Total
       1     H     0.39529  0.39529  0.00000  0.20942
       2     C     3.09580  3.09580  0.00000 -0.19160
       3     C     3.10033  3.10033  0.00000 -0.20067
       4     C     3.10032  3.10032  0.00000 -0.20065
       5     H     0.39513  0.39513  0.00000  0.20974
       6     C     3.10427  3.10427  0.00000 -0.20854
       7     H     0.39470  0.39470  0.00000  0.21060
       8     C     3.09782  3.09782  0.00000 -0.19565
       9     H     0.39383  0.39383  0.00000  0.21233
      10     C     3.03734  3.03734  0.00000 -0.07469
      11     H     0.38516  0.38516  0.00000  0.22967
      12     C     2.84639  2.84639  0.00000  0.30721
      13     O     4.23127  4.23127  0.00000 -0.46253
      14     H     0.42232  0.42232  0.00000  0.15536

   Total alpha = 28.00000, Total beta = 28.00000, Total charge = -0.00000
