                              Psi4 1.0.54 Driver

  ==> Input File <==

--------------------------------------------------------------------------
set {
	reference rhf
	basis cc-pvtz
}

set_num_threads( 4 )
memory 2 gb

molecule MOL {
0 1

H	 2.474846	 2.372583	 -0.158667
O	 3.241169	 1.976308	 -0.529537
C	 3.532145	 0.771807	 0.129085
C	 2.564618	 -0.352866	 -0.208092
H	 4.530032	 0.496981	 -0.185036
H	 3.564541	 0.926340	 1.205895
C	 1.133827	 -0.113413	 0.268719
H	 2.571443	 -0.503574	 -1.283451
H	 2.945247	 -1.266965	 0.241290
C	 0.199232	 -1.277230	 -0.058237
H	 0.751957	 0.795073	 -0.184965
H	 1.135619	 0.050986	 1.344942
C	 -1.231121	 -1.123303	 0.462004
H	 0.175410	 -1.424104	 -1.135310
H	 0.620892	 -2.186564	 0.361029
C	 -2.041121	 -0.006551	 -0.194127
H	 -1.752678	 -2.064041	 0.308643
H	 -1.206176	 -0.964966	 1.537858
C	 -3.489218	 0.042606	 0.286507
H	 -2.027288	 -0.141220	 -1.273544
H	 -1.575682	 0.955367	 -0.001559
C	 -4.219984	 1.311773	 -0.139038
H	 -4.022855	 -0.824300	 -0.093339
H	 -3.510372	 -0.038577	 1.370031
H	 -4.244251	 1.405725	 -1.219696
H	 -5.244345	 1.313233	 0.215630
H	 -3.732090	 2.196311	 0.257073

	symmetry c1
}
set optking {
	frozen_dihedral = ("
		20 16 19 22
	")
}

ee,wfn = optimize('scf', return_wfn=True)
oeprop( wfn, 'DIPOLE', 'QUADRUPOLE', 'MULLIKEN_CHARGES')
f=open( 'psi4out.xyz', 'w' )
f.write( "27  " )
f.write( str(ee) + "\n" )
f.write( MOL.save_string_xyz() )
f.close()
--------------------------------------------------------------------------

    Molecular point group: c1
  Charge       = 0
  Multiplicity = 1
  Basis Set: CC-PVTZ
  Basis Set:
  @DF-RHF Final Energy:  -388.42727516125757
    Total Energy =                       -388.4272751612580805
    Molecular point group: c1
  Basis Set: CC-PVTZ
  Basis Set:
  Basis Set: CC-PVTZ
  Basis Set:
  @DF-RHF Final Energy:  -388.42724173327360
    Total Energy =                       -388.4272417332734904
  Basis Set: CC-PVTZ
  Basis Set:
  Basis Set: CC-PVTZ
  Basis Set:
  @DF-RHF Final Energy:  -388.42734295089747
    Total Energy =                       -388.4273429508974687
  Basis Set: CC-PVTZ
  Basis Set:
  Charge       = 0
  Multiplicity = 1
  Basis Set: CC-PVTZ
  Basis Set:

    Orbital Energies (a.u.)
    -----------------------

    Doubly Occupied:

       1A    -20.545324     2A    -11.264957     3A    -11.216734
       4A    -11.214577     5A    -11.213900     6A    -11.213209
       7A    -11.213154     8A    -11.211909     9A    -11.207323
      10A     -1.363220    11A     -1.096180    12A     -1.062490
      13A     -1.012461    14A     -0.949466    15A     -0.888548
      16A     -0.820464    17A     -0.802039    18A     -0.778193
      19A     -0.696225    20A     -0.653104    21A     -0.638235
      22A     -0.616039    23A     -0.603029    24A     -0.583641
      25A     -0.581307    26A     -0.552448    27A     -0.540976
      28A     -0.533887    29A     -0.504704    30A     -0.495865
      31A     -0.486146    32A     -0.473223    33A     -0.470354
      34A     -0.460967    35A     -0.452645    36A     -0.442276
      37A     -0.425610

  @DF-RHF Final Energy:  -388.42734329103962

   => Energetics <=

    Nuclear Repulsion Energy =            460.2583563230697337
    One-Electron Energy =               -1438.8017389974306752
    Two-Electron Energy =                 590.1160393833212083
    DFT Exchange-Correlation Energy =       0.0000000000000000
    Empirical Dispersion Energy =           0.0000000000000000
    PCM Polarization Energy =               0.0000000000000000
    EFP Energy =                            0.0000000000000000
    Total Energy =                       -388.4273432910397332
    Molecular point group: c1
  Basis Set: CC-PVTZ
  Basis Set:

  -Total Gradient:
     Atom            X                  Y                   Z
    ------   -----------------  -----------------  -----------------
       1        0.000012888489    -0.000004138402    -0.000003353242
       2       -0.000009128637     0.000016240047    -0.000010362652
       3       -0.000018524028    -0.000032288230     0.000058255207
       4        0.000014884998    -0.000031379345     0.000023877315
       5       -0.000009618020     0.000005311999    -0.000000416134
       6       -0.000000078142    -0.000009395648    -0.000051231016
       7        0.000016321585     0.000024593334    -0.000005641282
       8       -0.000007838557     0.000011232009     0.000056368804
       9       -0.000004639970     0.000022714344    -0.000022635134
      10       -0.000025435451     0.000047083882    -0.000055585774
      11        0.000087625385    -0.000108562581     0.000009310246
      12       -0.000011009923     0.000016980934    -0.000022173171
      13        0.000019904683     0.000106725329     0.000052193981
      14       -0.000019214348     0.000038463381     0.000007064141
      15       -0.000019195544    -0.000000850231    -0.000037093633
      16        0.000170909970     0.003049006335     0.000406777205
      17        0.000037916662    -0.000012392905     0.000035908774
      18        0.000006667041     0.000002182710     0.000000376205
      19       -0.000664553382    -0.001481894595    -0.002036984790
      20       -0.000004212591    -0.002231918561     0.000088318372
      21       -0.000074817899    -0.000080726598     0.000029142407
      22        0.000490877095     0.000675823994     0.001491791895
      23        0.000011358482    -0.000003311603     0.000038413772
      24       -0.000007384674     0.000005308400     0.000005824672
      25       -0.000001145397     0.000013218009    -0.000035023390
      26        0.000015353841    -0.000010230039     0.000000955473
      27       -0.000007911665    -0.000027795960    -0.000024078253

  **** Optimization is complete! (in 4 steps) ****
    Final optimized geometry and variables:
    Molecular point group: c1

    Geometry (in Angstrom), charge = 0, multiplicity = 1:

    H            2.540744023796     2.134525779886    -0.036361757274
    O            3.295908967761     1.737235636180    -0.428084066467
    C            3.549622191028     0.489505003980     0.161818457374
    C            2.549843635949    -0.585048060529    -0.238262218071
    H            4.539510611170     0.203227700675    -0.166955555320
    H            3.584461333366     0.582301507543     1.245506020001
    C            1.125142850171    -0.328633142171     0.247527246323
    H            2.556326960304    -0.676914506949    -1.320110618786
    H            2.900878227234    -1.533419939437     0.161231812902
    C            0.158253322125    -1.446714947777    -0.139251750413
    H            0.770772481176     0.612162755950    -0.160134328183
    H            1.128516476180    -0.218900552291     1.330577198585
    C           -1.263794154747    -1.286174189776     0.400765650830
    H            0.123603285256    -1.529558772270    -1.222784874572
    H            0.558510098641    -2.389650369252     0.222741822594
    C           -2.047497857373    -0.108473430767    -0.178304360213
    H           -1.812294321636    -2.201000871179     0.193217138191
    H           -1.228223288312    -1.196339091140     1.484039640451
    C           -3.504325363867    -0.085407030874     0.281167303153
    H           -2.016983651029    -0.173292275666    -1.263656270040
    H           -1.572207244400     0.827850350590     0.095292005552
    C           -4.226968438634     1.210221771609    -0.072406087128
    H           -4.031743471106    -0.930649335233    -0.151121007288
    H           -3.540583609697    -0.224564117779     1.358535862254
    H           -4.220111417262     1.385782091205    -1.143412993159
    H           -5.261375692668     1.184571343231     0.250683127703
    H           -3.752563402613     2.061912315370     0.403210035155

  Mulliken Charges: (a.u.)
   Center  Symbol    Alpha    Beta     Spin     Total
       1     H     0.39231  0.39231  0.00000  0.21538
       2     O     4.20551  4.20551  0.00000 -0.41102
       3     C     2.97995  2.97995  0.00000  0.04009
       4     C     3.08924  3.08924  0.00000 -0.17847
       5     H     0.44857  0.44857  0.00000  0.10286
       6     H     0.46971  0.46971  0.00000  0.06058
       7     C     3.10261  3.10261  0.00000 -0.20522
       8     H     0.45078  0.45078  0.00000  0.09845
       9     H     0.45519  0.45519  0.00000  0.08963
      10     C     3.09840  3.09840  0.00000 -0.19681
      11     H     0.45571  0.45571  0.00000  0.08858
      12     H     0.45378  0.45378  0.00000  0.09243
      13     C     3.09820  3.09820  0.00000 -0.19641
      14     H     0.45166  0.45166  0.00000  0.09668
      15     H     0.44808  0.44808  0.00000  0.10384
      16     C     3.08815  3.08815  0.00000 -0.17629
      17     H     0.44811  0.44811  0.00000  0.10378
      18     H     0.45392  0.45392  0.00000  0.09217
      19     C     3.08419  3.08419  0.00000 -0.16838
      20     H     0.45353  0.45353  0.00000  0.09294
      21     H     0.45580  0.45580  0.00000  0.08839
      22     C     3.14942  3.14942  0.00000 -0.29883
      23     H     0.45247  0.45247  0.00000  0.09505
      24     H     0.45568  0.45568  0.00000  0.08864
      25     H     0.45479  0.45479  0.00000  0.09042
      26     H     0.44844  0.44844  0.00000  0.10313
      27     H     0.45580  0.45580  0.00000  0.08839

   Total alpha = 37.00000, Total beta = 37.00000, Total charge = -0.00000

*** Psi4 exiting successfully. Buy a developer a beer!
