  ==> Input File <==

--------------------------------------------------------------------------
set {
	reference rhf
	basis 6-31G*
}

set_num_threads( 4 )
memory 2 gb

molecule MOL {
0 1

H	 2.531385	 -0.978070	 -0.171963
O	 1.847485	 -0.401961	 -0.481912
C	 1.135793	 0.118896	 0.612333
C	 0.031547	 1.023609	 0.088541
H	 1.796724	 0.696146	 1.256415
H	 0.719321	 -0.685541	 1.214440
C	 -1.134819	 0.293262	 -0.585751
H	 0.474374	 1.714721	 -0.623187
H	 -0.338529	 1.620940	 0.920081
C	 -1.917817	 -0.639439	 0.339494
H	 -0.758119	 -0.268455	 -1.433105
H	 -1.813832	 1.041889	 -0.986690
H	 -2.777680	 -1.057197	 -0.174994
H	 -1.310268	 -1.471279	 0.680599
H	 -2.283753	 -0.111424	 1.216626

	symmetry c1
}
set optking {
	frozen_dihedral = ("
		2 3 4 8
	")
}

ee = optimize('scf')
oeprop('DIPOLE', 'QUADRUPOLE', 'MULLIKEN_CHARGES')
f=open( 'psi4out.xyz', 'w' )
f.write( "15  " )
f.write( str(ee) + "\n" )
f.write( MOL.save_string_xyz() )
f.close()
--------------------------------------------------------------------------

    Molecular point group: c1
  Charge       = 0
  Multiplicity = 1
  Basis Set: 6-31G*
  Basis Set:
  @DF-RHF Final Energy:  -232.14306934756397
    Total Energy =                       -232.1430693475639941
    Molecular point group: c1
  Basis Set: 6-31G*
  Basis Set:
  Basis Set: 6-31G*
  Basis Set:
  @DF-RHF Final Energy:  -232.14312844026648
    Total Energy =                       -232.1431284402664232
  Basis Set: 6-31G*
  Basis Set:
  Basis Set: 6-31G*
  Basis Set:
  @DF-RHF Final Energy:  -232.14332120805068
    Total Energy =                       -232.1433212080504518
  Basis Set: 6-31G*
  Basis Set:
  Basis Set: 6-31G*
  Basis Set:
  @DF-RHF Final Energy:  -232.14334600738468
    Total Energy =                       -232.1433460073846504
  Basis Set: 6-31G*
  Basis Set:
  Basis Set: 6-31G*
  Basis Set:
  @DF-RHF Final Energy:  -232.14334862886980
    Total Energy =                       -232.1433486288697168
  Basis Set: 6-31G*
  Basis Set:
  Charge       = 0
  Multiplicity = 1
  Basis Set: 6-31G*
  Basis Set:

    Orbital Energies (a.u.)
    -----------------------

    Doubly Occupied:

       1A    -20.552970     2A    -11.267389     3A    -11.212097
       4A    -11.209798     5A    -11.206329     6A     -1.359435
       7A     -1.064305     8A     -0.970429     9A     -0.868023
      10A     -0.776288    11A     -0.704448    12A     -0.647485
      13A     -0.606165    14A     -0.575481    15A     -0.562357
      16A     -0.534123    17A     -0.509064    18A     -0.473590
      19A     -0.469674    20A     -0.452461    21A     -0.429734

  @DF-RHF Final Energy:  -232.14334898825311

   => Energetics <=

    Nuclear Repulsion Energy =            190.7834214826133064
    One-Electron Energy =                -692.9502470423501563
    Two-Electron Energy =                 270.0234765714837977
    DFT Exchange-Correlation Energy =       0.0000000000000000
    Empirical Dispersion Energy =           0.0000000000000000
    PCM Polarization Energy =               0.0000000000000000
    EFP Energy =                            0.0000000000000000
    Total Energy =                       -232.1433489882530239
    Molecular point group: c1
  Basis Set: 6-31G*
  Basis Set:

  -Total Gradient:
     Atom            X                  Y                   Z
    ------   -----------------  -----------------  -----------------
       1        0.000001018969     0.000002336258     0.000001208817
       2        0.001137600006     0.001511807205     0.000087519310
       3       -0.001560317559    -0.002276857569    -0.000518027691
       4        0.000858736117     0.002295146366     0.002273319715
       5       -0.000003891062     0.000005583172     0.000002961500
       6       -0.000010884289    -0.000001833827     0.000003805072
       7       -0.000015203624     0.000006188918    -0.000003004423
       8       -0.000436646034    -0.001543827271    -0.001849135917
       9       -0.000004441036    -0.000000347562    -0.000002768766
      10        0.000022054997    -0.000007457811     0.000003633172
      11        0.000000588210    -0.000001671763     0.000010161395
      12        0.000001939294     0.000011286282    -0.000007201477
      13        0.000001538824     0.000005395378    -0.000004205171
      14        0.000000057764    -0.000008656178     0.000009031648
      15        0.000007849425     0.000002908403    -0.000007297186

  **** Optimization is complete! (in 6 steps) ****
    Final optimized geometry and variables:
    Molecular point group: c1

    Geometry (in Angstrom), charge = 0, multiplicity = 1:

    H            2.495201545891    -1.003284968331    -0.254723421750
    O            1.814934665456    -0.401612570987    -0.521334027438
    C            1.119530078748     0.059267832882     0.610617526314
    C           -0.018487726218     0.951094219869     0.137809268244
    H            1.786401401099     0.633879047827     1.251126853297
    H            0.745124343039    -0.774895893490     1.199177865839
    C           -1.158563565699     0.207350253540    -0.569125223777
    H            0.406594507995     1.668949344253    -0.557250688726
    H           -0.409266408868     1.507186325004     0.987238296533
    C           -2.007311383708    -0.672759271505     0.350324236670
    H           -0.742815699265    -0.392819768865    -1.372097859464
    H           -1.805924338645     0.943693981392    -1.038801159189
    H           -2.825477223121    -1.127043226499    -0.200079391275
    H           -1.429837796768    -1.478733602207     0.791846070816
    H           -2.438722546260    -0.091710720312     1.161349016351

  Mulliken Charges: (a.u.)
   Center  Symbol    Alpha    Beta     Spin     Total
       1     H     0.28081  0.28081  0.00000  0.43838
       2     O     4.37007  4.37007  0.00000 -0.74014
       3     C     2.99900  2.99900  0.00000  0.00201
       4     C     3.16068  3.16068  0.00000 -0.32136
       5     H     0.42933  0.42933  0.00000  0.14135
       6     H     0.43073  0.43073  0.00000  0.13854
       7     C     3.15667  3.15667  0.00000 -0.31333
       8     H     0.41136  0.41136  0.00000  0.17728
       9     H     0.42405  0.42405  0.00000  0.15190
      10     C     3.24206  3.24206  0.00000 -0.48412
      11     H     0.40897  0.40897  0.00000  0.18206
      12     H     0.42167  0.42167  0.00000  0.15666
      13     H     0.41871  0.41871  0.00000  0.16259
      14     H     0.42206  0.42206  0.00000  0.15587
      15     H     0.42384  0.42384  0.00000  0.15231

   Total alpha = 21.00000, Total beta = 21.00000, Total charge =  0.00000
