                              Psi4 1.0.54 Driver

  ==> Input File <==

--------------------------------------------------------------------------
set {
	reference rhf
	basis cc-pvtz
}

set_num_threads( 4 )
memory 2 gb

molecule MOL {
0 1

O	 -1.184403	 2.460538	 0.964292
C	 -1.265005	 1.761613	 0.006984
C	 -0.028050	 1.151256	 -0.621869
C	 -2.597718	 1.429230	 -0.620843
C	 0.376695	 -0.140025	 0.100361
H	 0.771432	 1.877082	 -0.543661
H	 -0.202063	 0.946978	 -1.672990
C	 1.630207	 -0.772146	 -0.501001
H	 0.532746	 0.090702	 1.146612
H	 -0.440193	 -0.856282	 0.055993
C	 2.907848	 -0.545876	 0.309149
H	 1.772784	 -0.391628	 -1.509394
H	 1.468529	 -1.842059	 -0.599744
C	 3.373802	 0.906639	 0.372125
H	 3.699140	 -1.146831	 -0.127906
H	 2.764321	 -0.923458	 1.318191
H	 3.519798	 1.311927	 -0.623875
H	 4.316899	 0.983758	 0.900700
H	 2.661122	 1.540651	 0.885346
H	 -2.655905	 1.892426	 -1.600670
H	 -3.402262	 1.794650	 -0.001371
H	 -2.696344	 0.359304	 -0.766171

	symmetry c1
}
set optking {
	frozen_dihedral = ("
		3 5 8 12
	")
}

ee,wfn = optimize('scf', return_wfn=True)
oeprop( wfn, 'DIPOLE', 'QUADRUPOLE', 'MULLIKEN_CHARGES')
f=open( 'psi4out.xyz', 'w' )
f.write( "22  " )
f.write( str(ee) + "\n" )
f.write( MOL.save_string_xyz() )
f.close()
--------------------------------------------------------------------------

    Molecular point group: c1
  Charge       = 0
  Multiplicity = 1
  Basis Set: CC-PVTZ
  Basis Set:
  @DF-RHF Final Energy:  -348.21832893211655
    Total Energy =                       -348.2183289321166058
    Molecular point group: c1
  Basis Set: CC-PVTZ
  Basis Set:
  Basis Set: CC-PVTZ
  Basis Set:
  @DF-RHF Final Energy:  -348.21862828844320
    Total Energy =                       -348.2186282884429147
  Basis Set: CC-PVTZ
  Basis Set:
  Basis Set: CC-PVTZ
  Basis Set:
  @DF-RHF Final Energy:  -348.21873558097940
    Total Energy =                       -348.2187355809793985
  Basis Set: CC-PVTZ
  Basis Set:
  Basis Set: CC-PVTZ
  Basis Set:
  @DF-RHF Final Energy:  -348.21876308977471
    Total Energy =                       -348.2187630897740860
  Basis Set: CC-PVTZ
  Basis Set:
  @DF-RHF Final Energy:  -348.21877684338443
    Total Energy =                       -348.2187768433833526
  Basis Set: CC-PVTZ
  Basis Set:
  @DF-RHF Final Energy:  -348.21877913924186
    Total Energy =                       -348.2187791392420877
  Basis Set: CC-PVTZ
  Basis Set:
  Basis Set: CC-PVTZ
  Basis Set:
  @DF-RHF Final Energy:  -348.21877111605664
    Total Energy =                       -348.2187711160565868
  Basis Set: CC-PVTZ
  Basis Set:
  Basis Set: CC-PVTZ
  Basis Set:
  @DF-RHF Final Energy:  -348.21877969490595
    Total Energy =                       -348.2187796949056633
  Basis Set: CC-PVTZ
  Basis Set:
  Charge       = 0
  Multiplicity = 1
  Basis Set: CC-PVTZ
  Basis Set:

    Orbital Energies (a.u.)
    -----------------------

    Doubly Occupied:

       1A    -20.536883     2A    -11.319117     3A    -11.228216
       4A    -11.227178     5A    -11.226848     6A    -11.220241
       7A    -11.217610     8A    -11.207954     9A     -1.396834
      10A     -1.095235    11A     -1.043684    12A     -0.998680
      13A     -0.941383    14A     -0.857258    15A     -0.785347
      16A     -0.735388    17A     -0.659664    18A     -0.651626
      19A     -0.628065    20A     -0.615893    21A     -0.599988
      22A     -0.581985    23A     -0.560601    24A     -0.549170
      25A     -0.532626    26A     -0.518498    27A     -0.504897
      28A     -0.489464    29A     -0.467478    30A     -0.465868
      31A     -0.455814    32A     -0.398093

  @DF-RHF Final Energy:  -348.21877961282610

   => Energetics <=

    Nuclear Repulsion Energy =            379.3790658135918648
    One-Electron Energy =               -1223.7605208369730008
    Two-Electron Energy =                 496.1626754105551527
    DFT Exchange-Correlation Energy =       0.0000000000000000
    Empirical Dispersion Energy =           0.0000000000000000
    PCM Polarization Energy =               0.0000000000000000
    EFP Energy =                            0.0000000000000000
    Total Energy =                       -348.2187796128259833
    Molecular point group: c1
  Basis Set: CC-PVTZ
  Basis Set:

  -Total Gradient:
     Atom            X                  Y                   Z
    ------   -----------------  -----------------  -----------------
       1       -0.000004595535     0.000000200630     0.000025624807
       2        0.000028425566     0.000033897022     0.000004022312
       3       -0.000359172809    -0.000432869306    -0.000420752289
       4        0.000008168388    -0.000032131132    -0.000001707074
       5        0.000704572233     0.000693026003     0.000702919835
       6        0.000024479935    -0.000001924683    -0.000001332937
       7       -0.000019437359    -0.000006017977    -0.000004703115
       8       -0.000817122254    -0.000929172964    -0.000608926817
       9       -0.000043056839     0.000011226870    -0.000010470838
      10        0.000000853121    -0.000034103085    -0.000030167040
      11       -0.000016987156    -0.000013588516     0.000003575258
      12        0.000501964956     0.000729496155     0.000336570783
      13       -0.000013012974    -0.000018090627     0.000015765727
      14        0.000002109200    -0.000008155443    -0.000017619012
      15        0.000000819059    -0.000010152640     0.000009868869
      16        0.000015501207     0.000015670083     0.000005564238
      17        0.000001293832    -0.000007872623     0.000002750415
      18       -0.000004758571    -0.000003638433     0.000006949546
      19       -0.000007315405     0.000006570776    -0.000010180923
      20       -0.000010788016    -0.000000226386    -0.000003352638
      21        0.000010687487     0.000002681088     0.000000823605
      22       -0.000002628067     0.000005175192    -0.000005222713

  **** Optimization is complete! (in 9 steps) ****
    Final optimized geometry and variables:
    Molecular point group: c1

    Geometry (in Angstrom), charge = 0, multiplicity = 1:

    O           -1.548118478147     1.701321725954     0.926887494908
    C           -1.663425453024     0.984351794341    -0.013605627371
    C           -0.449533691765     0.355052454335    -0.668199303758
    C           -3.017310550491     0.649741963199    -0.592614347145
    C           -0.035801152016    -0.930182366335     0.063501532607
    H            0.352040132329     1.079892002497    -0.634289397665
    H           -0.658018074880     0.127399771184    -1.708067799561
    C            1.235972617754    -1.587221924809    -0.507109262216
    H            0.100138481432    -0.705812988486     1.115024050051
    H           -0.857374177239    -1.637092587200     0.008572788562
    C            2.504603366459    -1.360006780061     0.319257860263
    H            1.407163409131    -1.232451839545    -1.519792398044
    H            1.076561598425    -2.656914198817    -0.584571691593
    C            2.960265862992     0.093210994699     0.418335536761
    H            3.305140800704    -1.949331965362    -0.117601126852
    H            2.349272997807    -1.755115672697     1.319422317717
    H            3.135574997130     0.516520872605    -0.565563404919
    H            3.886348369635     0.165303979159     0.976737165596
    H            2.229010196053     0.713675575905     0.922329785621
    H           -3.103743111051     1.096720320772    -1.577890638923
    H           -3.799459843108     1.031160236625     0.045590480463
    H           -3.127147450900    -0.421765072114    -0.716422260100

  Mulliken Charges: (a.u.)
   Center  Symbol    Alpha    Beta     Spin     Total
       1     O     4.17762  4.17762  0.00000 -0.35524
       2     C     2.85783  2.85783  0.00000  0.28434
       3     C     3.10252  3.10252  0.00000 -0.20504
       4     C     3.15517  3.15517  0.00000 -0.31033
       5     C     3.11798  3.11798  0.00000 -0.23595
       6     H     0.43566  0.43566  0.00000  0.12869
       7     H     0.44624  0.44624  0.00000  0.10752
       8     C     3.10138  3.10138  0.00000 -0.20277
       9     H     0.43881  0.43881  0.00000  0.12237
      10     H     0.44129  0.44129  0.00000  0.11741
      11     C     3.08509  3.08509  0.00000 -0.17018
      12     H     0.45367  0.45367  0.00000  0.09266
      13     H     0.44290  0.44290  0.00000  0.11421
      14     C     3.16095  3.16095  0.00000 -0.32191
      15     H     0.44884  0.44884  0.00000  0.10233
      16     H     0.45357  0.45357  0.00000  0.09287
      17     H     0.45435  0.45435  0.00000  0.09131
      18     H     0.44303  0.44303  0.00000  0.11393
      19     H     0.44767  0.44767  0.00000  0.10466
      20     H     0.44836  0.44836  0.00000  0.10329
      21     H     0.43616  0.43616  0.00000  0.12768
      22     H     0.45092  0.45092  0.00000  0.09815

   Total alpha = 32.00000, Total beta = 32.00000, Total charge = -0.00000

*** Psi4 exiting successfully. Buy a developer a beer!
