  ==> Input File <==

--------------------------------------------------------------------------
set {
	reference rhf
	basis 6-31G*
}

set_num_threads( 1 )
memory 2 gb

molecule MOL {
0 1

O	 0.625848	 1.349995	 -0.000749
C	 0.486307	 0.169203	 0.000779
C	 1.608116	 -0.841643	 0.000302
O	 -0.698257	 -0.426125	 0.001050
C	 2.990107	 -0.200498	 -0.000684
H	 1.468623	 -1.481519	 -0.865924
H	 1.469683	 -1.481289	 0.866878
H	 3.129736	 0.423364	 -0.875135
H	 3.757882	 -0.966877	 -0.001197
H	 3.130964	 0.423383	 0.873533
C	 -0.727671	 -1.832670	 -0.218419
C	 -2.176578	 -2.269304	 -0.170166
H	 -0.137410	 -2.320975	 0.544951
H	 -0.276441	 -2.049486	 -1.177050
H	 -2.615505	 -2.040302	 0.794230
H	 -2.245398	 -3.339950	 -0.333351
H	 -2.755385	 -1.767423	 -0.937209

	symmetry c1
}
set optking {
	frozen_dihedral = ("
		2 4 11 13,
		4 2 3 6
	")
}

ee = energy('scf')
oeprop('DIPOLE', 'QUADRUPOLE', 'MULLIKEN_CHARGES')
f=open( 'psi4out.xyz', 'w' )
f.write( "17  " )
f.write( str(ee) + "\n" )
f.write( MOL.save_string_xyz() )
f.close()
--------------------------------------------------------------------------

    Molecular point group: c1

    Geometry (in Angstrom), charge = 0, multiplicity = 1:

       Center              X                  Y                   Z               Mass
    ------------   -----------------  -----------------  -----------------  -----------------
           O          0.332215580095     1.934281981394     0.055805443713    15.994914619560
           C          0.192674580095     0.753489981394     0.057333443713    12.000000000000
           C          1.314483580095    -0.257356018606     0.056856443713    12.000000000000
           O         -0.991889419905     0.158161981394     0.057604443713    15.994914619560
           C          2.696474580095     0.383788981394     0.055870443713    12.000000000000
           H          1.174990580095    -0.897232018606    -0.809369556287     1.007825032070
           H          1.176050580095    -0.897002018606     0.923432443713     1.007825032070
           H          2.836103580095     1.007650981394    -0.818580556287     1.007825032070
           H          3.464249580095    -0.382590018606     0.055357443713     1.007825032070
           H          2.837331580095     1.007669981394     0.930087443713     1.007825032070
           C         -1.021303419905    -1.248383018606    -0.161864556287    12.000000000000
           C         -2.470210419905    -1.685017018606    -0.113611556287    12.000000000000
           H         -0.431042419905    -1.736688018606     0.601505443713     1.007825032070
           H         -0.570073419905    -1.465199018606    -1.120495556287     1.007825032070
           H         -2.909137419905    -1.456015018606     0.850784443713     1.007825032070
           H         -2.539030419905    -2.755663018606    -0.276796556287     1.007825032070
           H         -3.049017419905    -1.183136018606    -0.880654556287     1.007825032070

  Charge       = 0
  Multiplicity = 1
  Basis Set: 6-31G*
  Basis Set:

    Orbital Energies (a.u.)
    -----------------------

    Doubly Occupied:

       1A    -20.605050     2A    -20.541924     3A    -11.373427
       4A    -11.301199     5A    -11.243512     6A    -11.229996
       7A    -11.219018     8A     -1.466830     9A     -1.367773
      10A     -1.064870    11A     -1.051452    12A     -0.907484
      13A     -0.886829    14A     -0.767310    15A     -0.709211
      16A     -0.707212    17A     -0.657841    18A     -0.629380
      19A     -0.593477    20A     -0.578440    21A     -0.560926
      22A     -0.544867    23A     -0.527766    24A     -0.519084
      25A     -0.509105    26A     -0.504032    27A     -0.445741
      28A     -0.428431

  @DF-RHF Final Energy:  -344.88472797736699

   => Energetics <=

    Nuclear Repulsion Energy =            318.9118522327438541
    One-Electron Energy =               -1101.7087692968136707
    Two-Electron Energy =                 437.9121890867043021
    DFT Exchange-Correlation Energy =       0.0000000000000000
    Empirical Dispersion Energy =           0.0000000000000000
    PCM Polarization Energy =               0.0000000000000000
    EFP Energy =                            0.0000000000000000
    Total Energy =                       -344.8847279773655146

  Mulliken Charges: (a.u.)
   Center  Symbol    Alpha    Beta     Spin     Total
       1     O     4.27446  4.27446  0.00000 -0.54892
       2     C     2.59060  2.59060  0.00000  0.81880
       3     C     3.24254  3.24254  0.00000 -0.48509
       4     O     4.30459  4.30459  0.00000 -0.60918
       5     C     3.23269  3.23269  0.00000 -0.46537
       6     H     0.40297  0.40297  0.00000  0.19405
       7     H     0.40031  0.40031  0.00000  0.19937
       8     H     0.40853  0.40853  0.00000  0.18295
       9     H     0.41974  0.41974  0.00000  0.16051
      10     H     0.40808  0.40808  0.00000  0.18384
      11     C     3.01247  3.01247  0.00000 -0.02494
      12     C     3.24233  3.24233  0.00000 -0.48466
      13     H     0.41569  0.41569  0.00000  0.16861
      14     H     0.41372  0.41372  0.00000  0.17256
      15     H     0.40742  0.40742  0.00000  0.18517
      16     H     0.41736  0.41736  0.00000  0.16529
      17     H     0.40649  0.40649  0.00000  0.18702

   Total alpha = 28.00000, Total beta = 28.00000, Total charge = -0.00000
