  ==> Input File <==

--------------------------------------------------------------------------
set {
	reference rhf
	basis cc-pvtz
}

set_num_threads( 4 )
memory 2 gb

molecule MOL {
0 1

O	 -0.294688	 1.318815	 -0.000872
C	 -0.448732	 0.145721	 -0.000187
C	 -1.780748	 -0.548101	 0.000195
O	 0.550743	 -0.719877	 0.000412
H	 -1.859389	 -1.183260	 -0.872613
H	 -2.570236	 0.185547	 -0.001342
H	 -1.860233	 -1.180337	 0.875064
C	 1.752926	 -0.320932	 0.628635
H	 2.159289	 0.557441	 0.149721
H	 2.432725	 -1.150736	 0.523835
H	 1.583523	 -0.106650	 1.673339

	symmetry c1
}
set optking {
	frozen_dihedral = ("
		8 4 2 1
	")
}

ee = optimize('scf')
oeprop('DIPOLE', 'QUADRUPOLE', 'MULLIKEN_CHARGES')
f=open( 'psi4out.xyz', 'w' )
f.write( "11  " )
f.write( str(ee) + "\n" )
f.write( MOL.save_string_xyz() )
f.close()
--------------------------------------------------------------------------

    Molecular point group: c1
  Charge       = 0
  Multiplicity = 1
  Basis Set: CC-PVTZ
  Basis Set:
  @DF-RHF Final Energy:  -266.93408732922200
    Total Energy =                       -266.9340873292222227
    Molecular point group: c1
  Basis Set: CC-PVTZ
  Basis Set:
  Basis Set: CC-PVTZ
  Basis Set:
  @DF-RHF Final Energy:  -266.93056848958003
    Total Energy =                       -266.9305684895801392
  Basis Set: CC-PVTZ
  Basis Set:
  Basis Set: CC-PVTZ
  Basis Set:
  @DF-RHF Final Energy:  -266.93449882528068
    Total Energy =                       -266.9344988252805706
  Basis Set: CC-PVTZ
  Basis Set:
  Basis Set: CC-PVTZ
  Basis Set:
  @DF-RHF Final Energy:  -266.93456452906645
    Total Energy =                       -266.9345645290665630
  Basis Set: CC-PVTZ
  Basis Set:
  @DF-RHF Final Energy:  -266.93457444548216
    Total Energy =                       -266.9345744454822693
  @DF-RHF Final Energy:  -266.93457546629077
    Total Energy =                       -266.9345754662905392
  Basis Set: CC-PVTZ
  Basis Set:
  @DF-RHF Final Energy:  -266.93424636496582
    Total Energy =                       -266.9342463649661568
  Basis Set: CC-PVTZ
  Basis Set:
  Basis Set: CC-PVTZ
  Basis Set:
  @DF-RHF Final Energy:  -266.93458053509477
    Total Energy =                       -266.9345805350947103
  Basis Set: CC-PVTZ
  Basis Set:
  Basis Set: CC-PVTZ
  Basis Set:
  @DF-RHF Final Energy:  -266.93458633319682
    Total Energy =                       -266.9345863331972168
  Basis Set: CC-PVTZ
  Basis Set:
  Charge       = 0
  Multiplicity = 1
  Basis Set: CC-PVTZ
  Basis Set:

    Orbital Energies (a.u.)
    -----------------------

    Doubly Occupied:

       1A    -20.594328     2A    -20.537765     3A    -11.369697
       4A    -11.282004     5A    -11.233677     6A     -1.471201
       7A     -1.368508     8A     -1.035403     9A     -0.954869
      10A     -0.779885    11A     -0.697687    12A     -0.683304
      13A     -0.679480    14A     -0.599352    15A     -0.593769
      16A     -0.564508    17A     -0.532583    18A     -0.518593
      19A     -0.461209    20A     -0.445065

  @DF-RHF Final Energy:  -266.93458699643799

   => Energetics <=

    Nuclear Repulsion Energy =            183.3739188522934569
    One-Electron Energy =                -727.8112402567003301
    Two-Electron Energy =                 277.5027344079685463
    DFT Exchange-Correlation Energy =       0.0000000000000000
    Empirical Dispersion Energy =           0.0000000000000000
    PCM Polarization Energy =               0.0000000000000000
    EFP Energy =                            0.0000000000000000
    Total Energy =                       -266.9345869964383837
    Molecular point group: c1
  Basis Set: CC-PVTZ
  Basis Set:

  -Total Gradient:
     Atom            X                  Y                   Z
    ------   -----------------  -----------------  -----------------
       1       -0.000387537574     0.000345979416    -0.008804939528
       2       -0.000597288936    -0.001745454876     0.016143739525
       3        0.000067984575    -0.000023725407    -0.000200464459
       4        0.002969402434     0.004236567029    -0.013012231237
       5       -0.000021917766     0.000081025458     0.000041682547
       6       -0.000028960310    -0.000008120218    -0.000028682447
       7        0.000027597848    -0.000022635451     0.000058588947
       8       -0.002082139474    -0.002928032469     0.005855598797
       9        0.000044125237     0.000043292983     0.000013527487
      10        0.000011262373    -0.000007531651    -0.000015310823
      11       -0.000002528405     0.000028635188    -0.000051508808

  **** Optimization is complete! (in 10 steps) ****
    Final optimized geometry and variables:
    Molecular point group: c1

    Geometry (in Angstrom), charge = 0, multiplicity = 1:

    O           -0.291397102817     1.345618730244    -0.043248994402
    C           -0.433754790915     0.173642974567    -0.092178577494
    C           -1.758590777995    -0.528015501974    -0.170816628016
    O            0.579875491282    -0.681938847064    -0.166019161825
    H           -1.765906006365    -1.197899756580    -1.020203425028
    H           -2.551677399935     0.196959832535    -0.255916007529
    H           -1.898752533803    -1.127385172105     0.720579907561
    C            1.798655319468    -0.297269844878     0.439462328319
    H            2.232815705264     0.551840208276    -0.066284693412
    H            2.454025658285    -1.149481641007     0.362537956465
    H            1.638735562554    -0.048120747973     1.479359963821

  Mulliken Charges: (a.u.)
   Center  Symbol    Alpha    Beta     Spin     Total
       1     O     4.19071  4.19071  0.00000 -0.38143
       2     C     2.80148  2.80148  0.00000  0.39705
       3     C     3.13724  3.13724  0.00000 -0.27448
       4     O     4.15224  4.15224  0.00000 -0.30448
       5     H     0.44387  0.44387  0.00000  0.11226
       6     H     0.43823  0.43823  0.00000  0.12353
       7     H     0.44838  0.44838  0.00000  0.10325
       8     C     3.03278  3.03278  0.00000 -0.06557
       9     H     0.44883  0.44883  0.00000  0.10234
      10     H     0.44533  0.44533  0.00000  0.10935
      11     H     0.46091  0.46091  0.00000  0.07818

   Total alpha = 20.00000, Total beta = 20.00000, Total charge = -0.00000
