                              Psi4 1.0.54 Driver

  ==> Input File <==

--------------------------------------------------------------------------
set {
	reference rhf
	basis cc-pvtz
}

set_num_threads( 4 )
memory 2 gb

molecule MOL {
0 1

H	 1.719197	 0.253064	 3.074091
O	 2.214660	 0.539601	 2.327677
C	 1.471446	 0.522312	 1.207001
C	 2.082303	 0.923317	 0.027523
C	 0.151044	 0.126271	 1.199974
H	 3.109878	 1.227410	 0.055351
C	 1.371073	 0.926193	 -1.150397
H	 -0.345121	 -0.187782	 2.094673
C	 -0.532034	 0.141680	 0.000000
H	 1.851427	 1.237686	 -2.057028
C	 0.043645	 0.532707	 -1.182782
N	 -1.937041	 -0.281114	 0.000000
H	 -0.520819	 0.529805	 -2.089476
O	 -2.159542	 -1.446261	 0.000000
O	 -2.764978	 0.565773	 0.000000

	symmetry c1
}
set optking {
	frozen_dihedral = ("
		11 9 12 14
	")
}

ee,wfn = optimize('scf', return_wfn=True)
oeprop( wfn, 'DIPOLE', 'QUADRUPOLE', 'MULLIKEN_CHARGES')
f=open( 'psi4out.xyz', 'w' )
f.write( "15  " )
f.write( str(ee) + "\n" )
f.write( MOL.save_string_xyz() )
f.close()
--------------------------------------------------------------------------

    Molecular point group: c1
  Charge       = 0
  Multiplicity = 1
  Basis Set: CC-PVTZ
  Basis Set:
  @DF-RHF Final Energy:  -509.20967405437409
    Total Energy =                       -509.2096740543743181
    Molecular point group: c1
  Basis Set: CC-PVTZ
  Basis Set:
  Basis Set: CC-PVTZ
  Basis Set:
  @DF-RHF Final Energy:  -509.20638906166647
    Total Energy =                       -509.2063890616661865
  Basis Set: CC-PVTZ
  Basis Set:
  Basis Set: CC-PVTZ
  Basis Set:
  @DF-RHF Final Energy:  -509.20887285888193
    Total Energy =                       -509.2088728588819322
  Basis Set: CC-PVTZ
  Basis Set:
  Basis Set: CC-PVTZ
  Basis Set:
  @DF-RHF Final Energy:  -509.20993686576207
    Total Energy =                       -509.2099368657621881
  Basis Set: CC-PVTZ
  Basis Set:
  Basis Set: CC-PVTZ
  Basis Set:
  @DF-RHF Final Energy:  -509.20995258631223
    Total Energy =                       -509.2099525863119425
  Basis Set: CC-PVTZ
  Basis Set:
  Charge       = 0
  Multiplicity = 1
  Basis Set: CC-PVTZ
  Basis Set:

    Orbital Energies (a.u.)
    -----------------------

    Doubly Occupied:

       1A    -20.610669     2A    -20.601050     3A    -20.600777
       4A    -15.851008     5A    -11.330839     6A    -11.314935
       7A    -11.265287     8A    -11.263978     9A    -11.257729
      10A    -11.250068    11A     -1.648540    12A     -1.443649
      13A     -1.431792    14A     -1.204634    15A     -1.096622
      16A     -1.050031    17A     -0.966825    18A     -0.887208
      19A     -0.834104    20A     -0.793960    21A     -0.768657
      22A     -0.741247    23A     -0.725056    24A     -0.712692
      25A     -0.672454    26A     -0.636120    27A     -0.623965
      28A     -0.596306    29A     -0.565863    30A     -0.550299
      31A     -0.538373    32A     -0.495719    33A     -0.487371
      34A     -0.461819    35A     -0.376517    36A     -0.346338

  @DF-RHF Final Energy:  -509.20996212587232

   => Energetics <=

    Nuclear Repulsion Energy =            503.8144012471450992
    One-Electron Energy =               -1694.0437300530379616
    Two-Electron Energy =                 681.0193666800209940
    DFT Exchange-Correlation Energy =       0.0000000000000000
    Empirical Dispersion Energy =           0.0000000000000000
    PCM Polarization Energy =               0.0000000000000000
    EFP Energy =                            0.0000000000000000
    Total Energy =                       -509.2099621258719253
    Molecular point group: c1
  Basis Set: CC-PVTZ
  Basis Set:

  -Total Gradient:
     Atom            X                  Y                   Z
    ------   -----------------  -----------------  -----------------
       1       -0.000004790263    -0.000000097090    -0.000000837108
       2        0.000044482682    -0.000008245599     0.000036980406
       3       -0.000113102233    -0.000010406609    -0.000022186031
       4        0.000007499409     0.000001511866    -0.000040655928
       5        0.000088217592     0.000064140024     0.000063937135
       6       -0.000004797665     0.000004449798     0.000002768054
       7        0.000043365051    -0.000021505750     0.000005609866
       8       -0.000003725910    -0.000002033327    -0.000015788586
       9       -0.000985789041     0.002814184526    -0.000504154249
      10       -0.000001526449    -0.000000974836    -0.000002636565
      11        0.000636384503    -0.001976548250    -0.000284909642
      12        0.000315550655    -0.000793220569     0.003216197814
      13        0.000000296095     0.000001843493     0.000004896776
      14       -0.000000381218    -0.000036433862    -0.002458644456
      15       -0.000021683215    -0.000036663817    -0.000000577487

  **** Optimization is complete! (in 6 steps) ****
    Final optimized geometry and variables:
    Molecular point group: c1

    Geometry (in Angstrom), charge = 0, multiplicity = 1:

    H            1.773155489069     0.059282625488     2.796729373087
    O            2.267516211237     0.343328548440     2.048726830716
    C            1.530221050744     0.313255968634     0.926935377535
    C            2.143795229008     0.703258548021    -0.254630835745
    C            0.209616706384    -0.092117821635     0.919450402850
    H            3.170483000388     1.009091264458    -0.227389430533
    C            1.435188592010     0.689974816977    -1.433569292498
    H           -0.282052181919    -0.413481467756     1.817488153708
    C           -0.464786809985    -0.076257823415    -0.279995965294
    H            1.918905542195     0.988433072151    -2.343047986236
    C            0.106079234721     0.298070134702    -1.465999382505
    N           -1.860717272091    -0.525488513202    -0.284002299348
    H           -0.457026208045     0.290747889068    -2.376839841866
    O           -2.048973031288    -1.694247476097    -0.261264011017
    O           -2.696642580352     0.311528639839    -0.326605537627

  Mulliken Charges: (a.u.)
   Center  Symbol    Alpha    Beta     Spin     Total
       1     H     0.38453  0.38453  0.00000  0.23094
       2     O     4.16722  4.16722  0.00000 -0.33444
       3     C     2.84109  2.84109  0.00000  0.31782
       4     C     3.10949  3.10949  0.00000 -0.21898
       5     C     3.13822  3.13822  0.00000 -0.27643
       6     H     0.41434  0.41434  0.00000  0.17131
       7     C     3.04834  3.04834  0.00000 -0.09669
       8     H     0.42375  0.42375  0.00000  0.15249
       9     C     2.91941  2.91941  0.00000  0.16118
      10     H     0.41630  0.41630  0.00000  0.16741
      11     C     3.10586  3.10586  0.00000 -0.21172
      12     N     3.29188  3.29188  0.00000  0.41624
      13     H     0.41474  0.41474  0.00000  0.17053
      14     O     4.16271  4.16271  0.00000 -0.32542
      15     O     4.16212  4.16212  0.00000 -0.32423

   Total alpha = 36.00000, Total beta = 36.00000, Total charge = -0.00000

*** Psi4 exiting successfully. Buy a developer a beer!
