  ==> Input File <==

--------------------------------------------------------------------------
set {
	reference rhf
	basis 6-31G*
}

set_num_threads( 4 )
memory 2 gb

molecule MOL {
0 1

H	 2.786273	 -2.634945	 -2.112767
C	 2.672674	 -2.068037	 -1.194366
C	 1.414226	 -1.202202	 -1.234397
H	 2.635325	 -2.777000	 -0.372050
H	 3.565715	 -1.462440	 -1.067965
C	 1.217350	 -0.386724	 0.039429
H	 0.536801	 -1.822979	 -1.386546
H	 1.468395	 -0.527737	 -2.087365
N	 0.000003	 0.397874	 -0.023260
H	 1.137100	 -1.061012	 0.887875
H	 2.103062	 0.231903	 0.218854
C	 -1.217365	 -0.386708	 0.039277
H	 -0.000031	 1.072115	 0.718656
C	 -2.452633	 0.504241	 -0.042481
H	 -1.215291	 -1.074557	 -0.802042
H	 -1.269739	 -1.003477	 0.942735
C	 -3.758029	 -0.289423	 -0.010781
H	 -2.394220	 1.093569	 -0.952170
H	 -2.440793	 1.210787	 0.785871
H	 -3.816659	 -0.981993	 -0.845726
H	 -4.617837	 0.370165	 -0.069296
H	 -3.847478	 -0.867502	 0.904682

	symmetry c1
}
set optking {
	frozen_dihedral = ("
		10 6 9 12
	")
}

ee = optimize('scf')
oeprop('DIPOLE', 'QUADRUPOLE', 'MULLIKEN_CHARGES')
f=open( 'psi4out.xyz', 'w' )
f.write( "22  " )
f.write( str(ee) + "\n" )
f.write( MOL.save_string_xyz() )
f.close()
--------------------------------------------------------------------------

    Molecular point group: c1
  Charge       = 0
  Multiplicity = 1
  Basis Set: 6-31G*
  Basis Set:
  @DF-RHF Final Energy:  -290.37820101588540
    Total Energy =                       -290.3782010158853382
    Molecular point group: c1
  Basis Set: 6-31G*
  Basis Set:
  Basis Set: 6-31G*
  Basis Set:
  @DF-RHF Final Energy:  -290.38040588858127
    Total Energy =                       -290.3804058885813220
  Basis Set: 6-31G*
  Basis Set:
  Basis Set: 6-31G*
  Basis Set:
  @DF-RHF Final Energy:  -290.38114099910462
    Total Energy =                       -290.3811409991049004
  Basis Set: 6-31G*
  Basis Set:
  Basis Set: 6-31G*
  Basis Set:
  @DF-RHF Final Energy:  -290.38117635786068
    Total Energy =                       -290.3811763578604541
  Basis Set: 6-31G*
  Basis Set:
  Basis Set: 6-31G*
  Basis Set:
  @DF-RHF Final Energy:  -290.38117909964149
    Total Energy =                       -290.3811790996417130
  Basis Set: 6-31G*
  Basis Set:
  Charge       = 0
  Multiplicity = 1
  Basis Set: 6-31G*
  Basis Set:

    Orbital Energies (a.u.)
    -----------------------

    Doubly Occupied:

       1A    -15.533613     2A    -11.238531     3A    -11.237372
       4A    -11.214309     5A    -11.210136     6A    -11.210006
       7A    -11.208146     8A     -1.203684     9A     -1.056908
      10A     -1.026609    11A     -0.928679    12A     -0.872965
      13A     -0.809560    14A     -0.786088    15A     -0.659274
      16A     -0.641917    17A     -0.617953    18A     -0.605892
      19A     -0.575907    20A     -0.553674    21A     -0.550406
      22A     -0.524356    23A     -0.501504    24A     -0.488159
      25A     -0.480401    26A     -0.471757    27A     -0.460382
      28A     -0.456350    29A     -0.358076

  @DF-RHF Final Energy:  -290.38117938155597

   => Energetics <=

    Nuclear Repulsion Energy =            316.9721381332332157
    One-Electron Energy =               -1019.7414033269596985
    Two-Electron Energy =                 412.3880858121703454
    DFT Exchange-Correlation Energy =       0.0000000000000000
    Empirical Dispersion Energy =           0.0000000000000000
    PCM Polarization Energy =               0.0000000000000000
    EFP Energy =                            0.0000000000000000
    Total Energy =                       -290.3811793815561373
    Molecular point group: c1
  Basis Set: 6-31G*
  Basis Set:

  -Total Gradient:
     Atom            X                  Y                   Z
    ------   -----------------  -----------------  -----------------
       1       -0.000007549367     0.000010699463     0.000001792847
       2        0.000000205343    -0.000000692016     0.000014802760
       3       -0.000012609776     0.000013334996    -0.000014372751
       4        0.000002865787    -0.000008621861     0.000001289911
       5       -0.000000165443     0.000000215198     0.000002389016
       6       -0.000488766335    -0.000845426040    -0.000949587043
       7       -0.000002564594    -0.000004038910     0.000003034116
       8       -0.000008696545     0.000001843451    -0.000005054073
       9        0.000114193831     0.000289366671     0.001116338250
      10        0.000379774941     0.000635679253     0.000509185281
      11       -0.000005798457     0.000002482831     0.000003425776
      12        0.000017354305    -0.000080674900    -0.000680912702
      13        0.000008253996    -0.000016606474    -0.000001444955
      14       -0.000006250005     0.000000879533    -0.000005796436
      15        0.000016783301    -0.000000418823     0.000003716673
      16       -0.000005119014    -0.000008179373     0.000003131452
      17        0.000004191853     0.000004957545    -0.000000946091
      18       -0.000004951535     0.000002932594     0.000001234232
      19       -0.000001072843     0.000003326613    -0.000001237408
      20       -0.000000926657    -0.000000907600    -0.000000185949
      21       -0.000000052961    -0.000000734753    -0.000000468956
      22        0.000000900174     0.000000582604    -0.000000333949

  **** Optimization is complete! (in 6 steps) ****
    Final optimized geometry and variables:
    Molecular point group: c1

    Geometry (in Angstrom), charge = 0, multiplicity = 1:

    H            3.297521867958    -2.064964835933    -1.740877642662
    C            3.111091738575    -1.502703909335    -0.831499513816
    C            1.774379647316    -0.764857709811    -0.905157386567
    H            3.130524792666    -2.203723437454    -0.001511687487
    H            3.937091489028    -0.809705696701    -0.697369708718
    C            1.485718655589     0.035171224739     0.363333706223
    H            0.981628287610    -1.485716471844    -1.082760863032
    H            1.769366424602    -0.081296068261    -1.748801352188
    N            0.276350543127     0.834952029366     0.267528749150
    H            1.467023215970    -0.640150437988     1.225155589582
    H            2.311194305729     0.721513376876     0.528772318740
    C           -0.970804829963     0.098204600164     0.352671507021
    H            0.290950753857     1.534503306445     0.983607597757
    C           -2.165620058833     1.046356791837     0.325888585784
    H           -1.037405822564    -0.573882494090    -0.495917326048
    H           -1.020340205965    -0.527876305005     1.250275289001
    C           -3.504752323480     0.312715883306     0.382443148613
    H           -2.107571873307     1.650475810731    -0.574236955509
    H           -2.096902152311     1.734959229579     1.166624397934
    H           -3.620187709846    -0.359325717544    -0.463215900491
    H           -4.334313140789     1.012150608019     0.362640356958
    H           -3.593600486225    -0.278937700474     1.289217910436

  Mulliken Charges: (a.u.)
   Center  Symbol    Alpha    Beta     Spin     Total
       1     H     0.41793  0.41793  0.00000  0.16413
       2     C     3.24401  3.24401  0.00000 -0.48802
       3     C     3.15307  3.15307  0.00000 -0.30613
       4     H     0.42198  0.42198  0.00000  0.15604
       5     H     0.42173  0.42173  0.00000  0.15654
       6     C     3.05243  3.05243  0.00000 -0.10485
       7     H     0.42219  0.42219  0.00000  0.15561
       8     H     0.41455  0.41455  0.00000  0.17090
       9     N     3.85674  3.85674  0.00000 -0.71348
      10     H     0.43542  0.43542  0.00000  0.12915
      11     H     0.42151  0.42151  0.00000  0.15697
      12     C     3.05015  3.05015  0.00000 -0.10029
      13     H     0.33275  0.33275  0.00000  0.33450
      14     C     3.15647  3.15647  0.00000 -0.31294
      15     H     0.41979  0.41979  0.00000  0.16042
      16     H     0.43669  0.43669  0.00000  0.12662
      17     C     3.24301  3.24301  0.00000 -0.48603
      18     H     0.41285  0.41285  0.00000  0.17431
      19     H     0.42693  0.42693  0.00000  0.14615
      20     H     0.42060  0.42060  0.00000  0.15881
      21     H     0.41769  0.41769  0.00000  0.16461
      22     H     0.42151  0.42151  0.00000  0.15697

   Total alpha = 29.00000, Total beta = 29.00000, Total charge = -0.00000
