                              Psi4 1.0.54 Driver

  ==> Input File <==

--------------------------------------------------------------------------
set {
	reference rhf
	basis cc-pvtz
}

set_num_threads( 4 )
memory 2 gb

molecule MOL {
0 1

O	 3.238499	 0.738737	 -0.961798
C	 2.841259	 0.166180	 -0.000295
C	 1.542794	 -0.614730	 -0.000853
C	 3.613316	 0.179442	 1.299696
C	 0.288398	 0.247429	 0.000314
H	 1.557171	 -1.273139	 -0.866508
H	 1.557484	 -1.274998	 0.863344
C	 -0.993089	 -0.581367	 -0.000217
H	 0.305153	 0.900562	 -0.864701
H	 0.305567	 0.898805	 0.866656
C	 -2.258482	 0.271340	 0.000669
H	 -1.002280	 -1.233920	 -0.870484
H	 -1.002061	 -1.235367	 0.868958
C	 -3.544441	 -0.550271	 -0.000253
H	 -2.250545	 0.925250	 -0.867923
H	 -2.250598	 0.923423	 0.870642
C	 -4.804551	 0.308747	 0.000556
H	 -3.553737	 -1.201524	 -0.870151
H	 -3.553831	 -1.203282	 0.868313
H	 -4.842050	 0.949078	 -0.874436
H	 -5.698404	 -0.304480	 -0.000254
H	 -4.842277	 0.947103	 0.876982
H	 3.866598	 -0.832915	 1.594704
H	 4.515107	 0.760642	 1.184067
H	 3.005084	 0.602927	 2.091376

	symmetry c1
}
set optking {
	frozen_dihedral = ("
		1 2 3 6
	")
}

ee,wfn = optimize('scf', return_wfn=True)
oeprop( wfn, 'DIPOLE', 'QUADRUPOLE', 'MULLIKEN_CHARGES')
f=open( 'psi4out.xyz', 'w' )
f.write( "25  " )
f.write( str(ee) + "\n" )
f.write( MOL.save_string_xyz() )
f.close()
--------------------------------------------------------------------------

    Molecular point group: c1
  Charge       = 0
  Multiplicity = 1
  Basis Set: CC-PVTZ
  Basis Set:
  @DF-RHF Final Energy:  -387.27190186535756
    Total Energy =                       -387.2719018653577905
    Molecular point group: c1
  Basis Set: CC-PVTZ
  Basis Set:
  Basis Set: CC-PVTZ
  Basis Set:
  @DF-RHF Final Energy:  -387.27260630870961
    Total Energy =                       -387.2726063087097828
  Basis Set: CC-PVTZ
  Basis Set:
  Basis Set: CC-PVTZ
  Basis Set:
  @DF-RHF Final Energy:  -387.27283860876690
    Total Energy =                       -387.2728386087667332
  Basis Set: CC-PVTZ
  Basis Set:
  Basis Set: CC-PVTZ
  Basis Set:
  @DF-RHF Final Energy:  -387.27287107449547
    Total Energy =                       -387.2728710744955833
  Basis Set: CC-PVTZ
  Basis Set:
  Basis Set: CC-PVTZ
  Basis Set:
  @DF-RHF Final Energy:  -387.27287496318434
    Total Energy =                       -387.2728749631843357
  Basis Set: CC-PVTZ
  Basis Set:
  Basis Set: CC-PVTZ
  Basis Set:
  @DF-RHF Final Energy:  -387.27287678092546
    Total Energy =                       -387.2728767809257988
  Basis Set: CC-PVTZ
  Basis Set:
  Charge       = 0
  Multiplicity = 1
  Basis Set: CC-PVTZ
  Basis Set:

    Orbital Energies (a.u.)
    -----------------------

    Doubly Occupied:

       1A    -20.536591     2A    -11.319586     3A    -11.227714
       4A    -11.227194     5A    -11.225275     6A    -11.218638
       7A    -11.215904     8A    -11.214887     9A    -11.208403
      10A     -1.397064    11A     -1.098822    12A     -1.059313
      13A     -1.014526    14A     -0.971660    15A     -0.893621
      16A     -0.817067    17A     -0.794822    18A     -0.733378
      19A     -0.667930    20A     -0.649907    21A     -0.639129
      22A     -0.612807    23A     -0.604383    24A     -0.587625
      25A     -0.569717    26A     -0.559066    27A     -0.542004
      28A     -0.539284    29A     -0.510636    30A     -0.497839
      31A     -0.490929    32A     -0.475969    33A     -0.467045
      34A     -0.466377    35A     -0.453945    36A     -0.398110

  @DF-RHF Final Energy:  -387.27287696418637

   => Energetics <=

    Nuclear Repulsion Energy =            439.6964166528450733
    One-Electron Energy =               -1396.1242524612648594
    Two-Electron Energy =                 569.1549588442333061
    DFT Exchange-Correlation Energy =       0.0000000000000000
    Empirical Dispersion Energy =           0.0000000000000000
    PCM Polarization Energy =               0.0000000000000000
    EFP Energy =                            0.0000000000000000
    Total Energy =                       -387.2728769641864801
    Molecular point group: c1
  Basis Set: CC-PVTZ
  Basis Set:

  -Total Gradient:
     Atom            X                  Y                   Z
    ------   -----------------  -----------------  -----------------
       1       -0.000106113202     0.000195603506     0.000070209309
       2        0.000167641337    -0.000296520738    -0.000088373190
       3       -0.000151232103     0.000248828093    -0.000084495190
       4        0.000001705518     0.000009848456    -0.000023967402
       5       -0.000025771695     0.000006696653    -0.000011574170
       6        0.000100530838    -0.000153263829     0.000116213977
       7       -0.000010175263    -0.000000348008    -0.000006880629
       8        0.000021905310     0.000005013217     0.000011068237
       9        0.000008780404     0.000004414700    -0.000008932360
      10        0.000001579262    -0.000009168282     0.000000492216
      11       -0.000005997871    -0.000005591781     0.000005663322
      12        0.000000935639     0.000000700514     0.000006648049
      13       -0.000005509416     0.000000601167    -0.000000335657
      14       -0.000004270516     0.000004949557    -0.000005300702
      15        0.000001875679     0.000001036291     0.000001753784
      16        0.000001781456    -0.000003225433     0.000001507008
      17       -0.000003766827    -0.000003286013    -0.000004152927
      18       -0.000001534494    -0.000003025781     0.000000376907
      19        0.000001016269     0.000003022282    -0.000000690365
      20       -0.000000844363     0.000000276188     0.000000093646
      21       -0.000002467644     0.000001433975    -0.000000626577
      22        0.000000914478    -0.000000386111     0.000000313304
      23        0.000005820639    -0.000017399204     0.000007734552
      24        0.000009100001     0.000008653038     0.000008737424
      25       -0.000005903436     0.000001137544     0.000004517432

  **** Optimization is complete! (in 7 steps) ****
    Final optimized geometry and variables:
    Molecular point group: c1

    Geometry (in Angstrom), charge = 0, multiplicity = 1:

    O            3.132621289187     0.760936069037    -1.034516381810
    C            2.837969502107     0.143933656609    -0.063105420372
    C            1.574881719933    -0.696801359181    -0.028502220480
    C            3.686693392019     0.175706072909     1.184297918996
    C            0.321381198656     0.184110387349    -0.014826665595
    H            1.574635900706    -1.316621577440    -0.917705673758
    H            1.578852417180    -1.352951204458     0.834720186141
    C           -0.970294173210    -0.627763651621    -0.017538724094
    H            0.349504792244     0.837233432119    -0.878973719467
    H            0.339967834957     0.827346500729     0.861644879887
    C           -2.224824966962     0.240892170851    -0.008685809795
    H           -0.984643942995    -1.271214637946    -0.893574223721
    H           -0.984445176564    -1.288218788011     0.846211593305
    C           -3.520222299245    -0.565791750058    -0.019219736445
    H           -2.208191258503     0.903152723107    -0.870689128403
    H           -2.210942697026     0.883780997305     0.868351279683
    C           -4.770107481695     0.307910817441    -0.010973507541
    H           -3.535698295416    -1.207603639327    -0.895815739667
    H           -3.538059731075    -1.227584445533     0.842519217365
    H           -4.799086074740     0.957448689637    -0.879436700858
    H           -5.670842119563    -0.294990697880    -0.019172690042
    H           -4.801766946955     0.937556147625     0.872037876781
    H            4.071123209213    -0.818753222910     1.386764082652
    H            4.507317155674     0.865483954518     1.060570493372
    H            3.084053435116     0.464912754177     2.038893412961

  Mulliken Charges: (a.u.)
   Center  Symbol    Alpha    Beta     Spin     Total
       1     O     4.17806  4.17806  0.00000 -0.35613
       2     C     2.85827  2.85827  0.00000  0.28346
       3     C     3.10068  3.10068  0.00000 -0.20136
       4     C     3.15420  3.15420  0.00000 -0.30841
       5     C     3.09772  3.09772  0.00000 -0.19543
       6     H     0.44056  0.44056  0.00000  0.11887
       7     H     0.44878  0.44878  0.00000  0.10244
       8     C     3.09026  3.09026  0.00000 -0.18052
       9     H     0.43904  0.43904  0.00000  0.12191
      10     H     0.45355  0.45355  0.00000  0.09290
      11     C     3.08676  3.08676  0.00000 -0.17352
      12     H     0.45243  0.45243  0.00000  0.09515
      13     H     0.45462  0.45462  0.00000  0.09076
      14     C     3.08457  3.08457  0.00000 -0.16914
      15     H     0.45272  0.45272  0.00000  0.09456
      16     H     0.45505  0.45505  0.00000  0.08990
      17     C     3.15033  3.15033  0.00000 -0.30066
      18     H     0.45408  0.45408  0.00000  0.09185
      19     H     0.45500  0.45500  0.00000  0.09001
      20     H     0.45439  0.45439  0.00000  0.09122
      21     H     0.44820  0.44820  0.00000  0.10360
      22     H     0.45521  0.45521  0.00000  0.08958
      23     H     0.44859  0.44859  0.00000  0.10282
      24     H     0.43628  0.43628  0.00000  0.12743
      25     H     0.45065  0.45065  0.00000  0.09870

   Total alpha = 36.00000, Total beta = 36.00000, Total charge =  0.00000

*** Psi4 exiting successfully. Buy a developer a beer!
