                              Psi4 1.0.54 Driver

  ==> Input File <==

--------------------------------------------------------------------------
set {
	reference rhf
	basis cc-pvtz
}

set_num_threads( 4 )
memory 2 gb

molecule MOL {
0 1

H	 2.614283	 2.028610	 0.296620
O	 3.358864	 1.662087	 -0.142800
C	 3.565468	 0.338079	 0.273842
C	 2.533667	 -0.637565	 -0.272227
H	 4.548038	 0.064914	 -0.086598
H	 3.593945	 0.282242	 1.360360
C	 1.213186	 0.010439	 -0.682433
H	 2.965664	 -1.157316	 -1.122165
H	 2.344316	 -1.386565	 0.492982
C	 0.191103	 -1.003488	 -1.194425
H	 1.401531	 0.752992	 -1.450641
H	 0.792558	 0.541494	 0.169821
C	 -1.176947	 -0.418689	 -1.550380
H	 0.599672	 -1.514764	 -2.062697
H	 0.050810	 -1.766210	 -0.433477
C	 -1.184882	 0.521101	 -2.754736
H	 -1.857883	 -1.241500	 -1.749973
H	 -1.580198	 0.102470	 -0.684968
C	 -2.585245	 0.998977	 -3.130274
H	 -0.739881	 0.013362	 -3.607756
H	 -0.560878	 1.387396	 -2.556859
C	 -2.596399	 1.940439	 -4.330031
H	 -3.213094	 0.138023	 -3.342741
H	 -3.034500	 1.499054	 -2.276368
H	 -2.182499	 1.458442	 -5.209578
H	 -3.604423	 2.258057	 -4.571101
H	 -2.007402	 2.830611	 -4.135020

	symmetry c1
}
set optking {
	frozen_dihedral = ("
		8 4 3 2
	")
}

ee,wfn = optimize('scf', return_wfn=True)
oeprop( wfn, 'DIPOLE', 'QUADRUPOLE', 'MULLIKEN_CHARGES')
f=open( 'psi4out.xyz', 'w' )
f.write( "27  " )
f.write( str(ee) + "\n" )
f.write( MOL.save_string_xyz() )
f.close()
--------------------------------------------------------------------------

    Molecular point group: c1
  Charge       = 0
  Multiplicity = 1
  Basis Set: CC-PVTZ
  Basis Set:
  @DF-RHF Final Energy:  -388.42088231122756
    Total Energy =                       -388.4208823112275013
    Molecular point group: c1
  Basis Set: CC-PVTZ
  Basis Set:
  Basis Set: CC-PVTZ
  Basis Set:
  @DF-RHF Final Energy:  -388.42148323628919
    Total Energy =                       -388.4214832362896459
  Basis Set: CC-PVTZ
  Basis Set:
  Basis Set: CC-PVTZ
  Basis Set:
  @DF-RHF Final Energy:  -388.42185866753840
    Total Energy =                       -388.4218586675382312
  Basis Set: CC-PVTZ
  Basis Set:
  Basis Set: CC-PVTZ
  Basis Set:
  @DF-RHF Final Energy:  -388.42186540566553
    Total Energy =                       -388.4218654056655851
  Basis Set: CC-PVTZ
  Basis Set:
  Basis Set: CC-PVTZ
  Basis Set:
  @DF-RHF Final Energy:  -388.42186760363705
    Total Energy =                       -388.4218676036373381
  Basis Set: CC-PVTZ
  Basis Set:
  Basis Set: CC-PVTZ
  Basis Set:
  @DF-RHF Final Energy:  -388.42186865672181
    Total Energy =                       -388.4218686567215855
  Basis Set: CC-PVTZ
  Basis Set:
  Charge       = 0
  Multiplicity = 1
  Basis Set: CC-PVTZ
  Basis Set:

    Orbital Energies (a.u.)
    -----------------------

    Doubly Occupied:

       1A    -20.544955     2A    -11.265773     3A    -11.215384
       4A    -11.213938     5A    -11.213649     6A    -11.212595
       7A    -11.212178     8A    -11.210160     9A    -11.205889
      10A     -1.363165    11A     -1.094637    12A     -1.060108
      13A     -1.009824    14A     -0.948517    15A     -0.889315
      16A     -0.820035    17A     -0.799951    18A     -0.776675
      19A     -0.694339    20A     -0.648529    21A     -0.637528
      22A     -0.617303    23A     -0.603587    24A     -0.585902
      25A     -0.576397    26A     -0.555952    27A     -0.543127
      28A     -0.528054    29A     -0.503842    30A     -0.495512
      31A     -0.482785    32A     -0.472531    33A     -0.467486
      34A     -0.460010    35A     -0.445430    36A     -0.443712
      37A     -0.424753

  @DF-RHF Final Energy:  -388.42186860211388

   => Energetics <=

    Nuclear Repulsion Energy =            461.2852193679937614
    One-Electron Energy =               -1440.9271280199395733
    Two-Electron Energy =                 591.2200400498315958
    DFT Exchange-Correlation Energy =       0.0000000000000000
    Empirical Dispersion Energy =           0.0000000000000000
    PCM Polarization Energy =               0.0000000000000000
    EFP Energy =                            0.0000000000000000
    Total Energy =                       -388.4218686021142730
    Molecular point group: c1
  Basis Set: CC-PVTZ
  Basis Set:

  -Total Gradient:
     Atom            X                  Y                   Z
    ------   -----------------  -----------------  -----------------
       1        0.000001193777     0.000051689237    -0.000024176226
       2       -0.002814299448     0.000887106385     0.003652860909
       3        0.004289684625    -0.002185227375    -0.004184683226
       4       -0.003319265906     0.005308968680    -0.003047803062
       5        0.000012881904    -0.000058867763     0.000023917772
       6       -0.000007167102    -0.000005156950    -0.000022460618
       7       -0.000019775895     0.000011146332    -0.000023386851
       8        0.001852307965    -0.004019484099     0.003605723859
       9       -0.000012142226     0.000014861513     0.000000081947
      10       -0.000006953572    -0.000010763962     0.000015243282
      11       -0.000014508495     0.000015709231    -0.000008717608
      12        0.000001528725    -0.000001120768    -0.000007530175
      13        0.000004129814    -0.000002660029     0.000003110590
      14       -0.000002056487    -0.000007920515     0.000003928265
      15       -0.000001050203     0.000000747764     0.000005267675
      16        0.000010966488    -0.000007210568    -0.000001729780
      17        0.000015884540     0.000001372990    -0.000005427067
      18       -0.000008482565    -0.000007558599    -0.000002125256
      19       -0.000001127385     0.000009136870     0.000003959614
      20       -0.000006715580     0.000000011254     0.000006820543
      21        0.000020481411     0.000002777541     0.000005021773
      22        0.000002127704     0.000003153895     0.000002291713
      23        0.000006760905     0.000003949236    -0.000000124472
      24       -0.000001077094    -0.000001549454    -0.000004604338
      25       -0.000001941228     0.000001298033     0.000005612225
      26        0.000002031619     0.000000027688     0.000000240655
      27       -0.000003416291    -0.000004436568    -0.000001312143

  **** Optimization is complete! (in 7 steps) ****
    Final optimized geometry and variables:
    Molecular point group: c1

    Geometry (in Angstrom), charge = 0, multiplicity = 1:

    H            2.268987065736     1.691934493379     1.724861217031
    O            3.041707469607     1.316316020272     1.346715554173
    C            3.187739032467    -0.013360288505     1.770336768849
    C            2.137665958405    -0.991516356721     1.211221227024
    H            4.178162496419    -0.318761991795     1.465452689340
    H            3.165798943082    -0.045790776217     2.856685275642
    C            0.801603399537    -0.369589170765     0.817598589140
    H            2.557838482858    -1.544391202265     0.376774116847
    H            1.959661352929    -1.744577109539     1.975089592318
    C           -0.206406459062    -1.413178048005     0.338788512815
    H            0.966735169245     0.371388546755     0.046668551261
    H            0.377766485177     0.157391552004     1.672033755227
    C           -1.589343023903    -0.858957567676    -0.008644702272
    H            0.199997062606    -1.930165014547    -0.527187968360
    H           -0.322591636757    -2.166594182472     1.112879691190
    C           -1.628969879161     0.059912938166    -1.228350225974
    H           -2.258234484778    -1.696708733193    -0.185429879168
    H           -1.990840711765    -0.330431234302     0.853184945723
    C           -3.040971010044     0.515148404224    -1.587750143069
    H           -1.193110420114    -0.457975472321    -2.079912584248
    H           -1.011112693877     0.935856209672    -1.056787972188
    C           -3.083660791636     1.434392575833    -2.803854528537
    H           -3.662843376462    -0.356304950403    -1.773473044217
    H           -3.480918489718     1.025910354933    -0.735336460506
    H           -2.680921942033     0.940491487524    -3.681933321732
    H           -4.099086531512     1.737559903979    -3.032102074354
    H           -2.500142526701     2.333512622672    -2.635851879736

  Mulliken Charges: (a.u.)
   Center  Symbol    Alpha    Beta     Spin     Total
       1     H     0.39038  0.39038  0.00000  0.21924
       2     O     4.20394  4.20394  0.00000 -0.40789
       3     C     2.97626  2.97626  0.00000  0.04749
       4     C     3.10060  3.10060  0.00000 -0.20121
       5     H     0.45195  0.45195  0.00000  0.09610
       6     H     0.46823  0.46823  0.00000  0.06354
       7     C     3.10006  3.10006  0.00000 -0.20012
       8     H     0.45171  0.45171  0.00000  0.09658
       9     H     0.45540  0.45540  0.00000  0.08920
      10     C     3.10110  3.10110  0.00000 -0.20220
      11     H     0.43977  0.43977  0.00000  0.12046
      12     H     0.46138  0.46138  0.00000  0.07723
      13     C     3.09802  3.09802  0.00000 -0.19605
      14     H     0.45222  0.45222  0.00000  0.09556
      15     H     0.44843  0.44843  0.00000  0.10314
      16     C     3.08828  3.08828  0.00000 -0.17656
      17     H     0.44821  0.44821  0.00000  0.10357
      18     H     0.45453  0.45453  0.00000  0.09095
      19     C     3.08414  3.08414  0.00000 -0.16827
      20     H     0.45459  0.45459  0.00000  0.09082
      21     H     0.45315  0.45315  0.00000  0.09370
      22     C     3.14960  3.14960  0.00000 -0.29919
      23     H     0.45415  0.45415  0.00000  0.09170
      24     H     0.45505  0.45505  0.00000  0.08991
      25     H     0.45503  0.45503  0.00000  0.08993
      26     H     0.44863  0.44863  0.00000  0.10274
      27     H     0.45519  0.45519  0.00000  0.08962

   Total alpha = 37.00000, Total beta = 37.00000, Total charge =  0.00000

*** Psi4 exiting successfully. Buy a developer a beer!
