                              Psi4 1.0.54 Driver

  ==> Input File <==

--------------------------------------------------------------------------
set {
	reference rhf
	basis cc-pvtz
}

set_num_threads( 4 )
memory 2 gb

molecule MOL {
0 1

H	 -3.162190	 0.493205	 -0.000107
C	 -2.363908	 -0.234727	 0.000005
O	 -1.158738	 0.454634	 -0.000087
H	 -2.464314	 -0.863616	 -0.882153
H	 -2.464327	 -0.863359	 0.882345
C	 -0.028611	 -0.359694	 0.000037
C	 1.212847	 0.509314	 -0.000053
H	 -0.034155	 -1.007047	 -0.877198
H	 -0.034195	 -1.006836	 0.877430
C	 1.593456	 0.980866	 -1.399026
H	 1.037743	 1.361878	 0.646784
H	 2.028797	 -0.054002	 0.439098
H	 0.799279	 1.568006	 -1.848066
H	 2.482353	 1.598951	 -1.369797
H	 1.797244	 0.142687	 -2.057050

	symmetry c1
}
set optking {
	frozen_dihedral = ("
		11 7 6 8
	")
}

ee,wfn = optimize('scf', return_wfn=True)
oeprop( wfn, 'DIPOLE', 'QUADRUPOLE', 'MULLIKEN_CHARGES')
f=open( 'psi4out.xyz', 'w' )
f.write( "15  " )
f.write( str(ee) + "\n" )
f.write( MOL.save_string_xyz() )
f.close()
--------------------------------------------------------------------------

    Molecular point group: c1
  Charge       = 0
  Multiplicity = 1
  Basis Set: CC-PVTZ
  Basis Set:
  @DF-RHF Final Energy:  -232.22641003850580
    Total Energy =                       -232.2264100385058896
    Molecular point group: c1
  Basis Set: CC-PVTZ
  Basis Set:
  Basis Set: CC-PVTZ
  Basis Set:
  @DF-RHF Final Energy:  -232.22673470115259
    Total Energy =                       -232.2267347011524521
  Basis Set: CC-PVTZ
  Basis Set:
  Basis Set: CC-PVTZ
  Basis Set:
  @DF-RHF Final Energy:  -232.22680070080250
    Total Energy =                       -232.2268007008024142
  Basis Set: CC-PVTZ
  Basis Set:
  Basis Set: CC-PVTZ
  Basis Set:
  @DF-RHF Final Energy:  -232.22680229704989
    Total Energy =                       -232.2268022970499715
  Basis Set: CC-PVTZ
  Basis Set:
  Charge       = 0
  Multiplicity = 1
  Basis Set: CC-PVTZ
  Basis Set:

    Orbital Energies (a.u.)
    -----------------------

    Doubly Occupied:

       1A    -20.547503     2A    -11.264788     3A    -11.261812
       4A    -11.213175     5A    -11.204020     6A     -1.381207
       7A     -1.055314     8A     -0.952176     9A     -0.883316
      10A     -0.803265    11A     -0.670771    12A     -0.663947
      13A     -0.633388    14A     -0.587027    15A     -0.576009
      16A     -0.546502    17A     -0.496323    18A     -0.484173
      19A     -0.483028    20A     -0.461504    21A     -0.415771

  @DF-RHF Final Energy:  -232.22680251199489

   => Energetics <=

    Nuclear Repulsion Energy =            192.4097444314891732
    One-Electron Energy =                -696.1030531968964397
    Two-Electron Energy =                 271.4665062534124900
    DFT Exchange-Correlation Energy =       0.0000000000000000
    Empirical Dispersion Energy =           0.0000000000000000
    PCM Polarization Energy =               0.0000000000000000
    EFP Energy =                            0.0000000000000000
    Total Energy =                       -232.2268025119947765
    Molecular point group: c1
  Basis Set: CC-PVTZ
  Basis Set:

  -Total Gradient:
     Atom            X                  Y                   Z
    ------   -----------------  -----------------  -----------------
       1        0.000007262827    -0.000000035146     0.000002949181
       2       -0.000020758850    -0.000010808013    -0.000001370948
       3        0.000014985522    -0.000006929422    -0.000002022525
       4        0.000001151113     0.000002560176     0.000003479263
       5       -0.000003212653     0.000001199137    -0.000002108396
       6        0.002060662127    -0.002905854236     0.001793404726
       7        0.001271781395    -0.001673526222     0.003106930607
       8       -0.001909357875     0.002666200348    -0.001937873955
       9        0.000004561373    -0.000002425052    -0.000005434662
      10       -0.000008445724     0.000006659003    -0.000015896356
      11       -0.001404146951     0.001919280614    -0.002934008284
      12       -0.000021560183     0.000002016681    -0.000004930397
      13       -0.000000942993    -0.000002216739    -0.000007094506
      14        0.000006282045    -0.000001260080     0.000001501498
      15        0.000001738825     0.000005138952     0.000002474756

  **** Optimization is complete! (in 5 steps) ****
    Final optimized geometry and variables:
    Molecular point group: c1

    Geometry (in Angstrom), charge = 0, multiplicity = 1:

    H           -2.969714885985     0.229333376414     0.227357499721
    C           -2.173384248299    -0.500893022170     0.237814976727
    O           -0.966952755218     0.183676351070     0.284837038752
    H           -2.250458750393    -1.114650103022    -0.657347856185
    H           -2.301473244580    -1.144471438994     1.105939008010
    C            0.163196440065    -0.637525311989     0.313997701740
    C            1.405330168524     0.238336041150     0.291660350362
    H            0.145257101854    -1.290559161880    -0.558230667974
    H            0.143745050935    -1.260271491606     1.206237681637
    C            1.747879254284     0.752591461203    -1.104205753167
    H            1.220454043097     1.087441134066     0.939570543776
    H            2.243615707784    -0.317395194255     0.697982238701
    H            0.913792240190     1.299361539488    -1.526939165282
    H            2.603274455906     1.417648896159    -1.074963471813
    H            1.987987660332    -0.065366471758    -1.775676435809

  Mulliken Charges: (a.u.)
   Center  Symbol    Alpha    Beta     Spin     Total
       1     H     0.44727  0.44727  0.00000  0.10546
       2     C     3.03231  3.03231  0.00000 -0.06463
       3     O     4.17602  4.17602  0.00000 -0.35203
       4     H     0.47218  0.47218  0.00000  0.05564
       5     H     0.47181  0.47181  0.00000  0.05637
       6     C     2.96740  2.96740  0.00000  0.06521
       7     C     3.07959  3.07959  0.00000 -0.15918
       8     H     0.47577  0.47577  0.00000  0.04846
       9     H     0.46527  0.46527  0.00000  0.06945
      10     C     3.15121  3.15121  0.00000 -0.30243
      11     H     0.45126  0.45126  0.00000  0.09748
      12     H     0.45403  0.45403  0.00000  0.09193
      13     H     0.44786  0.44786  0.00000  0.10429
      14     H     0.45000  0.45000  0.00000  0.10000
      15     H     0.45802  0.45802  0.00000  0.08396

   Total alpha = 21.00000, Total beta = 21.00000, Total charge = -0.00000

*** Psi4 exiting successfully. Buy a developer a beer!
