                              Psi4 1.0.54 Driver

  ==> Input File <==

--------------------------------------------------------------------------
set {
	reference rhf
	basis cc-pvtz
}

set_num_threads( 4 )
memory 2 gb

molecule MOL {
0 1

H	 -1.540159	 -1.542221	 -3.040581
C	 -2.263049	 -1.198815	 -2.287993
C	 -2.008545	 -1.697072	 -0.891262
O	 -3.161506	 -0.499842	 -2.606614
C	 -0.573499	 -1.439445	 -0.422276
H	 -2.732915	 -1.244302	 -0.226716
H	 -2.192611	 -2.769083	 -0.905955
C	 -0.247837	 0.040196	 -0.230469
H	 -0.418522	 -1.966727	 0.512761
H	 0.121846	 -1.877275	 -1.134312
C	 1.181757	 0.280428	 0.247371
H	 -0.945074	 0.466907	 0.485692
H	 -0.409096	 0.576372	 -1.162101
C	 2.151032	 -0.811012	 -0.202643
H	 1.515939	 1.247397	 -0.115449
H	 1.191514	 0.341223	 1.333422
C	 3.580021	 -0.656538	 0.320835
H	 2.170545	 -0.847575	 -1.289412
H	 1.766632	 -1.772905	 0.124928
C	 4.327657	 0.562694	 -0.213579
H	 4.138806	 -1.549270	 0.057813
H	 3.561991	 -0.620783	 1.406976
H	 4.355973	 0.557257	 -1.298551
H	 3.867136	 1.491650	 0.100501
H	 5.351524	 0.571613	 0.142204

	symmetry c1
}
set optking {
	frozen_dihedral = ("
		12 8 11 14
	")
}

ee,wfn = optimize('scf', return_wfn=True)
oeprop( wfn, 'DIPOLE', 'QUADRUPOLE', 'MULLIKEN_CHARGES')
f=open( 'psi4out.xyz', 'w' )
f.write( "25  " )
f.write( str(ee) + "\n" )
f.write( MOL.save_string_xyz() )
f.close()
--------------------------------------------------------------------------

    Molecular point group: c1
  Charge       = 0
  Multiplicity = 1
  Basis Set: CC-PVTZ
  Basis Set:
  @DF-RHF Final Energy:  -387.25028688304599
    Total Energy =                       -387.2502868830465559
    Molecular point group: c1
  Basis Set: CC-PVTZ
  Basis Set:
  Basis Set: CC-PVTZ
  Basis Set:
  @DF-RHF Final Energy:  -387.24883752271842
    Total Energy =                       -387.2488375227183042
  Basis Set: CC-PVTZ
  Basis Set:
  Basis Set: CC-PVTZ
  Basis Set:
  @DF-RHF Final Energy:  -387.25296944636239
    Total Energy =                       -387.2529694463621581
  Basis Set: CC-PVTZ
  Basis Set:
  Basis Set: CC-PVTZ
  Basis Set:
  @DF-RHF Final Energy:  -387.25364154150526
    Total Energy =                       -387.2536415415049760
  Basis Set: CC-PVTZ
  Basis Set:
  @DF-RHF Final Energy:  -387.25329258966218
    Total Energy =                       -387.2532925896621236
  @DF-RHF Final Energy:  -387.25347666520702
    Total Energy =                       -387.2534766652071312
  @DF-RHF Final Energy:  -387.25368822545533
    Total Energy =                       -387.2536882254553348
  Basis Set: CC-PVTZ
  Basis Set:
  @DF-RHF Final Energy:  -387.25370221431456
    Total Energy =                       -387.2537022143143304
  Basis Set: CC-PVTZ
  Basis Set:
  Basis Set: CC-PVTZ
  Basis Set:
  @DF-RHF Final Energy:  -387.25370813751397
    Total Energy =                       -387.2537081375137404
  Basis Set: CC-PVTZ
  Basis Set:
  Basis Set: CC-PVTZ
  Basis Set:
  @DF-RHF Final Energy:  -387.25371000532209
    Total Energy =                       -387.2537100053223185
  Basis Set: CC-PVTZ
  Basis Set:
  Charge       = 0
  Multiplicity = 1
  Basis Set: CC-PVTZ
  Basis Set:

    Orbital Energies (a.u.)
    -----------------------

    Doubly Occupied:

       1A    -20.551032     2A    -11.320725     3A    -11.233317
       4A    -11.231962     5A    -11.222728     6A    -11.218370
       7A    -11.217699     8A    -11.216914     9A    -11.209351
      10A     -1.406067    11A     -1.104591    12A     -1.070143
      13A     -1.012382    14A     -0.941432    15A     -0.885510
      16A     -0.823468    17A     -0.794038    18A     -0.768228
      19A     -0.668169    20A     -0.657260    21A     -0.636371
      22A     -0.630186    23A     -0.609356    24A     -0.590464
      25A     -0.576328    26A     -0.556182    27A     -0.538735
      28A     -0.526809    29A     -0.518927    30A     -0.499683
      31A     -0.484366    32A     -0.480778    33A     -0.457774
      34A     -0.453107    35A     -0.448760    36A     -0.411130

  @DF-RHF Final Energy:  -387.25370985029292

   => Energetics <=

    Nuclear Repulsion Energy =            444.6029273998495910
    One-Electron Energy =               -1405.7685823857952983
    Two-Electron Energy =                 573.9119451356528998
    DFT Exchange-Correlation Energy =       0.0000000000000000
    Empirical Dispersion Energy =           0.0000000000000000
    PCM Polarization Energy =               0.0000000000000000
    EFP Energy =                            0.0000000000000000
    Total Energy =                       -387.2537098502928075
    Molecular point group: c1
  Basis Set: CC-PVTZ
  Basis Set:

  -Total Gradient:
     Atom            X                  Y                   Z
    ------   -----------------  -----------------  -----------------
       1       -0.000005050358    -0.000005624487    -0.000005528521
       2        0.000014395803    -0.000004504729     0.000004236778
       3       -0.000021817480    -0.000013842147     0.000014013274
       4       -0.000001663543    -0.000001853783    -0.000005089675
       5        0.000017067768     0.000006151623    -0.000041763667
       6        0.000005288042     0.000009826290    -0.000003462393
       7        0.000006503460     0.000006626883     0.000015026473
       8       -0.000684510506     0.005502062555    -0.001926222449
       9       -0.000002738374    -0.000010643292    -0.000005276563
      10       -0.000009792686     0.000006999390    -0.000002402713
      11        0.001011313521     0.002428553381    -0.004903171158
      12        0.000308567643    -0.005434756189     0.003011438279
      13        0.000014344618     0.000004237106     0.000012003761
      14       -0.000649019982    -0.002500493658     0.003856214354
      15        0.000006005040    -0.000023217595    -0.000023589704
      16       -0.000005348758     0.000032090018    -0.000000194101
      17       -0.000003565269    -0.000003099544     0.000005041775
      18        0.000009806124     0.000004136107     0.000000595914
      19       -0.000010014398    -0.000003156090    -0.000001603808
      20        0.000001272891     0.000004201730    -0.000002353084
      21       -0.000005714558     0.000001234568     0.000004424338
      22       -0.000000606608    -0.000000089400     0.000003177387
      23        0.000001763719     0.000002942420    -0.000002180478
      24        0.000010477624    -0.000005997456    -0.000001794081
      25       -0.000006963736    -0.000001783697    -0.000001539938

  **** Optimization is complete! (in 11 steps) ****
    Final optimized geometry and variables:
    Molecular point group: c1

    Geometry (in Angstrom), charge = 0, multiplicity = 1:

    H           -2.046886394806    -1.104434545364    -2.253423820950
    C           -2.715479574651    -0.769981957465    -1.448377354933
    C           -2.347564070033    -1.260511545727    -0.074224511899
    O           -3.647247175932    -0.087075123295    -1.698936782568
    C           -0.879414011404    -0.998844816425     0.276881527613
    H           -3.019019913739    -0.808093289312     0.643962563746
    H           -2.528886289676    -2.333176104120    -0.070858690429
    C           -0.567384141458     0.491880493482     0.437325096369
    H           -0.653293704910    -1.521515746076     1.199959725103
    H           -0.249415108332    -1.443416951027    -0.486254370063
    C            0.863272805653     0.832983942740     0.900603241368
    H           -1.260672462286     0.865505985995     1.183793154660
    H           -0.787034845973     1.006104313449    -0.492724556502
    C            1.971409583731    -0.127066257090     0.464741626883
    H            1.092839085121     1.839763856687     0.574233989289
    H            0.872864528707     0.863973908497     1.987387480888
    C            3.367635909337     0.279917465635     0.942362640133
    H            1.983373725086    -0.217282936924    -0.619769716497
    H            1.758502502485    -1.117194325668     0.850458917655
    C            3.926469015782     1.542593985555     0.290805487465
    H            4.048799120852    -0.541659993168     0.743383714839
    H            3.354205639711     0.406013069873     2.021859747316
    H            3.949396744485     1.444887376226    -0.789840992051
    H            3.339200183877     2.420357642321     0.530999312611
    H            4.940322327486     1.729616190827     0.625567759178

  Mulliken Charges: (a.u.)
   Center  Symbol    Alpha    Beta     Spin     Total
       1     H     0.46430  0.46430  0.00000  0.07139
       2     C     2.90508  2.90508  0.00000  0.18983
       3     C     3.08876  3.08876  0.00000 -0.17752
       4     O     4.16645  4.16645  0.00000 -0.33289
       5     C     3.12274  3.12274  0.00000 -0.24547
       6     H     0.44326  0.44326  0.00000  0.11349
       7     H     0.43985  0.43985  0.00000  0.12030
       8     C     3.09459  3.09459  0.00000 -0.18918
       9     H     0.44226  0.44226  0.00000  0.11548
      10     H     0.44550  0.44550  0.00000  0.10900
      11     C     3.09875  3.09875  0.00000 -0.19750
      12     H     0.44603  0.44603  0.00000  0.10794
      13     H     0.44617  0.44617  0.00000  0.10766
      14     C     3.10155  3.10155  0.00000 -0.20311
      15     H     0.44484  0.44484  0.00000  0.11031
      16     H     0.45220  0.45220  0.00000  0.09560
      17     C     3.09056  3.09056  0.00000 -0.18112
      18     H     0.45358  0.45358  0.00000  0.09283
      19     H     0.44489  0.44489  0.00000  0.11022
      20     C     3.15156  3.15156  0.00000 -0.30311
      21     H     0.44806  0.44806  0.00000  0.10388
      22     H     0.45441  0.45441  0.00000  0.09119
      23     H     0.45476  0.45476  0.00000  0.09049
      24     H     0.45368  0.45368  0.00000  0.09263
      25     H     0.44617  0.44617  0.00000  0.10767

   Total alpha = 36.00000, Total beta = 36.00000, Total charge =  0.00000

*** Psi4 exiting successfully. Buy a developer a beer!
