                              Psi4 1.0.54 Driver

  ==> Input File <==

--------------------------------------------------------------------------
set {
	reference rhf
	basis cc-pvtz
}

set_num_threads( 4 )
memory 2 gb

molecule MOL {
0 1

H	 1.707344	 -1.258646	 1.460776
C	 1.830917	 -0.334180	 0.881341
C	 0.586743	 0.496846	 0.732261
O	 2.886177	 -0.059020	 0.424890
C	 -0.554654	 -0.292621	 0.086567
H	 0.830873	 1.379519	 0.155957
H	 0.286818	 0.815391	 1.728480
C	 -1.846385	 0.513195	 -0.016346
H	 -0.249839	 -0.614112	 -0.905234
H	 -0.740646	 -1.197144	 0.660081
C	 -3.089953	 -0.365049	 -0.098564
H	 -1.798267	 1.154820	 -0.891143
H	 -1.925398	 1.173265	 0.842889
H	 -3.055079	 -1.012299	 -0.968245
H	 -3.988403	 0.236438	 -0.170014
H	 -3.183055	 -0.995885	 0.779079

	symmetry c1
}
set optking {
	frozen_dihedral = ("
		9 5 8 12
	")
}

ee,wfn = optimize('scf', return_wfn=True)
oeprop( wfn, 'DIPOLE', 'QUADRUPOLE', 'MULLIKEN_CHARGES')
f=open( 'psi4out.xyz', 'w' )
f.write( "16  " )
f.write( str(ee) + "\n" )
f.write( MOL.save_string_xyz() )
f.close()
--------------------------------------------------------------------------

    Molecular point group: c1
  Charge       = 0
  Multiplicity = 1
  Basis Set: CC-PVTZ
  Basis Set:
  @DF-RHF Final Energy:  -270.11713527812833
    Total Energy =                       -270.1171352781283304
    Molecular point group: c1
  Basis Set: CC-PVTZ
  Basis Set:
  Basis Set: CC-PVTZ
  Basis Set:
  @DF-RHF Final Energy:  -270.11730342447800
    Total Energy =                       -270.1173034244778819
  Basis Set: CC-PVTZ
  Basis Set:
  Basis Set: CC-PVTZ
  Basis Set:
  @DF-RHF Final Energy:  -270.11732822558673
    Total Energy =                       -270.1173282255867321
  Basis Set: CC-PVTZ
  Basis Set:
  Basis Set: CC-PVTZ
  Basis Set:
  @DF-RHF Final Energy:  -270.11719845751202
    Total Energy =                       -270.1171984575120177
  Basis Set: CC-PVTZ
  Basis Set:
  Basis Set: CC-PVTZ
  Basis Set:
  @DF-RHF Final Energy:  -270.11741572021288
    Total Energy =                       -270.1174157202128754
  Basis Set: CC-PVTZ
  Basis Set:
  Basis Set: CC-PVTZ
  Basis Set:
  @DF-RHF Final Energy:  -270.11741774891772
    Total Energy =                       -270.1174177489178874
  Basis Set: CC-PVTZ
  Basis Set:
  Charge       = 0
  Multiplicity = 1
  Basis Set: CC-PVTZ
  Basis Set:

    Orbital Energies (a.u.)
    -----------------------

    Doubly Occupied:

       1A    -20.551991     2A    -11.321070     3A    -11.234750
       4A    -11.233822     5A    -11.227526     6A    -11.216829
       7A     -1.406693     8A     -1.097175     9A     -1.019926
      10A     -0.906390    11A     -0.812434    12A     -0.793656
      13A     -0.682632    14A     -0.645781    15A     -0.634680
      16A     -0.608416    17A     -0.580890    18A     -0.550158
      19A     -0.533559    20A     -0.508923    21A     -0.488343
      22A     -0.483171    23A     -0.478866    24A     -0.411151

  @DF-RHF Final Energy:  -270.11741787210138

   => Energetics <=

    Nuclear Repulsion Energy =            229.3468365273240011
    One-Electron Energy =                -820.0708455986515446
    Two-Electron Energy =                 320.6065911992263864
    DFT Exchange-Correlation Energy =       0.0000000000000000
    Empirical Dispersion Energy =           0.0000000000000000
    PCM Polarization Energy =               0.0000000000000000
    EFP Energy =                            0.0000000000000000
    Total Energy =                       -270.1174178721012140
    Molecular point group: c1
  Basis Set: CC-PVTZ
  Basis Set:

  -Total Gradient:
     Atom            X                  Y                   Z
    ------   -----------------  -----------------  -----------------
       1        0.000000876654     0.000052721502    -0.000019891745
       2        0.000014656775    -0.000055341840    -0.000019722900
       3       -0.000018606276    -0.000014680307    -0.000010307286
       4        0.000007488891     0.000003843358     0.000028465527
       5       -0.003035889931    -0.004765196797     0.000044494917
       6        0.000003186351    -0.000023293369     0.000014539144
       7       -0.000013013136     0.000001920510    -0.000034149117
       8        0.002539676939     0.004320319419     0.002674057172
       9        0.002192363518     0.003356176266    -0.000404200032
      10        0.000009469494    -0.000018044726    -0.000015638850
      11        0.000024540907     0.000032813964    -0.000017148575
      12       -0.001674784859    -0.002912897117    -0.002216801467
      13       -0.000003837109     0.000005651965    -0.000021307590
      14        0.000015605510    -0.000014590318    -0.000032007523
      15       -0.000080223154     0.000036418861    -0.000011668797
      16        0.000018489423    -0.000005821372     0.000041287121

  **** Optimization is complete! (in 7 steps) ****
    Final optimized geometry and variables:
    Molecular point group: c1

    Geometry (in Angstrom), charge = 0, multiplicity = 1:

    H            1.787628475853    -1.237782613809     1.116942565571
    C            1.881289847347    -0.315851150009     0.527925752045
    C            0.624974846587     0.503092388403     0.421090325343
    O            2.916238325652    -0.035101184310     0.030020844288
    C           -0.529753230553    -0.298619723256    -0.189837427638
    H            0.840877875480     1.388412112766    -0.162834101531
    H            0.353694017202     0.818225183037     1.426227335876
    C           -1.815056711690     0.524130679682    -0.310475167456
    H           -0.221488522966    -0.627304883013    -1.177466250714
    H           -0.710675440317    -1.186660213739     0.408217522010
    C           -3.060950399338    -0.347082950441    -0.448444548708
    H           -1.747255805320     1.158508739095    -1.188257379134
    H           -1.922742468217     1.174591228866     0.551291889621
    H           -2.982330449675    -1.007708239702    -1.305595341194
    H           -3.949647460672     0.259259363663    -0.579610005294
    H           -3.207080765816    -0.964371852472     0.431548102496

  Mulliken Charges: (a.u.)
   Center  Symbol    Alpha    Beta     Spin     Total
       1     H     0.46538  0.46538  0.00000  0.06924
       2     C     2.91037  2.91037  0.00000  0.17925
       3     C     3.07727  3.07727  0.00000 -0.15454
       4     O     4.16393  4.16393  0.00000 -0.32785
       5     C     3.10263  3.10263  0.00000 -0.20526
       6     H     0.44238  0.44238  0.00000  0.11523
       7     H     0.45042  0.45042  0.00000  0.09917
       8     C     3.08461  3.08461  0.00000 -0.16923
       9     H     0.44477  0.44477  0.00000  0.11046
      10     H     0.45184  0.45184  0.00000  0.09632
      11     C     3.14845  3.14845  0.00000 -0.29690
      12     H     0.44925  0.44925  0.00000  0.10149
      13     H     0.45327  0.45327  0.00000  0.09346
      14     H     0.45315  0.45315  0.00000  0.09370
      15     H     0.44713  0.44713  0.00000  0.10575
      16     H     0.45514  0.45514  0.00000  0.08972

   Total alpha = 24.00000, Total beta = 24.00000, Total charge = -0.00000

*** Psi4 exiting successfully. Buy a developer a beer!
