                              Psi4 1.0.54 Driver

  ==> Input File <==

--------------------------------------------------------------------------
set {
	reference rhf
	basis cc-pvtz
}

set_num_threads( 4 )
memory 2 gb

molecule MOL {
0 1

O	 -2.081319	 -0.951530	 -0.502732
N	 -1.613558	 0.006676	 0.014756
C	 -0.329345	 -0.171618	 0.743966
O	 -2.068523	 1.100482	 -0.024385
C	 -0.601896	 -0.282512	 2.238792
H	 0.269799	 0.692233	 0.509004
H	 0.115735	 -1.069833	 0.349828
C	 0.691613	 -0.468718	 3.027670
H	 -1.112828	 0.613748	 2.570791
H	 -1.266679	 -1.120432	 2.413981
C	 0.446134	 -0.589833	 4.527521
H	 1.354919	 0.369670	 2.836445
H	 1.206167	 -1.356802	 2.672777
H	 -0.037641	 0.298834	 4.917302
H	 -0.189380	 -1.439171	 4.752157
H	 1.378351	 -0.722100	 5.062907

	symmetry c1
}
set optking {
	frozen_dihedral = ("
		5 3 2 1
	")
}

ee,wfn = optimize('scf', return_wfn=True)
oeprop( wfn, 'DIPOLE', 'QUADRUPOLE', 'MULLIKEN_CHARGES')
f=open( 'psi4out.xyz', 'w' )
f.write( "16  " )
f.write( str(ee) + "\n" )
f.write( MOL.save_string_xyz() )
f.close()
--------------------------------------------------------------------------

    Molecular point group: c1
  Charge       = 0
  Multiplicity = 1
  Basis Set: CC-PVTZ
  Basis Set:
  @DF-RHF Final Energy:  -360.90930328688148
    Total Energy =                       -360.9093032868814817
    Molecular point group: c1
  Basis Set: CC-PVTZ
  Basis Set:
  Basis Set: CC-PVTZ
  Basis Set:
  @DF-RHF Final Energy:  -360.90426951714824
    Total Energy =                       -360.9042695171483501
  Basis Set: CC-PVTZ
  Basis Set:
  Basis Set: CC-PVTZ
  Basis Set:
  @DF-RHF Final Energy:  -360.90882972649155
    Total Energy =                       -360.9088297264917742
  Basis Set: CC-PVTZ
  Basis Set:
  Basis Set: CC-PVTZ
  Basis Set:
  @DF-RHF Final Energy:  -360.90948716564316
    Total Energy =                       -360.9094871656435544
  Basis Set: CC-PVTZ
  Basis Set:
  Basis Set: CC-PVTZ
  Basis Set:
  @DF-RHF Final Energy:  -360.90948790645200
    Total Energy =                       -360.9094879064520569
  Basis Set: CC-PVTZ
  Basis Set:
  Charge       = 0
  Multiplicity = 1
  Basis Set: CC-PVTZ
  Basis Set:

    Orbital Energies (a.u.)
    -----------------------

    Doubly Occupied:

       1A    -20.590679     2A    -20.588709     3A    -15.836271
       4A    -11.296347     5A    -11.250392     6A    -11.241807
       7A    -11.225853     8A     -1.635274     9A     -1.419523
      10A     -1.136541    11A     -1.060112    12A     -0.948784
      13A     -0.843401    14A     -0.828997    15A     -0.757892
      16A     -0.738293    17A     -0.728118    18A     -0.679180
      19A     -0.615654    20A     -0.607804    21A     -0.567758
      22A     -0.541931    23A     -0.517408    24A     -0.504146
      25A     -0.496651    26A     -0.486183    27A     -0.469918
      28A     -0.452272

  @DF-RHF Final Energy:  -360.90949229318716

   => Energetics <=

    Nuclear Repulsion Energy =            312.9700822781204010
    One-Electron Energy =               -1111.6273576665544169
    Two-Electron Energy =                 437.7477830952471436
    DFT Exchange-Correlation Energy =       0.0000000000000000
    Empirical Dispersion Energy =           0.0000000000000000
    PCM Polarization Energy =               0.0000000000000000
    EFP Energy =                            0.0000000000000000
    Total Energy =                       -360.9094922931869291
    Molecular point group: c1
  Basis Set: CC-PVTZ
  Basis Set:

  -Total Gradient:
     Atom            X                  Y                   Z
    ------   -----------------  -----------------  -----------------
       1        0.000021473087     0.000112786978    -0.000196694982
       2       -0.000067897702    -0.000022843627     0.000260554033
       3        0.000043765557    -0.000202330223    -0.000060806540
       4       -0.000042764652    -0.000066447357    -0.000019822599
       5        0.000021404386     0.000141404395    -0.000016386967
       6        0.000019528632     0.000003833605     0.000014000872
       7        0.000013793637     0.000015443903     0.000023087264
       8        0.000000803953     0.000019774507    -0.000011179535
       9        0.000007682623    -0.000000791291    -0.000003423165
      10       -0.000011345443    -0.000005591646     0.000006968487
      11       -0.000002559293    -0.000004365496     0.000003599353
      12        0.000008581588     0.000002652968    -0.000000087350
      13       -0.000012098616     0.000008274591    -0.000003164319
      14        0.000001421560     0.000000418591     0.000000876122
      15       -0.000001701893     0.000000132661     0.000001234981
      16       -0.000000087422    -0.000002352560     0.000001244338

  **** Optimization is complete! (in 6 steps) ****
    Final optimized geometry and variables:
    Molecular point group: c1

    Geometry (in Angstrom), charge = 0, multiplicity = 1:

    O           -1.299123099863    -0.783151810293    -1.877406261114
    N           -0.820950007401     0.179338435701    -1.378427653214
    C            0.479215379447     0.014302461612    -0.673938889170
    O           -1.303090575245     1.262539398111    -1.373786726590
    C            0.243908718703    -0.082144262221     0.827818431598
    H            1.065600607063     0.882354300753    -0.928689897901
    H            0.924225364379    -0.881007179003    -1.073043963357
    C            1.556916540510    -0.261996641645     1.585418727866
    H           -0.259470037380     0.816080424255     1.163386111149
    H           -0.415713318373    -0.919356877053     1.028441739336
    C            1.349929981920    -0.362922097739     3.092587071456
    H            2.216600914888     0.572497778246     1.366268820512
    H            2.060797165116    -1.155606008141     1.229194756913
    H            0.877108004234     0.531412081288     3.482804515758
    H            0.719576080732    -1.208410909066     3.344718699790
    H            2.295423272766    -0.489402486614     3.605636915113

  Mulliken Charges: (a.u.)
   Center  Symbol    Alpha    Beta     Spin     Total
       1     O     4.17219  4.17219  0.00000 -0.34437
       2     N     3.27587  3.27587  0.00000  0.44825
       3     C     3.04029  3.04029  0.00000 -0.08057
       4     O     4.17529  4.17529  0.00000 -0.35058
       5     C     3.10130  3.10130  0.00000 -0.20260
       6     H     0.43469  0.43469  0.00000  0.13062
       7     H     0.43329  0.43329  0.00000  0.13343
       8     C     3.09354  3.09354  0.00000 -0.18707
       9     H     0.43583  0.43583  0.00000  0.12834
      10     H     0.43997  0.43997  0.00000  0.12007
      11     C     3.14825  3.14825  0.00000 -0.29649
      12     H     0.45051  0.45051  0.00000  0.09898
      13     H     0.45033  0.45033  0.00000  0.09935
      14     H     0.45161  0.45161  0.00000  0.09678
      15     H     0.45185  0.45185  0.00000  0.09629
      16     H     0.44520  0.44520  0.00000  0.10959

   Total alpha = 28.00000, Total beta = 28.00000, Total charge = -0.00000

*** Psi4 exiting successfully. Buy a developer a beer!
