  ==> Input File <==

--------------------------------------------------------------------------
set {
	reference rhf
	basis 6-31G*
}

set_num_threads( 1 )
memory 2 gb

molecule MOL {
0 1

O	 1.319941	 3.775272	 1.526748
C	 0.465265	 3.892905	 2.350429
C	 -0.805298	 3.062329	 2.323063
C	 0.595173	 4.887536	 3.485765
C	 -0.881077	 2.080105	 1.157847
H	 -0.880807	 2.537494	 3.274501
H	 -1.651367	 3.748051	 2.304208
C	 -2.173491	 1.261940	 1.163825
H	 -0.023438	 1.415935	 1.196108
H	 -0.795104	 2.627812	 0.224694
C	 -2.259874	 0.272531	 0.000494
H	 -2.255019	 0.717978	 2.103775
H	 -3.029519	 1.934192	 1.126945
C	 -3.549786	 -0.549746	 -0.000374
H	 -1.405001	 -0.400444	 0.036773
H	 -2.179357	 0.815291	 -0.939679
C	 -4.809590	 0.315458	 -0.000369
H	 -3.560515	 -1.202009	 -0.871156
H	 -3.561123	 -1.202955	 0.869711
H	 -4.844746	 0.956611	 -0.876632
H	 -5.706986	 -0.295590	 -0.001609
H	 -4.845960	 0.954827	 0.877144
H	 0.549859	 4.377445	 4.443561
H	 1.534733	 5.415822	 3.402249
H	 -0.224505	 5.599678	 3.460948

	symmetry c1
}
set optking {
	frozen_dihedral = ("
		9 5 8 12,
		15 11 8 12,
		1 2 3 6,
		9 5 3 6
	")
}

ee = energy('scf')
oeprop('DIPOLE', 'QUADRUPOLE', 'MULLIKEN_CHARGES')
f=open( 'psi4out.xyz', 'w' )
f.write( "25  " )
f.write( str(ee) + "\n" )
f.write( MOL.save_string_xyz() )
f.close()
--------------------------------------------------------------------------

    Molecular point group: c1

    Geometry (in Angstrom), charge = 0, multiplicity = 1:

       Center              X                  Y                   Z               Mass
    ------------   -----------------  -----------------  -----------------  -----------------
           O          2.670610450443     1.657875453779     0.192208554742    15.994914619560
           C          1.815934450443     1.775508453779     1.015889554742    12.000000000000
           C          0.545371450443     0.944932453779     0.988523554742    12.000000000000
           C          1.945842450443     2.770139453779     2.151225554742    12.000000000000
           C          0.469592450443    -0.037291546221    -0.176692445258    12.000000000000
           H          0.469862450443     0.420097453779     1.939961554742     1.007825032070
           H         -0.300697549557     1.630654453779     0.969668554742     1.007825032070
           C         -0.822821549557    -0.855456546221    -0.170714445258    12.000000000000
           H          1.327231450443    -0.701461546221    -0.138431445258     1.007825032070
           H          0.555565450443     0.510415453779    -1.109845445258     1.007825032070
           C         -0.909204549557    -1.844865546221    -1.334045445258    12.000000000000
           H         -0.904349549557    -1.399418546221     0.769235554742     1.007825032070
           H         -1.678849549557    -0.183204546221    -0.207594445258     1.007825032070
           C         -2.199116549557    -2.667142546221    -1.334913445258    12.000000000000
           H         -0.054331549557    -2.517840546221    -1.297766445258     1.007825032070
           H         -0.828687549557    -1.302105546221    -2.274218445258     1.007825032070
           C         -3.458920549557    -1.801938546221    -1.334908445258    12.000000000000
           H         -2.209845549557    -3.319405546221    -2.205695445258     1.007825032070
           H         -2.210453549557    -3.320351546221    -0.464828445258     1.007825032070
           H         -3.494076549557    -1.160785546221    -2.211171445258     1.007825032070
           H         -4.356316549557    -2.412986546221    -1.336148445258     1.007825032070
           H         -3.495290549557    -1.162569546221    -0.457395445258     1.007825032070
           H          1.900528450443     2.260048453779     3.109021554742     1.007825032070
           H          2.885402450443     3.298425453779     2.067709554742     1.007825032070
           H          1.126164450443     3.482281453779     2.126408554742     1.007825032070

  Charge       = 0
  Multiplicity = 1
  Basis Set: 6-31G*
  Basis Set:

    Orbital Energies (a.u.)
    -----------------------

    Doubly Occupied:

       1A    -20.550389     2A    -11.326241     3A    -11.231786
       4A    -11.228313     5A    -11.216696     6A    -11.215828
       7A    -11.215475     8A    -11.213487     9A    -11.208519
      10A     -1.395696    11A     -1.094842    12A     -1.056780
      13A     -1.013110    14A     -0.965889    15A     -0.896281
      16A     -0.825000    17A     -0.777208    18A     -0.729454
      19A     -0.658655    20A     -0.653089    21A     -0.625987
      22A     -0.622071    23A     -0.609651    24A     -0.590685
      25A     -0.565915    26A     -0.556020    27A     -0.544809
      28A     -0.521108    29A     -0.511633    30A     -0.494061
      31A     -0.488684    32A     -0.476241    33A     -0.460351
      34A     -0.456521    35A     -0.451144    36A     -0.399448

  @DF-RHF Final Energy:  -387.13351607877138

   => Energetics <=

    Nuclear Repulsion Energy =            444.2597427777140524
    One-Electron Energy =               -1405.0922594872906757
    Two-Electron Energy =                 573.6990006308063812
    DFT Exchange-Correlation Energy =       0.0000000000000000
    Empirical Dispersion Energy =           0.0000000000000000
    PCM Polarization Energy =               0.0000000000000000
    EFP Energy =                            0.0000000000000000
    Total Energy =                       -387.1335160787701852

  Mulliken Charges: (a.u.)
   Center  Symbol    Alpha    Beta     Spin     Total
       1     O     4.26117  4.26117  0.00000 -0.52234
       2     C     2.73572  2.73572  0.00000  0.52855
       3     C     3.21079  3.21079  0.00000 -0.42158
       4     C     3.28664  3.28664  0.00000 -0.57328
       5     C     3.14688  3.14688  0.00000 -0.29375
       6     H     0.41007  0.41007  0.00000  0.17987
       7     H     0.41014  0.41014  0.00000  0.17972
       8     C     3.15794  3.15794  0.00000 -0.31589
       9     H     0.41236  0.41236  0.00000  0.17527
      10     H     0.41224  0.41224  0.00000  0.17552
      11     C     3.15221  3.15221  0.00000 -0.30442
      12     H     0.42534  0.42534  0.00000  0.14932
      13     H     0.42184  0.42184  0.00000  0.15632
      14     C     3.15208  3.15208  0.00000 -0.30416
      15     H     0.42035  0.42035  0.00000  0.15931
      16     H     0.42266  0.42266  0.00000  0.15469
      17     C     3.24331  3.24331  0.00000 -0.48662
      18     H     0.41999  0.41999  0.00000  0.16003
      19     H     0.42352  0.42352  0.00000  0.15296
      20     H     0.42188  0.42188  0.00000  0.15624
      21     H     0.41881  0.41881  0.00000  0.16238
      22     H     0.42014  0.42014  0.00000  0.15971
      23     H     0.40875  0.40875  0.00000  0.18250
      24     H     0.39646  0.39646  0.00000  0.20708
      25     H     0.40871  0.40871  0.00000  0.18258

   Total alpha = 36.00000, Total beta = 36.00000, Total charge =  0.00000
