                              Psi4 1.0.54 Driver

  ==> Input File <==

--------------------------------------------------------------------------
set {
	reference rhf
	basis cc-pvtz
}

set_num_threads( 4 )
memory 2 gb

molecule MOL {
0 1

O	 3.219313	 0.959291	 -0.614106
C	 2.698710	 0.058177	 -0.050237
C	 1.246364	 -0.005813	 0.348416
O	 3.344101	 -1.038700	 0.312317
C	 0.453207	 1.232821	 -0.049003
H	 0.839270	 -0.907818	 -0.092281
H	 1.216683	 -0.160521	 1.422434
C	 -0.998367	 1.217982	 0.432195
H	 0.481498	 1.345443	 -1.127236
H	 0.951413	 2.105557	 0.354893
C	 -1.882951	 0.151251	 -0.211235
H	 -1.429490	 2.193659	 0.228843
H	 -1.019755	 1.099323	 1.513279
C	 -3.342450	 0.243269	 0.226009
H	 -1.826223	 0.246578	 -1.293162
H	 -1.508033	 -0.839650	 0.027695
C	 -4.234517	 -0.821434	 -0.405970
H	 -3.730149	 1.228245	 -0.022691
H	 -3.398860	 0.159952	 1.308941
C	 -5.524479	 -0.254168	 -0.989053
H	 -3.681460	 -1.334597	 -1.187963
H	 -4.477350	 -1.574614	 0.338750
H	 -6.133895	 -1.035240	 -1.428966
H	 -5.315709	 0.477314	 -1.762654
H	 -6.117333	 0.236246	 -0.224053
C	 4.720529	 -1.114346	 0.001449
H	 4.874321	 -1.055557	 -1.065852
H	 5.057824	 -2.067950	 0.373977
H	 5.264321	 -0.313596	 0.480350

	symmetry c1
}
set optking {
	frozen_dihedral = ("
		21 17 14 11
	")
}

ee,wfn = optimize('scf', return_wfn=True)
oeprop( wfn, 'DIPOLE', 'QUADRUPOLE', 'MULLIKEN_CHARGES')
f=open( 'psi4out.xyz', 'w' )
f.write( "29  " )
f.write( str(ee) + "\n" )
f.write( MOL.save_string_xyz() )
f.close()
--------------------------------------------------------------------------

    Molecular point group: c1
  Charge       = 0
  Multiplicity = 1
  Basis Set: CC-PVTZ
  Basis Set:
  @DF-RHF Final Energy:  -501.21969883417262
    Total Energy =                       -501.2196988341725046
    Molecular point group: c1
  Basis Set: CC-PVTZ
  Basis Set:
  Basis Set: CC-PVTZ
  Basis Set:
  @DF-RHF Final Energy:  -501.21995370276227
    Total Energy =                       -501.2199537027626093
  Basis Set: CC-PVTZ
  Basis Set:
  Basis Set: CC-PVTZ
  Basis Set:
  @DF-RHF Final Energy:  -501.22000209383691
    Total Energy =                       -501.2200020938369107
  Basis Set: CC-PVTZ
  Basis Set:
  Basis Set: CC-PVTZ
  Basis Set:
  @DF-RHF Final Energy:  -501.21978588438424
    Total Energy =                       -501.2197858843842369
  Basis Set: CC-PVTZ
  Basis Set:
  Basis Set: CC-PVTZ
  Basis Set:
  @DF-RHF Final Energy:  -501.22001244912565
    Total Energy =                       -501.2200124491255337
  Basis Set: CC-PVTZ
  Basis Set:
  Charge       = 0
  Multiplicity = 1
  Basis Set: CC-PVTZ
  Basis Set:

    Orbital Energies (a.u.)
    -----------------------

    Doubly Occupied:

       1A    -20.596013     2A    -20.533866     3A    -11.364272
       4A    -11.278265     5A    -11.232941     6A    -11.217097
       7A    -11.215385     8A    -11.214168     9A    -11.213603
      10A    -11.212090    11A    -11.207597    12A     -1.471879
      13A     -1.365502    14A     -1.098756    15A     -1.066390
      16A     -1.020186    17A     -0.978158    18A     -0.929003
      19A     -0.862612    20A     -0.801012    21A     -0.790824
      22A     -0.765822    23A     -0.702858    24A     -0.685471
      25A     -0.676079    26A     -0.644583    27A     -0.631941
      28A     -0.604244    29A     -0.599650    30A     -0.582630
      31A     -0.566375    32A     -0.553515    33A     -0.532568
      34A     -0.525555    35A     -0.519123    36A     -0.516770
      37A     -0.496109    38A     -0.477931    39A     -0.472451
      40A     -0.461048    41A     -0.458304    42A     -0.456171
      43A     -0.443207    44A     -0.436731

  @DF-RHF Final Energy:  -501.22001283076372

   => Energetics <=

    Nuclear Repulsion Energy =            611.5649960815170516
    One-Electron Energy =               -1894.6125087631603492
    Two-Electron Energy =                 781.8274998508798035
    DFT Exchange-Correlation Energy =       0.0000000000000000
    Empirical Dispersion Energy =           0.0000000000000000
    PCM Polarization Energy =               0.0000000000000000
    EFP Energy =                            0.0000000000000000
    Total Energy =                       -501.2200128307633804
    Molecular point group: c1
  Basis Set: CC-PVTZ
  Basis Set:

  -Total Gradient:
     Atom            X                  Y                   Z
    ------   -----------------  -----------------  -----------------
       1       -0.000043232057     0.000058355028    -0.000022059891
       2        0.000026983028     0.000009036871     0.000013434611
       3        0.000017401470    -0.000012561750    -0.000012919141
       4       -0.000017109494    -0.000073910860     0.000030885494
       5        0.000008601848     0.000007138533     0.000005170474
       6        0.000003098892     0.000001809166    -0.000001450771
       7        0.000009122506     0.000002978329    -0.000000941210
       8        0.000003072987     0.000005881081     0.000006873381
       9       -0.000003335322    -0.000001095413     0.000003080629
      10        0.000009781730     0.000003046125    -0.000000540575
      11       -0.000399364106     0.001286083431    -0.001620654469
      12        0.000006406139     0.000001401526    -0.000000944358
      13        0.000001196344     0.000008298688    -0.000001075379
      14        0.000763497393    -0.002265233564     0.002711055869
      15       -0.000014991469    -0.000007441089    -0.000010257804
      16        0.000000709256    -0.000002018493     0.000004679269
      17       -0.001282125498     0.002890345245    -0.003027787552
      18        0.000002959699     0.000006500444    -0.000000259021
      19        0.000004172112    -0.000006398588     0.000007472280
      20       -0.000023284604     0.000006446823    -0.000008859136
      21        0.000917294747    -0.001915059128     0.001920741329
      22       -0.000008284604    -0.000000322653    -0.000000555437
      23        0.000001993357    -0.000011036443     0.000003686318
      24        0.000010672728    -0.000004718186     0.000001224232
      25        0.000009062690     0.000001624581     0.000004022670
      26       -0.000001136338     0.000025570693    -0.000011718640
      27        0.000006236196    -0.000004487844     0.000003617773
      28       -0.000014077723    -0.000003245192     0.000005197753
      29        0.000004678097    -0.000006987357    -0.000001118699

  **** Optimization is complete! (in 6 steps) ****
    Final optimized geometry and variables:
    Molecular point group: c1

    Geometry (in Angstrom), charge = 0, multiplicity = 1:

    O            3.207025821307     0.926881984075    -0.499809805520
    C            2.686744980758     0.019873715455     0.054863882507
    C            1.233550965164    -0.050228521768     0.449330833479
    O            3.333085030536    -1.079277055087     0.408877940195
    C            0.439623349801     1.191384718984     0.062820931997
    H            0.828754322087    -0.948143788719    -0.001759723318
    H            1.201400726753    -0.216215557017     1.521578264751
    C           -1.013283588515     1.169215781503     0.539940026970
    H            0.470619765384     1.315377047592    -1.014088730550
    H            0.935456915225     2.060595753683     0.477136659781
    C           -1.894635519099     0.109326416985    -0.117940554266
    H           -1.445235989399     2.146723284758     0.346821131444
    H           -1.037483141918     1.038135378067     1.619532830904
    C           -3.358544842619     0.200547410253     0.307850216904
    H           -1.834601229254     0.213340038329    -1.198823864777
    H           -1.521602064752    -0.884500498127     0.113537577227
    C           -4.257371730050    -0.873605192996    -0.334046028303
    H           -3.729357397726     1.186371957145     0.040856260288
    H           -3.425649237939     0.141463547631     1.389723261138
    C           -5.561117728704    -0.324343630077    -0.902455853485
    H           -3.706984409403    -1.392478005638    -1.112711686710
    H           -4.489323642003    -1.636186434488     0.403118799866
    H           -6.172049107353    -1.115278844311    -1.322652308438
    H           -5.369737507029     0.400562099485    -1.686763837321
    H           -6.143824929021     0.170813925007    -0.132629768827
    C            4.710305656906    -1.150009173772     0.100353938285
    H            4.866393440998    -1.081301050860    -0.966021397400
    H            5.048193491087    -2.106483851366     0.464928986400
    H            5.251894726502    -0.352891854818     0.587737757970

  Mulliken Charges: (a.u.)
   Center  Symbol    Alpha    Beta     Spin     Total
       1     O     4.19698  4.19698  0.00000 -0.39397
       2     C     2.80484  2.80484  0.00000  0.39032
       3     C     3.10159  3.10159  0.00000 -0.20319
       4     O     4.14720  4.14720  0.00000 -0.29440
       5     C     3.09251  3.09251  0.00000 -0.18501
       6     H     0.43906  0.43906  0.00000  0.12189
       7     H     0.43992  0.43992  0.00000  0.12015
       8     C     3.10468  3.10468  0.00000 -0.20935
       9     H     0.44628  0.44628  0.00000  0.10745
      10     H     0.43963  0.43963  0.00000  0.12073
      11     C     3.09399  3.09399  0.00000 -0.18799
      12     H     0.44492  0.44492  0.00000  0.11016
      13     H     0.45374  0.45374  0.00000  0.09251
      14     C     3.09174  3.09174  0.00000 -0.18349
      15     H     0.45243  0.45243  0.00000  0.09514
      16     H     0.45280  0.45280  0.00000  0.09439
      17     C     3.08766  3.08766  0.00000 -0.17531
      18     H     0.45374  0.45374  0.00000  0.09251
      19     H     0.45110  0.45110  0.00000  0.09780
      20     C     3.14725  3.14725  0.00000 -0.29451
      21     H     0.45454  0.45454  0.00000  0.09091
      22     H     0.45214  0.45214  0.00000  0.09572
      23     H     0.44949  0.44949  0.00000  0.10101
      24     H     0.45549  0.45549  0.00000  0.08901
      25     H     0.45428  0.45428  0.00000  0.09144
      26     C     3.03810  3.03810  0.00000 -0.07620
      27     H     0.45436  0.45436  0.00000  0.09129
      28     H     0.44528  0.44528  0.00000  0.10945
      29     H     0.45424  0.45424  0.00000  0.09153

   Total alpha = 44.00000, Total beta = 44.00000, Total charge = -0.00000

*** Psi4 exiting successfully. Buy a developer a beer!
