                              Psi4 1.0.54 Driver

  ==> Input File <==

--------------------------------------------------------------------------
set {
	reference rhf
	basis cc-pvtz
}

set_num_threads( 4 )
memory 2 gb

molecule MOL {
0 1

H	 -0.939693	 0.000281	 1.681345
O	 -0.046262	 -0.000157	 1.387678
C	 -0.000837	 0.000006	 -0.025491
C	 -1.335971	 0.493071	 -0.579974
C	 1.144936	 0.891648	 -0.500175
C	 0.244758	 -1.449423	 -0.421758
H	 -1.344053	 0.470083	 -1.663579
H	 -1.527788	 1.515620	 -0.269056
H	 -2.145417	 -0.127192	 -0.215921
H	 1.227704	 0.883198	 -1.580853
H	 0.987250	 1.919703	 -0.188227
H	 2.083340	 0.552232	 -0.079867
H	 0.295958	 -1.552150	 -1.499308
H	 -0.554522	 -2.079381	 -0.052277
H	 1.176178	 -1.801365	 0.003457

	symmetry c1
}
set optking {
	frozen_dihedral = ("
		4 3 2 1
	")
}

ee,wfn = optimize('scf', return_wfn=True)
oeprop( wfn, 'DIPOLE', 'QUADRUPOLE', 'MULLIKEN_CHARGES')
f=open( 'psi4out.xyz', 'w' )
f.write( "15  " )
f.write( str(ee) + "\n" )
f.write( MOL.save_string_xyz() )
f.close()
--------------------------------------------------------------------------

    Molecular point group: c1
  Charge       = 0
  Multiplicity = 1
  Basis Set: CC-PVTZ
  Basis Set:
  @DF-RHF Final Energy:  -232.24405286245252
    Total Energy =                       -232.2440528624525200
    Molecular point group: c1
  Basis Set: CC-PVTZ
  Basis Set:
  Basis Set: CC-PVTZ
  Basis Set:
  @DF-RHF Final Energy:  -232.24488085097570
    Total Energy =                       -232.2448808509756191
  Basis Set: CC-PVTZ
  Basis Set:
  Basis Set: CC-PVTZ
  Basis Set:
  @DF-RHF Final Energy:  -232.24522683340263
    Total Energy =                       -232.2452268334026826
  Basis Set: CC-PVTZ
  Basis Set:
  Basis Set: CC-PVTZ
  Basis Set:
  @DF-RHF Final Energy:  -232.24523025563056
    Total Energy =                       -232.2452302556307586
  Basis Set: CC-PVTZ
  Basis Set:
  Basis Set: CC-PVTZ
  Basis Set:
  @DF-RHF Final Energy:  -232.24523577838852
    Total Energy =                       -232.2452357783885191
  Basis Set: CC-PVTZ
  Basis Set:
  Charge       = 0
  Multiplicity = 1
  Basis Set: CC-PVTZ
  Basis Set:

    Orbital Energies (a.u.)
    -----------------------

    Doubly Occupied:

       1A    -20.540698     2A    -11.281073     3A    -11.215444
       4A    -11.204066     5A    -11.203490     6A     -1.363277
       7A     -1.065630     8A     -0.945842     9A     -0.937087
      10A     -0.778574    11A     -0.672067    12A     -0.624598
      13A     -0.622717    14A     -0.576447    15A     -0.557314
      16A     -0.534403    17A     -0.517074    18A     -0.511384
      19A     -0.503418    20A     -0.458662    21A     -0.426842

  @DF-RHF Final Energy:  -232.24523609723448

   => Energetics <=

    Nuclear Repulsion Energy =            200.5974586695322444
    One-Electron Energy =                -712.6051721774686030
    Two-Electron Energy =                 279.7624774107019334
    DFT Exchange-Correlation Energy =       0.0000000000000000
    Empirical Dispersion Energy =           0.0000000000000000
    PCM Polarization Energy =               0.0000000000000000
    EFP Energy =                            0.0000000000000000
    Total Energy =                       -232.2452360972344536
    Molecular point group: c1
  Basis Set: CC-PVTZ
  Basis Set:

  -Total Gradient:
     Atom            X                  Y                   Z
    ------   -----------------  -----------------  -----------------
       1        0.000058157774     0.001599229340    -0.000154099468
       2       -0.000187758479    -0.002312375720     0.000196281782
       3        0.000503986788     0.001605355305    -0.000163279954
       4       -0.000383669543    -0.000896162203     0.000084650569
       5        0.000001134839     0.000001697870     0.000009107619
       6        0.000008514488     0.000000921756     0.000030414827
       7       -0.000005619020     0.000003918356    -0.000011176269
       8       -0.000005989222    -0.000007373623    -0.000001419610
       9       -0.000000118801     0.000000368674    -0.000002923904
      10       -0.000006377552     0.000005671589     0.000014545585
      11        0.000008499186     0.000004739109    -0.000000966044
      12        0.000007792556    -0.000005791318    -0.000001367127
      13       -0.000001770074     0.000004152570     0.000001345597
      14        0.000005284269     0.000002470659     0.000000455727
      15       -0.000002067213    -0.000006822367    -0.000001569331

  **** Optimization is complete! (in 6 steps) ****
    Final optimized geometry and variables:
    Molecular point group: c1

    Geometry (in Angstrom), charge = 0, multiplicity = 1:

    H           -0.893104127711     0.191731190575     1.704093610134
    O           -0.012407828291     0.125593183878     1.386082750736
    C            0.002233606078    -0.002666415164    -0.025067110611
    C           -1.318326843777     0.493785264196    -0.607043405884
    C            1.167914883407     0.843283292008    -0.522319901594
    C            0.219076018147    -1.474445450179    -0.371138211088
    H           -1.319242423969     0.421129583021    -1.687612104449
    H           -1.489125299550     1.530033520559    -0.337641472300
    H           -2.149025506574    -0.098983089045    -0.235852896720
    H            1.282249547357     0.757249464339    -1.596827560877
    H            1.011680968972     1.885400145435    -0.272524916149
    H            2.088051175053     0.519270985281    -0.052341505267
    H            0.280810819153    -1.623022362098    -1.443542719649
    H           -0.596769966096    -2.078339762781     0.009785096588
    H            1.137229714896    -1.830252953945     0.079009671866

  Mulliken Charges: (a.u.)
   Center  Symbol    Alpha    Beta     Spin     Total
       1     H     0.39276  0.39276  0.00000  0.21449
       2     O     4.21442  4.21442  0.00000 -0.42885
       3     C     2.87975  2.87975  0.00000  0.24051
       4     C     3.16054  3.16054  0.00000 -0.32108
       5     C     3.14010  3.14010  0.00000 -0.28019
       6     C     3.14201  3.14201  0.00000 -0.28402
       7     H     0.45118  0.45118  0.00000  0.09765
       8     H     0.44608  0.44608  0.00000  0.10784
       9     H     0.45268  0.45268  0.00000  0.09464
      10     H     0.45939  0.45939  0.00000  0.08122
      11     H     0.45192  0.45192  0.00000  0.09615
      12     H     0.44732  0.44732  0.00000  0.10536
      13     H     0.45883  0.45883  0.00000  0.08233
      14     H     0.45474  0.45474  0.00000  0.09051
      15     H     0.44827  0.44827  0.00000  0.10345

   Total alpha = 21.00000, Total beta = 21.00000, Total charge =  0.00000

*** Psi4 exiting successfully. Buy a developer a beer!
