  ==> Input File <==

--------------------------------------------------------------------------
set {
	reference rhf
	basis 6-31G*
}

set_num_threads( 1 )
memory 2 gb

molecule MOL {
0 1

O	 -2.821601	 1.309235	 -0.001213
C	 -2.668563	 0.129746	 -0.000350
C	 -3.801572	 -0.864014	 -0.000442
O	 -1.481751	 -0.454642	 0.000584
H	 -4.417280	 -0.689587	 -0.874708
H	 -3.443784	 -1.883046	 -0.000565
H	 -4.417179	 -0.689832	 0.873954
C	 -0.334255	 0.388708	 0.000906
C	 0.891947	 -0.504646	 0.000751
H	 -0.365390	 1.025305	 -0.873475
H	 -0.365484	 1.024911	 0.875569
C	 2.191998	 0.301789	 0.000897
H	 0.855148	 -1.151283	 -0.871571
H	 0.855132	 -1.151660	 0.872805
C	 3.441114	 -0.581407	 0.000108
H	 2.215074	 0.954890	 -0.869742
H	 2.215465	 0.953923	 0.872248
C	 3.572120	 -1.425907	 -1.266590
H	 3.419693	 -1.234708	 0.869484
H	 4.323767	 0.044613	 0.110073
H	 2.719215	 -2.087833	 -1.386677
H	 4.466195	 -2.040742	 -1.237543
H	 3.630425	 -0.798917	 -2.151742

	symmetry c1
}
set optking {
	frozen_dihedral = ("
		13 9 8 10,
		2 4 8 10,
		16 12 9 13,
		1 2 4 8
	")
}

ee = energy('scf')
oeprop('DIPOLE', 'QUADRUPOLE', 'MULLIKEN_CHARGES')
f=open( 'psi4out.xyz', 'w' )
f.write( "23  " )
f.write( str(ee) + "\n" )
f.write( MOL.save_string_xyz() )
f.close()
--------------------------------------------------------------------------

    Molecular point group: c1

    Geometry (in Angstrom), charge = 0, multiplicity = 1:

       Center              X                  Y                   Z               Mass
    ------------   -----------------  -----------------  -----------------  -----------------
           O         -2.686813267472     1.499735802322     0.144892711708    15.994914619560
           C         -2.533775267472     0.320246802322     0.145755711708    12.000000000000
           C         -3.666784267472    -0.673513197678     0.145663711708    12.000000000000
           O         -1.346963267472    -0.264141197678     0.146689711708    15.994914619560
           H         -4.282492267472    -0.499086197678    -0.728602288292     1.007825032070
           H         -3.308996267472    -1.692545197678     0.145540711708     1.007825032070
           H         -4.282391267472    -0.499331197678     1.020059711708     1.007825032070
           C         -0.199467267472     0.579208802322     0.147011711708    12.000000000000
           C          1.026734732528    -0.314145197678     0.146856711708    12.000000000000
           H         -0.230602267472     1.215805802322    -0.727369288292     1.007825032070
           H         -0.230696267472     1.215411802322     1.021674711708     1.007825032070
           C          2.326785732528     0.492289802322     0.147002711708    12.000000000000
           H          0.989935732528    -0.960782197678    -0.725465288292     1.007825032070
           H          0.989919732528    -0.961159197678     1.018910711708     1.007825032070
           C          3.575901732528    -0.390906197678     0.146213711708    12.000000000000
           H          2.349861732528     1.145390802322    -0.723636288292     1.007825032070
           H          2.350252732528     1.144423802322     1.018353711708     1.007825032070
           C          3.706907732528    -1.235406197678    -1.120484288292    12.000000000000
           H          3.554480732528    -1.044207197678     1.015589711708     1.007825032070
           H          4.458554732528     0.235113802322     0.256178711708     1.007825032070
           H          2.854002732528    -1.897332197678    -1.240571288292     1.007825032070
           H          4.600982732528    -1.850241197678    -1.091437288292     1.007825032070
           H          3.765212732528    -0.608416197678    -2.005636288292     1.007825032070

  Charge       = 0
  Multiplicity = 1
  Basis Set: 6-31G*
  Basis Set:

    Orbital Energies (a.u.)
    -----------------------

    Doubly Occupied:

       1A    -20.602952     2A    -20.540499     3A    -11.374063
       4A    -11.281420     5A    -11.232398     6A    -11.224114
       7A    -11.223410     8A    -11.221669     9A    -11.212674
      10A     -1.467928    11A     -1.360700    12A     -1.095732
      13A     -1.041347    14A     -1.001427    15A     -0.930647
      16A     -0.853992    17A     -0.793231    18A     -0.771806
      19A     -0.691305    20A     -0.685230    21A     -0.670180
      22A     -0.635763    23A     -0.618550    24A     -0.599215
      25A     -0.576293    26A     -0.571189    27A     -0.547050
      28A     -0.537588    29A     -0.525532    30A     -0.506932
      31A     -0.497315    32A     -0.472710    33A     -0.467533
      34A     -0.465890    35A     -0.451051    36A     -0.435299

  @DF-RHF Final Energy:  -422.97736339507253

   => Energetics <=

    Nuclear Repulsion Energy =            455.2244836553032883
    One-Electron Energy =               -1478.0345053033722706
    Two-Electron Energy =                 599.8326582529959978
    DFT Exchange-Correlation Energy =       0.0000000000000000
    Empirical Dispersion Energy =           0.0000000000000000
    PCM Polarization Energy =               0.0000000000000000
    EFP Energy =                            0.0000000000000000
    Total Energy =                       -422.9773633950729845

  Mulliken Charges: (a.u.)
   Center  Symbol    Alpha    Beta     Spin     Total
       1     O     4.28392  4.28392  0.00000 -0.56783
       2     C     2.61532  2.61532  0.00000  0.76935
       3     C     3.28773  3.28773  0.00000 -0.57546
       4     O     4.31269  4.31269  0.00000 -0.62538
       5     H     0.39749  0.39749  0.00000  0.20501
       6     H     0.39991  0.39991  0.00000  0.20018
       7     H     0.39750  0.39750  0.00000  0.20500
       8     C     2.99485  2.99485  0.00000  0.01030
       9     C     3.16796  3.16796  0.00000 -0.33591
      10     H     0.41069  0.41069  0.00000  0.17862
      11     H     0.41076  0.41076  0.00000  0.17848
      12     C     3.16161  3.16161  0.00000 -0.32323
      13     H     0.41203  0.41203  0.00000  0.17593
      14     H     0.41448  0.41448  0.00000  0.17104
      15     C     3.15260  3.15260  0.00000 -0.30520
      16     H     0.42097  0.42097  0.00000  0.15807
      17     H     0.41867  0.41867  0.00000  0.16267
      18     C     3.24315  3.24315  0.00000 -0.48630
      19     H     0.42153  0.42153  0.00000  0.15694
      20     H     0.41845  0.41845  0.00000  0.16311
      21     H     0.41918  0.41918  0.00000  0.16164
      22     H     0.41745  0.41745  0.00000  0.16510
      23     H     0.42106  0.42106  0.00000  0.15789

   Total alpha = 36.00000, Total beta = 36.00000, Total charge = -0.00000
