  ==> Input File <==

--------------------------------------------------------------------------
set {
	reference rhf
	basis 6-31G*
}

set_num_threads( 1 )
memory 2 gb

molecule MOL {
0 1

O	 -2.439739	 -0.935931	 -0.423848
C	 -1.921153	 0.064240	 -0.045697
C	 -2.624470	 1.379923	 0.150949
O	 -0.632575	 0.154573	 0.251549
H	 -2.168117	 2.136577	 -0.476876
H	 -3.669540	 1.273223	 -0.098610
H	 -2.519365	 1.700893	 1.180846
C	 0.160891	 -1.019931	 0.106212
C	 1.589627	 -0.672828	 0.480843
H	 0.089836	 -1.367806	 -0.916050
H	 -0.238459	 -1.792301	 0.749618
C	 2.045542	 0.700808	 -0.014803
H	 2.233532	 -1.443970	 0.062919
H	 1.693178	 -0.730305	 1.561228
C	 3.496007	 1.006188	 0.356541
H	 1.931475	 0.747649	 -1.095957
H	 1.395692	 1.465276	 0.398286
H	 3.794781	 1.985047	 -0.004846
H	 4.174901	 0.274146	 -0.071823
H	 3.635401	 0.995003	 1.433816

	symmetry c1
}
set optking {
	frozen_dihedral = ("
		16 12 9 8,
		2 4 8 10,
		1 2 4 8
	")
}

ee = energy('scf')
oeprop('DIPOLE', 'QUADRUPOLE', 'MULLIKEN_CHARGES')
f=open( 'psi4out.xyz', 'w' )
f.write( "20  " )
f.write( str(ee) + "\n" )
f.write( MOL.save_string_xyz() )
f.close()
--------------------------------------------------------------------------

    Molecular point group: c1

    Geometry (in Angstrom), charge = 0, multiplicity = 1:

       Center              X                  Y                   Z               Mass
    ------------   -----------------  -----------------  -----------------  -----------------
           O         -2.390208009643    -1.024552442123    -0.530637188244    15.994914619560
           C         -1.871622009643    -0.024381442123    -0.152486188244    12.000000000000
           C         -2.574939009643     1.291301557877     0.044159811756    12.000000000000
           O         -0.583044009643     0.065951557877     0.144759811756    15.994914619560
           H         -2.118586009643     2.047955557877    -0.583665188244     1.007825032070
           H         -3.620009009643     1.184601557877    -0.205399188244     1.007825032070
           H         -2.469834009643     1.612271557877     1.074056811756     1.007825032070
           C          0.210421990357    -1.108552442123    -0.000577188244    12.000000000000
           C          1.639157990357    -0.761449442123     0.374053811756    12.000000000000
           H          0.139366990357    -1.456427442123    -1.022839188244     1.007825032070
           H         -0.188928009643    -1.880922442123     0.642828811756     1.007825032070
           C          2.095072990357     0.612186557877    -0.121592188244    12.000000000000
           H          2.283062990357    -1.532591442123    -0.043870188244     1.007825032070
           H          1.742708990357    -0.818926442123     1.454438811756     1.007825032070
           C          3.545537990357     0.917566557877     0.249751811756    12.000000000000
           H          1.981005990357     0.659027557877    -1.202746188244     1.007825032070
           H          1.445222990357     1.376654557877     0.291496811756     1.007825032070
           H          3.844311990357     1.896425557877    -0.111635188244     1.007825032070
           H          4.224431990357     0.185524557877    -0.178612188244     1.007825032070
           H          3.684931990357     0.906381557877     1.327026811756     1.007825032070

  Charge       = 0
  Multiplicity = 1
  Basis Set: 6-31G*
  Basis Set:

    Orbital Energies (a.u.)
    -----------------------

    Doubly Occupied:

       1A    -20.601777     2A    -20.544314     3A    -11.374714
       4A    -11.282306     5A    -11.233746     6A    -11.224943
       7A    -11.218603     8A    -11.212029     9A     -1.468348
      10A     -1.362613    11A     -1.085233    12A     -1.027652
      13A     -0.981368    14A     -0.879549    15A     -0.815965
      16A     -0.766894    17A     -0.690187    18A     -0.686907
      19A     -0.667317    20A     -0.632989    21A     -0.597442
      22A     -0.592773    23A     -0.573152    24A     -0.549200
      25A     -0.543692    26A     -0.534491    27A     -0.509226
      28A     -0.483146    29A     -0.473743    30A     -0.468475
      31A     -0.448707    32A     -0.438961

  @DF-RHF Final Energy:  -383.94256059910930

   => Energetics <=

    Nuclear Repulsion Energy =            387.4932439398028805
    One-Electron Energy =               -1290.9306609941529587
    Two-Electron Energy =                 519.4948564552419157
    DFT Exchange-Correlation Energy =       0.0000000000000000
    Empirical Dispersion Energy =           0.0000000000000000
    PCM Polarization Energy =               0.0000000000000000
    EFP Energy =                            0.0000000000000000
    Total Energy =                       -383.9425605991082193

  Mulliken Charges: (a.u.)
   Center  Symbol    Alpha    Beta     Spin     Total
       1     O     4.28328  4.28328  0.00000 -0.56657
       2     C     2.61861  2.61861  0.00000  0.76278
       3     C     3.28194  3.28194  0.00000 -0.56387
       4     O     4.30934  4.30934  0.00000 -0.61868
       5     H     0.40057  0.40057  0.00000  0.19886
       6     H     0.39673  0.39673  0.00000  0.20653
       7     H     0.40076  0.40076  0.00000  0.19849
       8     C     3.00029  3.00029  0.00000 -0.00057
       9     C     3.16970  3.16970  0.00000 -0.33940
      10     H     0.41017  0.41017  0.00000  0.17965
      11     H     0.40809  0.40809  0.00000  0.18381
      12     C     3.15199  3.15199  0.00000 -0.30399
      13     H     0.41751  0.41751  0.00000  0.16498
      14     H     0.41673  0.41673  0.00000  0.16653
      15     C     3.24053  3.24053  0.00000 -0.48105
      16     H     0.42304  0.42304  0.00000  0.15393
      17     H     0.40915  0.40915  0.00000  0.18169
      18     H     0.41796  0.41796  0.00000  0.16407
      19     H     0.42230  0.42230  0.00000  0.15539
      20     H     0.42129  0.42129  0.00000  0.15742

   Total alpha = 32.00000, Total beta = 32.00000, Total charge =  0.00000
