  ==> Input File <==

--------------------------------------------------------------------------
set {
	reference rhf
	basis 6-31G*
}

set_num_threads( 4 )
memory 2 gb

molecule MOL {
0 1

O	 0.531430	 -0.707368	 2.215382
C	 -0.009994	 -0.938659	 1.183520
C	 -1.398402	 -1.499169	 1.039583
O	 0.550821	 -0.724572	 0.000672
H	 -2.013848	 -0.811160	 0.471644
H	 -1.827279	 -1.659179	 2.017516
H	 -1.360524	 -2.434096	 0.492722
C	 1.863949	 -0.193559	 -0.000319
H	 2.028859	 0.409284	 -0.881648
H	 2.526261	 -1.045082	 -0.000003
H	 2.029520	 0.410555	 0.880008

	symmetry c1
}
set optking {
	frozen_dihedral = ("
		2 4 8 9
	")
}

ee = optimize('scf')
oeprop('DIPOLE', 'QUADRUPOLE', 'MULLIKEN_CHARGES')
f=open( 'psi4out.xyz', 'w' )
f.write( "11  " )
f.write( str(ee) + "\n" )
f.write( MOL.save_string_xyz() )
f.close()
--------------------------------------------------------------------------

    Molecular point group: c1
  Charge       = 0
  Multiplicity = 1
  Basis Set: 6-31G*
  Basis Set:
  @DF-RHF Final Energy:  -266.83390768813013
    Total Energy =                       -266.8339076881300116
    Molecular point group: c1
  Basis Set: 6-31G*
  Basis Set:
  Basis Set: 6-31G*
  Basis Set:
  @DF-RHF Final Energy:  -266.83482931000435
    Total Energy =                       -266.8348293100041815
  Basis Set: 6-31G*
  Basis Set:
  Basis Set: 6-31G*
  Basis Set:
  @DF-RHF Final Energy:  -266.83367278466000
    Total Energy =                       -266.8336727846601661
  Basis Set: 6-31G*
  Basis Set:
  Basis Set: 6-31G*
  Basis Set:
  @DF-RHF Final Energy:  -266.83523322617805
    Total Energy =                       -266.8352332261780475
  Basis Set: 6-31G*
  Basis Set:
  Basis Set: 6-31G*
  Basis Set:
  @DF-RHF Final Energy:  -266.83526127115294
    Total Energy =                       -266.8352612711528309
  Basis Set: 6-31G*
  Basis Set:
  Basis Set: 6-31G*
  Basis Set:
  @DF-RHF Final Energy:  -266.83526349509270
    Total Energy =                       -266.8352634950927040
  Basis Set: 6-31G*
  Basis Set:
  Charge       = 0
  Multiplicity = 1
  Basis Set: 6-31G*
  Basis Set:

    Orbital Energies (a.u.)
    -----------------------

    Doubly Occupied:

       1A    -20.605315     2A    -20.546054     3A    -11.377172
       4A    -11.281411     5A    -11.234311     6A     -1.469608
       7A     -1.364784     8A     -1.035941     9A     -0.953285
      10A     -0.777740    11A     -0.696208    12A     -0.680065
      13A     -0.677003    14A     -0.597019    15A     -0.590983
      16A     -0.560503    17A     -0.527481    18A     -0.520307
      19A     -0.456373    20A     -0.442156

  @DF-RHF Final Energy:  -266.83526379622487

   => Energetics <=

    Nuclear Repulsion Energy =            183.0480304912578617
    One-Electron Energy =                -726.9791521153791791
    Two-Electron Energy =                 277.0958578278963955
    DFT Exchange-Correlation Energy =       0.0000000000000000
    Empirical Dispersion Energy =           0.0000000000000000
    PCM Polarization Energy =               0.0000000000000000
    EFP Energy =                            0.0000000000000000
    Total Energy =                       -266.8352637962248650
    Molecular point group: c1
  Basis Set: 6-31G*
  Basis Set:

  -Total Gradient:
     Atom            X                  Y                   Z
    ------   -----------------  -----------------  -----------------
       1        0.000005368733     0.000009899959    -0.000005524847
       2       -0.000562160754     0.001344450048    -0.000021005894
       3       -0.000005395055     0.000005498647    -0.000001145853
       4        0.000671803137    -0.001669087375     0.000214269502
       5        0.000001245079    -0.000002692430     0.000000897868
       6        0.000000098467    -0.000000898804    -0.000000546870
       7       -0.000000436626    -0.000002963428    -0.000000784491
       8        0.000417339666    -0.001035643742    -0.001001074394
       9       -0.000535217891     0.001347110443     0.000809387381
      10        0.000005704486     0.000004512531     0.000001628641
      11        0.000001650759    -0.000000185849     0.000003898959

  **** Optimization is complete! (in 7 steps) ****
    Final optimized geometry and variables:
    Molecular point group: c1

    Geometry (in Angstrom), charge = 0, multiplicity = 1:

    O            0.192141342990     0.073525551146     1.351941444533
    C           -0.337202704367    -0.134836929842     0.309179660695
    C           -1.732284333420    -0.672468030507     0.141749458112
    O            0.236939594005     0.078251602246    -0.868249655659
    H           -2.329709159157     0.030199144682    -0.427400681210
    H           -2.176085850502    -0.835947834183     1.112338334641
    H           -1.700998526071    -1.602490310144    -0.413980376242
    C            1.547540584333     0.617463568472    -0.889523588370
    H            1.625699172658     1.191666156287    -1.800145402759
    H            2.272721325635    -0.185016879120    -0.890264325005
    H            1.713274194286     1.253185086349    -0.034818034626

  Mulliken Charges: (a.u.)
   Center  Symbol    Alpha    Beta     Spin     Total
       1     O     4.28181  4.28181  0.00000 -0.56362
       2     C     2.62230  2.62230  0.00000  0.75540
       3     C     3.28188  3.28188  0.00000 -0.56377
       4     O     4.30061  4.30061  0.00000 -0.60122
       5     H     0.40017  0.40017  0.00000  0.19966
       6     H     0.39672  0.39672  0.00000  0.20656
       7     H     0.39987  0.39987  0.00000  0.20026
       8     C     3.09526  3.09526  0.00000 -0.19053
       9     H     0.40960  0.40960  0.00000  0.18081
      10     H     0.41247  0.41247  0.00000  0.17506
      11     H     0.39931  0.39931  0.00000  0.20138

   Total alpha = 20.00000, Total beta = 20.00000, Total charge = -0.00000
