  ==> Input File <==

--------------------------------------------------------------------------
set {
	reference rhf
	basis cc-pvtz
}

set_num_threads( 4 )
memory 2 gb

molecule MOL {
0 1

H	 2.728065	 -0.555581	 0.876016
O	 1.940346	 -0.943894	 0.526091
C	 0.975770	 -0.028532	 0.544200
C	 -0.318151	 -0.570512	 0.000144
O	 1.156258	 1.068041	 0.947835
C	 -1.454884	 0.441630	 -0.000560
H	 -0.115933	 -0.936588	 -1.001348
H	 -0.570941	 -1.446471	 0.588951
C	 -2.822577	 -0.232186	 0.000063
H	 -1.359760	 1.084704	 -0.867077
H	 -1.359641	 1.085996	 0.864983
H	 -2.954352	 -0.858985	 -0.875745
H	 -3.615886	 0.505352	 0.000019
H	 -2.953878	 -0.858359	 0.876394

	symmetry c1
}
set optking {
	frozen_dihedral = ("
		7 4 6 10
	")
}

ee = optimize('scf')
oeprop('DIPOLE', 'QUADRUPOLE', 'MULLIKEN_CHARGES')
f=open( 'psi4out.xyz', 'w' )
f.write( "14  " )
f.write( str(ee) + "\n" )
f.write( MOL.save_string_xyz() )
f.close()
--------------------------------------------------------------------------

    Molecular point group: c1
  Charge       = 0
  Multiplicity = 1
  Basis Set: CC-PVTZ
  Basis Set:
  @DF-RHF Final Energy:  -305.99933693489709
    Total Energy =                       -305.9993369348970305
    Molecular point group: c1
  Basis Set: CC-PVTZ
  Basis Set:
  Basis Set: CC-PVTZ
  Basis Set:
  @DF-RHF Final Energy:  -305.99952596990477
    Total Energy =                       -305.9995259699048233
  Basis Set: CC-PVTZ
  Basis Set:
  Basis Set: CC-PVTZ
  Basis Set:
  @DF-RHF Final Energy:  -305.99936067805402
    Total Energy =                       -305.9993606780538471
  Basis Set: CC-PVTZ
  Basis Set:
  Basis Set: CC-PVTZ
  Basis Set:
  @DF-RHF Final Energy:  -305.99955875322036
    Total Energy =                       -305.9995587532205263
  Basis Set: CC-PVTZ
  Basis Set:
  Basis Set: CC-PVTZ
  Basis Set:
  @DF-RHF Final Energy:  -305.99955991281007
    Total Energy =                       -305.9995599128102413
  Basis Set: CC-PVTZ
  Basis Set:
  Charge       = 0
  Multiplicity = 1
  Basis Set: CC-PVTZ
  Basis Set:

    Orbital Energies (a.u.)
    -----------------------

    Doubly Occupied:

       1A    -20.604355     2A    -20.541121     3A    -11.373979
       4A    -11.240075     5A    -11.223514     6A    -11.215049
       7A     -1.478054     8A     -1.369545     9A     -1.083550
      10A     -0.980938    11A     -0.858874    12A     -0.792394
      13A     -0.704291    14A     -0.691959    15A     -0.669290
      16A     -0.618114    17A     -0.597059    18A     -0.573446
      19A     -0.548908    20A     -0.503796    21A     -0.491998
      22A     -0.484876    23A     -0.482658    24A     -0.447599

  @DF-RHF Final Energy:  -305.99955998320434

   => Energetics <=

    Nuclear Repulsion Energy =            240.4442050824117416
    One-Electron Energy =                -893.7366462687552939
    Two-Electron Energy =                 347.2928812031394727
    DFT Exchange-Correlation Energy =       0.0000000000000000
    Empirical Dispersion Energy =           0.0000000000000000
    PCM Polarization Energy =               0.0000000000000000
    EFP Energy =                            0.0000000000000000
    Total Energy =                       -305.9995599832041080
    Molecular point group: c1
  Basis Set: CC-PVTZ
  Basis Set:

  -Total Gradient:
     Atom            X                  Y                   Z
    ------   -----------------  -----------------  -----------------
       1       -0.000004554050     0.000000965811     0.000000224434
       2       -0.000002207440    -0.000002577861    -0.000007886337
       3        0.000013653909    -0.000014188482     0.000002110454
       4       -0.003338998954    -0.003726185268     0.000153010063
       5       -0.000003200382     0.000019582242     0.000013274819
       6        0.002986515758     0.003333726741     0.002117934532
       7        0.002284174231     0.002552913862    -0.000464569542
       8        0.000003545443     0.000005259053     0.000012183966
       9       -0.000000310078     0.000000222626     0.000003408356
      10       -0.001935132084    -0.002155706465    -0.001822382327
      11       -0.000000194729    -0.000011325146    -0.000005366066
      12       -0.000000168827     0.000000751645    -0.000003527355
      13       -0.000002936647     0.000000218448     0.000003673236
      14       -0.000000186145    -0.000003657204    -0.000002088231

  **** Optimization is complete! (in 6 steps) ****
    Final optimized geometry and variables:
    Molecular point group: c1

    Geometry (in Angstrom), charge = 0, multiplicity = 1:

    H            2.786986133996    -0.502947624412     0.486201166135
    O            1.989616976175    -0.892997956933     0.160957159782
    C            1.028154474128     0.025628694052     0.193698848010
    C           -0.280090080493    -0.523008735171    -0.313963666968
    O            1.223714843139     1.125906632524     0.579737651174
    C           -1.416088749502     0.495515120692    -0.313461702745
    H           -0.078490600265    -0.888288122710    -1.315338288849
    H           -0.516832678702    -1.390972613202     0.291584761704
    C           -2.785409322321    -0.177230162380    -0.362178838312
    H           -1.316707479401     1.139016747115    -1.179976505186
    H           -1.341110299838     1.124931551161     0.562184996984
    H           -2.884787970190    -0.810372243253    -1.237942625992
    H           -3.577123176927     0.561330737043    -0.398448538984
    H           -2.950398581954    -0.796673661940     0.513079645472

  Mulliken Charges: (a.u.)
   Center  Symbol    Alpha    Beta     Spin     Total
       1     H     0.38231  0.38231  0.00000  0.23538
       2     O     4.16055  4.16055  0.00000 -0.32109
       3     C     2.80415  2.80415  0.00000  0.39169
       4     C     3.10702  3.10702  0.00000 -0.21404
       5     O     4.19057  4.19057  0.00000 -0.38114
       6     C     3.08177  3.08177  0.00000 -0.16354
       7     H     0.43697  0.43697  0.00000  0.12606
       8     H     0.43922  0.43922  0.00000  0.12155
       9     C     3.14975  3.14975  0.00000 -0.29950
      10     H     0.45054  0.45054  0.00000  0.09891
      11     H     0.44043  0.44043  0.00000  0.11915
      12     H     0.45556  0.45556  0.00000  0.08889
      13     H     0.44590  0.44590  0.00000  0.10820
      14     H     0.45526  0.45526  0.00000  0.08948

   Total alpha = 24.00000, Total beta = 24.00000, Total charge = -0.00000
