                              Psi4 1.0.54 Driver

  ==> Input File <==

--------------------------------------------------------------------------
set {
	reference rhf
	basis cc-pvtz
}

set_num_threads( 4 )
memory 2 gb

molecule MOL {
0 1

H	 -3.258660	 -0.290394	 1.471450
C	 -3.307964	 -0.275695	 0.374072
C	 -2.653809	 0.914422	 -0.273689
O	 -3.855140	 -1.148880	 -0.205112
C	 -1.216901	 1.136108	 0.207794
H	 -2.700131	 0.790676	 -1.347875
H	 -3.256452	 1.781007	 -0.010713
C	 -0.247837	 0.040196	 -0.230469
H	 -0.872882	 2.093195	 -0.169002
H	 -1.209325	 1.218376	 1.291938
C	 1.181757	 0.280428	 0.247371
H	 -0.259600	 -0.030819	 -1.314870
H	 -0.591284	 -0.923375	 0.136958
C	 2.151032	 -0.811012	 -0.202643
H	 1.515939	 1.247397	 -0.115449
H	 1.191514	 0.341223	 1.333422
C	 3.580021	 -0.656538	 0.320835
H	 2.170545	 -0.847575	 -1.289412
H	 1.766632	 -1.772905	 0.124928
C	 4.457730	 0.294323	 -0.489457
H	 4.047695	 -1.636102	 0.332152
H	 3.548895	 -0.324937	 1.355426
H	 4.502198	 -0.008908	 -1.530644
H	 4.090729	 1.313123	 -0.457179
H	 5.471393	 0.302314	 -0.105546

	symmetry c1
}
set optking {
	frozen_dihedral = ("
		20 17 14 18
	")
}

ee,wfn = optimize('scf', return_wfn=True)
oeprop( wfn, 'DIPOLE', 'QUADRUPOLE', 'MULLIKEN_CHARGES')
f=open( 'psi4out.xyz', 'w' )
f.write( "25  " )
f.write( str(ee) + "\n" )
f.write( MOL.save_string_xyz() )
f.close()
--------------------------------------------------------------------------

    Molecular point group: c1
  Charge       = 0
  Multiplicity = 1
  Basis Set: CC-PVTZ
  Basis Set:
  @DF-RHF Final Energy:  -387.25938019934341
    Total Energy =                       -387.2593801993433544
    Molecular point group: c1
  Basis Set: CC-PVTZ
  Basis Set:
  Basis Set: CC-PVTZ
  Basis Set:
  @DF-RHF Final Energy:  -387.25964008388905
    Total Energy =                       -387.2596400838891668
  Basis Set: CC-PVTZ
  Basis Set:
  Basis Set: CC-PVTZ
  Basis Set:
  @DF-RHF Final Energy:  -387.25968120889445
    Total Energy =                       -387.2596812088941078
  Basis Set: CC-PVTZ
  Basis Set:
  Basis Set: CC-PVTZ
  Basis Set:
  @DF-RHF Final Energy:  -387.25967079132135
    Total Energy =                       -387.2596707913220371
  Basis Set: CC-PVTZ
  Basis Set:
  Basis Set: CC-PVTZ
  Basis Set:
  @DF-RHF Final Energy:  -387.25967869537220
    Total Energy =                       -387.2596786953724859
  Basis Set: CC-PVTZ
  Basis Set:
  Basis Set: CC-PVTZ
  Basis Set:
  @DF-RHF Final Energy:  -387.25968374514275
    Total Energy =                       -387.2596837451424108
  Basis Set: CC-PVTZ
  Basis Set:
  Charge       = 0
  Multiplicity = 1
  Basis Set: CC-PVTZ
  Basis Set:

    Orbital Energies (a.u.)
    -----------------------

    Doubly Occupied:

       1A    -20.551362     2A    -11.320970     3A    -11.233788
       4A    -11.232849     5A    -11.221644     6A    -11.217856
       7A    -11.216067     8A    -11.214912     9A    -11.209093
      10A     -1.406379    11A     -1.105257    12A     -1.070875
      13A     -1.014910    14A     -0.943683    15A     -0.873641
      16A     -0.819572    17A     -0.789247    18A     -0.785259
      19A     -0.667998    20A     -0.663510    21A     -0.634441
      22A     -0.626949    23A     -0.604712    24A     -0.595175
      25A     -0.576455    26A     -0.550822    27A     -0.535195
      28A     -0.528011    29A     -0.508540    30A     -0.498954
      31A     -0.490327    32A     -0.480758    33A     -0.467081
      34A     -0.458896    35A     -0.441784    36A     -0.411867

  @DF-RHF Final Energy:  -387.25968376067647

   => Energetics <=

    Nuclear Repulsion Energy =            439.1063271418554450
    One-Electron Energy =               -1394.7943426752785854
    Two-Electron Energy =                 568.4283317727467875
    DFT Exchange-Correlation Energy =       0.0000000000000000
    Empirical Dispersion Energy =           0.0000000000000000
    PCM Polarization Energy =               0.0000000000000000
    EFP Energy =                            0.0000000000000000
    Total Energy =                       -387.2596837606763529
    Molecular point group: c1
  Basis Set: CC-PVTZ
  Basis Set:

  -Total Gradient:
     Atom            X                  Y                   Z
    ------   -----------------  -----------------  -----------------
       1        0.000001819062     0.000000025589    -0.000000872236
       2       -0.000000878924     0.000001204958    -0.000002611383
       3       -0.000001655690    -0.000000086627     0.000000580381
       4        0.000001258060    -0.000006162279    -0.000001593155
       5        0.000005506042     0.000007000521    -0.000011578506
       6       -0.000002040528     0.000003533041    -0.000001624093
       7        0.000000188678    -0.000002371188     0.000004969592
       8       -0.000007150444    -0.000009937916     0.000016452417
       9        0.000005053947    -0.000002401228     0.000000030857
      10        0.000000143260     0.000002057128     0.000000850718
      11       -0.000002758193    -0.000004155355     0.000007299275
      12        0.000000508101     0.000003910003     0.000002857554
      13       -0.000003278080    -0.000000736025    -0.000000014964
      14        0.000535492557    -0.003469573433    -0.000171583184
      15        0.000004774018    -0.000004883703    -0.000000854832
      16       -0.000008641939     0.000004519539     0.000001484271
      17       -0.000784296035     0.002494408118     0.001312261967
      18       -0.000262200600     0.002363422427    -0.000198926986
      19        0.000002256424     0.000006706109     0.000004110719
      20        0.000513095714    -0.001381560877    -0.000963812755
      21       -0.000002207631     0.000001588026    -0.000003582812
      22        0.000006045855    -0.000000368549     0.000005614067
      23        0.000004488664    -0.000000748855    -0.000002444209
      24        0.000001060045    -0.000003571196    -0.000000980265
      25       -0.000006582359    -0.000001818231     0.000003967560

  **** Optimization is complete! (in 7 steps) ****
    Final optimized geometry and variables:
    Molecular point group: c1

    Geometry (in Angstrom), charge = 0, multiplicity = 1:

    H           -3.326057795846    -0.177181647911     1.406306808270
    C           -3.335547513824    -0.154139641883     0.307993795275
    C           -2.618723651796     1.016891032621    -0.307507829186
    O           -3.891024059604    -1.004502997023    -0.296674189538
    C           -1.194408084056     1.188460045758     0.228461943223
    H           -2.629016743655     0.900253680161    -1.383449459435
    H           -3.202075529984     1.901539482828    -0.061717019790
    C           -0.247079439341     0.061581686913    -0.177689346068
    H           -0.804246787550     2.134392944124    -0.131221049539
    H           -1.224896547275     1.267336145525     1.312427748708
    C            1.172102354198     0.254691338006     0.348966229142
    H           -0.224452484955    -0.009268436824    -1.261870827812
    H           -0.633960191334    -0.890397984158     0.177033366551
    C            2.119756282092    -0.877022298572    -0.048439024782
    H            1.558596345327     1.203382377996    -0.013003997859
    H            1.144998365965     0.330925828817     1.433323783897
    C            3.559252888761    -0.679706092038     0.438638771104
    H            2.118560456088    -0.964990800443    -1.131930163516
    H            1.729657062000    -1.811409794286     0.342650054774
    C            4.392515712751     0.244911798053    -0.445608845421
    H            4.052070103266    -1.645999794832     0.478198065833
    H            3.549685727710    -0.304927969196     1.458206385593
    H            4.470271654219    -0.152347891721    -1.451961532115
    H            3.960560206833     1.237076451059    -0.515278193635
    H            5.397770023948     0.354152460112    -0.054940678223

  Mulliken Charges: (a.u.)
   Center  Symbol    Alpha    Beta     Spin     Total
       1     H     0.46419  0.46419  0.00000  0.07161
       2     C     2.90482  2.90482  0.00000  0.19036
       3     C     3.08907  3.08907  0.00000 -0.17814
       4     O     4.16626  4.16626  0.00000 -0.33252
       5     C     3.11600  3.11600  0.00000 -0.23200
       6     H     0.44290  0.44290  0.00000  0.11420
       7     H     0.44050  0.44050  0.00000  0.11901
       8     C     3.09056  3.09056  0.00000 -0.18111
       9     H     0.44307  0.44307  0.00000  0.11385
      10     H     0.44984  0.44984  0.00000  0.10032
      11     C     3.09153  3.09153  0.00000 -0.18306
      12     H     0.44957  0.44957  0.00000  0.10086
      13     H     0.44823  0.44823  0.00000  0.10355
      14     C     3.09488  3.09488  0.00000 -0.18977
      15     H     0.45251  0.45251  0.00000  0.09497
      16     H     0.45413  0.45413  0.00000  0.09175
      17     C     3.09113  3.09113  0.00000 -0.18227
      18     H     0.45478  0.45478  0.00000  0.09043
      19     H     0.44656  0.44656  0.00000  0.10687
      20     C     3.14883  3.14883  0.00000 -0.29766
      21     H     0.44765  0.44765  0.00000  0.10471
      22     H     0.45540  0.45540  0.00000  0.08919
      23     H     0.45449  0.45449  0.00000  0.09103
      24     H     0.45587  0.45587  0.00000  0.08826
      25     H     0.44722  0.44722  0.00000  0.10555

   Total alpha = 36.00000, Total beta = 36.00000, Total charge =  0.00000

*** Psi4 exiting successfully. Buy a developer a beer!
