  ==> Input File <==

--------------------------------------------------------------------------
set {
	reference rhf
	basis 6-31G*
}

set_num_threads( 4 )
memory 2 gb

molecule MOL {
0 1

H	 -2.755856	 2.181183	 1.133757
C	 -2.134166	 1.662258	 1.860641
O	 -0.829732	 1.513404	 1.400607
H	 -2.094834	 2.247625	 2.768903
H	 -2.593144	 0.699680	 2.082474
C	 -0.719715	 0.768384	 0.229244
C	 0.719720	 0.768376	 -0.229267
H	 -1.040452	 -0.259479	 0.403372
H	 -1.346131	 1.186845	 -0.555930
O	 1.392611	 -0.295398	 0.366430
H	 0.750534	 0.687200	 -1.313918
H	 1.185043	 1.714359	 0.050526
C	 2.706965	 -0.449871	 -0.062409
H	 2.756559	 -0.644779	 -1.131878
H	 3.305899	 0.433456	 0.155466
H	 3.125548	 -1.294566	 0.467107

	symmetry c1
}
set optking {
	frozen_dihedral = ("
		3 6 7 11
	")
}

ee = optimize('scf')
oeprop('DIPOLE', 'QUADRUPOLE', 'MULLIKEN_CHARGES')
f=open( 'psi4out.xyz', 'w' )
f.write( "16  " )
f.write( str(ee) + "\n" )
f.write( MOL.save_string_xyz() )
f.close()
--------------------------------------------------------------------------

    Molecular point group: c1
  Charge       = 0
  Multiplicity = 1
  Basis Set: 6-31G*
  Basis Set:
  @DF-RHF Final Energy:  -306.97591851020201
    Total Energy =                       -306.9759185102020638
    Molecular point group: c1
  Basis Set: 6-31G*
  Basis Set:
  Basis Set: 6-31G*
  Basis Set:
  @DF-RHF Final Energy:  -306.97650664041930
    Total Energy =                       -306.9765066404195295
  Basis Set: 6-31G*
  Basis Set:
  Basis Set: 6-31G*
  Basis Set:
  @DF-RHF Final Energy:  -306.97656450457771
    Total Energy =                       -306.9765645045777092
  Basis Set: 6-31G*
  Basis Set:
  Charge       = 0
  Multiplicity = 1
  Basis Set: 6-31G*
  Basis Set:

    Orbital Energies (a.u.)
    -----------------------

    Doubly Occupied:

       1A    -20.555089     2A    -20.554588     3A    -11.268570
       4A    -11.267887     5A    -11.264275     6A    -11.264090
       7A     -1.387710     8A     -1.372294     9A     -1.029839
      10A     -0.937377    11A     -0.889934    12A     -0.826995
      13A     -0.682334    14A     -0.681613    15A     -0.656797
      16A     -0.634891    17A     -0.632935    18A     -0.598387
      19A     -0.542598    20A     -0.541279    21A     -0.509044
      22A     -0.479120    23A     -0.463445    24A     -0.421297
      25A     -0.410197

  @DF-RHF Final Energy:  -306.97656958942190

   => Energetics <=

    Nuclear Repulsion Energy =            257.5648066395369256
    One-Electron Energy =                -929.3375855958396414
    Two-Electron Energy =                 364.7962093668809302
    DFT Exchange-Correlation Energy =       0.0000000000000000
    Empirical Dispersion Energy =           0.0000000000000000
    PCM Polarization Energy =               0.0000000000000000
    EFP Energy =                            0.0000000000000000
    Total Energy =                       -306.9765695894218425
    Molecular point group: c1
  Basis Set: 6-31G*
  Basis Set:

  -Total Gradient:
     Atom            X                  Y                   Z
    ------   -----------------  -----------------  -----------------
       1       -0.000012962101    -0.000013374972     0.000004368431
       2        0.000012263650     0.000078387090     0.000057506652
       3       -0.000367492586     0.002007039588    -0.001522936255
       4       -0.000049437117    -0.000002102912     0.000025094450
       5        0.000009077296     0.000000284673    -0.000007583684
       6        0.000528006962    -0.001896899932     0.001832316623
       7       -0.000301745327    -0.003545467614    -0.000154622219
       8       -0.000012686903     0.000035878778     0.000063835100
       9       -0.000005503819    -0.000023914824    -0.000059884211
      10        0.000017604540     0.000079272718     0.000000395876
      11        0.000087943890     0.003388684068    -0.000292144088
      12        0.000041991879    -0.000045771260     0.000029057859
      13       -0.000023443269    -0.000071097620     0.000032713730
      14        0.000010227807     0.000010111337     0.000002566347
      15        0.000004077333     0.000005653005    -0.000002783899
      16        0.000062077764    -0.000006682122    -0.000007900710

  **** Optimization is complete! (in 4 steps) ****
    Final optimized geometry and variables:
    Molecular point group: c1

    Geometry (in Angstrom), charge = 0, multiplicity = 1:

    H           -2.983867249691     1.404426190416     0.656259013091
    C           -2.250283639986     0.970143952205     1.334089289159
    O           -0.987456544727     0.915567061304     0.752333729324
    H           -2.177660804465     1.592676401960     2.215245975312
    H           -2.596415488162    -0.018530333295     1.628601803787
    C           -0.929178117147     0.151550712049    -0.413529079258
    C            0.507947198444     0.072432395200    -0.887186940237
    H           -1.305979924487    -0.853699726225    -0.242627917827
    H           -1.544355672896     0.614461021558    -1.185493799980
    O            1.142494428906    -1.006667216556    -0.274940460614
    H            0.539390758936    -0.022582438961    -1.972719496231
    H            1.005392898116     1.005877444428    -0.633431307514
    C            2.502948303301    -1.099346831453    -0.552563694330
    H            2.685724870814    -1.217290273803    -1.619628154793
    H            3.040605700829    -0.219085545397    -0.206026111585
    H            2.883690705620    -1.968959104496    -0.034846173723

  Mulliken Charges: (a.u.)
   Center  Symbol    Alpha    Beta     Spin     Total
       1     H     0.43150  0.43150  0.00000  0.13699
       2     C     3.07988  3.07988  0.00000 -0.15977
       3     O     4.30369  4.30369  0.00000 -0.60738
       4     H     0.41151  0.41151  0.00000  0.17698
       5     H     0.42776  0.42776  0.00000  0.14449
       6     C     2.99524  2.99524  0.00000  0.00953
       7     C     2.99574  2.99574  0.00000  0.00853
       8     H     0.41870  0.41870  0.00000  0.16260
       9     H     0.43182  0.43182  0.00000  0.13637
      10     O     4.30324  4.30324  0.00000 -0.60649
      11     H     0.43164  0.43164  0.00000  0.13672
      12     H     0.41895  0.41895  0.00000  0.16211
      13     C     3.08004  3.08004  0.00000 -0.16008
      14     H     0.43124  0.43124  0.00000  0.13752
      15     H     0.42762  0.42762  0.00000  0.14476
      16     H     0.41144  0.41144  0.00000  0.17712

   Total alpha = 25.00000, Total beta = 25.00000, Total charge =  0.00000
