  ==> Input File <==

--------------------------------------------------------------------------
set {
	reference rhf
	basis 6-31G*
}

set_num_threads( 4 )
memory 2 gb

molecule MOL {
0 1

H	 2.845955	 -0.323208	 0.022310
C	 1.900140	 0.071967	 -0.330070
C	 0.778463	 -0.508087	 0.517968
H	 1.782469	 -0.206877	 -1.370777
H	 1.922247	 1.149867	 -0.254252
N	 -0.540928	 0.005139	 0.058438
H	 0.716718	 -1.581298	 0.454712
H	 0.859711	 -0.198647	 1.550086
O	 -1.199098	 0.617295	 0.840327
O	 -0.849262	 -0.232855	 -1.069742

	symmetry c1
}
set optking {
	frozen_dihedral = ("
		9 6 3 2
	")
}

ee = optimize('scf')
oeprop('DIPOLE', 'QUADRUPOLE', 'MULLIKEN_CHARGES')
f=open( 'psi4out.xyz', 'w' )
f.write( "10  " )
f.write( str(ee) + "\n" )
f.write( MOL.save_string_xyz() )
f.close()
--------------------------------------------------------------------------

    Molecular point group: c1
  Charge       = 0
  Multiplicity = 1
  Basis Set: 6-31G*
  Basis Set:
  @DF-RHF Final Energy:  -282.70033087228933
    Total Energy =                       -282.7003308722894417
    Molecular point group: c1
  Basis Set: 6-31G*
  Basis Set:
  Basis Set: 6-31G*
  Basis Set:
  @DF-RHF Final Energy:  -282.70037901065859
    Total Energy =                       -282.7003790106585370
  Basis Set: 6-31G*
  Basis Set:
  Basis Set: 6-31G*
  Basis Set:
  @DF-RHF Final Energy:  -282.69459824153932
    Total Energy =                       -282.6945982415393246
  Basis Set: 6-31G*
  Basis Set:
  Basis Set: 6-31G*
  Basis Set:
  @DF-RHF Final Energy:  -282.70041142018522
    Total Energy =                       -282.7004114201851621
  Basis Set: 6-31G*
  Basis Set:
  Basis Set: 6-31G*
  Basis Set:
  @DF-RHF Final Energy:  -282.70051366067861
    Total Energy =                       -282.7005136606786664
  Basis Set: 6-31G*
  Basis Set:
  Basis Set: 6-31G*
  Basis Set:
  @DF-RHF Final Energy:  -282.70051496847782
    Total Energy =                       -282.7005149684781031
  Basis Set: 6-31G*
  Basis Set:
  Charge       = 0
  Multiplicity = 1
  Basis Set: 6-31G*
  Basis Set:

    Orbital Energies (a.u.)
    -----------------------

    Doubly Occupied:

       1A    -20.604672     2A    -20.600369     3A    -15.848945
       4A    -11.303984     5A    -11.251447     6A     -1.632577
       7A     -1.418127     8A     -1.127169     9A     -0.967421
      10A     -0.837003    11A     -0.761229    12A     -0.737999
      13A     -0.725924    14A     -0.655095    15A     -0.590675
      16A     -0.562679    17A     -0.545422    18A     -0.485927
      19A     -0.478089    20A     -0.450138

  @DF-RHF Final Energy:  -282.70051534985100

   => Energetics <=

    Nuclear Repulsion Energy =            186.1846879604036360
    One-Electron Energy =                -754.6006244531864695
    Two-Electron Energy =                 285.7154211429318025
    DFT Exchange-Correlation Energy =       0.0000000000000000
    Empirical Dispersion Energy =           0.0000000000000000
    PCM Polarization Energy =               0.0000000000000000
    EFP Energy =                            0.0000000000000000
    Total Energy =                       -282.7005153498510595
    Molecular point group: c1
  Basis Set: 6-31G*
  Basis Set:

  -Total Gradient:
     Atom            X                  Y                   Z
    ------   -----------------  -----------------  -----------------
       1       -0.000000656899     0.000000981058    -0.000001745510
       2        0.000003302913     0.000001729663     0.000003108692
       3       -0.000003273832     0.000000713014     0.000001430457
       4        0.000003918532    -0.000004074254    -0.000004296520
       5       -0.000003267065    -0.000001196186     0.000001391647
       6       -0.000017479592     0.000029549205    -0.000017300222
       7       -0.000006233843     0.000007138719    -0.000002594778
       8       -0.000000692051    -0.000000861792     0.000011863147
       9        0.000018398856    -0.000008460997     0.000031433713
      10        0.000005982983    -0.000025518431    -0.000023290627

  **** Optimization is complete! (in 7 steps) ****
    Final optimized geometry and variables:
    Molecular point group: c1

    Geometry (in Angstrom), charge = 0, multiplicity = 1:

    H            2.846986093170    -0.310867815854     0.032621744045
    C            1.899777063368     0.070832048845    -0.330384660312
    C            0.778963223858    -0.500440932311     0.524929895434
    H            1.780347642314    -0.218627435884    -1.364962502904
    H            1.922646006338     1.152508137306    -0.266246909793
    N           -0.540424961508     0.009325227922     0.061646173705
    H            0.716893294204    -1.575172821483     0.432552013030
    H            0.857633438858    -0.219282496741     1.561429016746
    O           -1.197337976491     0.629672706336     0.838123253875
    O           -0.851147713781    -0.241716040125    -1.062961345628

  Mulliken Charges: (a.u.)
   Center  Symbol    Alpha    Beta     Spin     Total
       1     H     0.40586  0.40586  0.00000  0.18829
       2     C     3.25700  3.25700  0.00000 -0.51401
       3     C     3.09261  3.09261  0.00000 -0.18522
       4     H     0.39281  0.39281  0.00000  0.21437
       5     H     0.40270  0.40270  0.00000  0.19461
       6     N     3.21880  3.21880  0.00000  0.56241
       7     H     0.38711  0.38711  0.00000  0.22577
       8     H     0.38534  0.38534  0.00000  0.22931
       9     O     4.22729  4.22729  0.00000 -0.45458
      10     O     4.23048  4.23048  0.00000 -0.46095

   Total alpha = 20.00000, Total beta = 20.00000, Total charge = -0.00000
