  ==> Input File <==

--------------------------------------------------------------------------
set {
	reference rhf
	basis 6-31G*
}

set_num_threads( 1 )
memory 2 gb

molecule MOL {
0 1

H	 -2.485040	 -0.750161	 -0.736569
O	 -2.347518	 -0.290803	 0.079804
C	 -1.184022	 0.487508	 -0.006784
C	 0.062599	 -0.378592	 0.031606
H	 -1.176523	 1.099369	 -0.904519
H	 -1.187323	 1.153111	 0.844927
O	 1.171513	 0.459272	 -0.058250
H	 0.050699	 -1.089204	 -0.797170
H	 0.078739	 -0.954914	 0.954740
C	 2.397842	 -0.198080	 -0.002151
H	 2.508049	 -0.905315	 -0.822092
H	 3.173794	 0.550865	 -0.078850
H	 2.517602	 -0.735921	 0.936026

	symmetry c1
}
set optking {
	frozen_dihedral = ("
		8 4 3 5,
		10 7 4 8,
		4 7 10 13
	")
}

ee = energy('scf')
oeprop('DIPOLE', 'QUADRUPOLE', 'MULLIKEN_CHARGES')
f=open( 'psi4out.xyz', 'w' )
f.write( "13  " )
f.write( str(ee) + "\n" )
f.write( MOL.save_string_xyz() )
f.close()
--------------------------------------------------------------------------

    Molecular point group: c1

    Geometry (in Angstrom), charge = 0, multiplicity = 1:

       Center              X                  Y                   Z               Mass
    ------------   -----------------  -----------------  -----------------  -----------------
           H         -2.485226141601    -0.749894571805    -0.736681776517     1.007825032070
           O         -2.347704141601    -0.290536571805     0.079691223483    15.994914619560
           C         -1.184208141601     0.487774428195    -0.006896776517    12.000000000000
           C          0.062412858399    -0.378325571805     0.031493223483    12.000000000000
           H         -1.176709141601     1.099635428195    -0.904631776517     1.007825032070
           H         -1.187509141601     1.153377428195     0.844814223483     1.007825032070
           O          1.171326858399     0.459538428195    -0.058362776517    15.994914619560
           H          0.050512858399    -1.088937571805    -0.797282776517     1.007825032070
           H          0.078552858399    -0.954647571805     0.954627223483     1.007825032070
           C          2.397655858399    -0.197813571805    -0.002263776517    12.000000000000
           H          2.507862858399    -0.905048571805    -0.822204776517     1.007825032070
           H          3.173607858399     0.551131428195    -0.078962776517     1.007825032070
           H          2.517415858399    -0.735654571805     0.935913223483     1.007825032070

  Charge       = 0
  Multiplicity = 1
  Basis Set: 6-31G*
  Basis Set:

    Orbital Energies (a.u.)
    -----------------------

    Doubly Occupied:

       1A    -20.562689     2A    -20.560203     3A    -11.271187
       4A    -11.270466     5A    -11.269023     6A     -1.389152
       7A     -1.365284     8A     -1.018715     9A     -0.913488
      10A     -0.842310    11A     -0.709335    12A     -0.674311
      13A     -0.661201    14A     -0.637132    15A     -0.595892
      16A     -0.570166    17A     -0.545431    18A     -0.489762
      19A     -0.481673    20A     -0.438608    21A     -0.422416

  @DF-RHF Final Energy:  -267.95063758493143

   => Energetics <=

    Nuclear Repulsion Energy =            190.2577271616981136
    One-Electron Energy =                -743.0398630758845684
    Two-Electron Energy =                 284.8314983292550551
    DFT Exchange-Correlation Energy =       0.0000000000000000
    Empirical Dispersion Energy =           0.0000000000000000
    PCM Polarization Energy =               0.0000000000000000
    EFP Energy =                            0.0000000000000000
    Total Energy =                       -267.9506375849314281

  Mulliken Charges: (a.u.)
   Center  Symbol    Alpha    Beta     Spin     Total
       1     H     0.28141  0.28141  0.00000  0.43719
       2     O     4.37082  4.37082  0.00000 -0.74163
       3     C     3.00429  3.00429  0.00000 -0.00858
       4     C     2.99697  2.99697  0.00000  0.00607
       5     H     0.42224  0.42224  0.00000  0.15551
       6     H     0.40833  0.40833  0.00000  0.18334
       7     O     4.30736  4.30736  0.00000 -0.61472
       8     H     0.43771  0.43771  0.00000  0.12458
       9     H     0.42324  0.42324  0.00000  0.15352
      10     C     3.08007  3.08007  0.00000 -0.16013
      11     H     0.42925  0.42925  0.00000  0.14150
      12     H     0.41065  0.41065  0.00000  0.17870
      13     H     0.42767  0.42767  0.00000  0.14466

   Total alpha = 21.00000, Total beta = 21.00000, Total charge = -0.00000
