  ==> Input File <==

--------------------------------------------------------------------------
set {
	reference rhf
	basis cc-pvtz
}

set_num_threads( 4 )
memory 2 gb

molecule MOL {
0 1

H	 -2.816458	 -0.841657	 -0.064679
N	 -1.878861	 -0.711874	 0.250184
C	 -1.341419	 0.551458	 -0.220231
H	 -1.333674	 -1.468530	 -0.105118
C	 0.082190	 0.731516	 0.254705
H	 -1.357065	 0.652078	 -1.304747
H	 -1.939897	 1.357530	 0.189797
O	 0.881195	 -0.248324	 -0.336237
H	 0.440901	 1.722476	 -0.020063
H	 0.119896	 0.643586	 1.338114
C	 1.972982	 -0.639551	 0.428068
H	 2.514492	 -1.392214	 -0.126596
H	 2.640559	 0.196620	 0.625181
H	 1.661097	 -1.062345	 1.380190

	symmetry c1
}
set optking {
	frozen_dihedral = ("
		11 8 5 3
	")
}

ee = optimize('scf')
oeprop('DIPOLE', 'QUADRUPOLE', 'MULLIKEN_CHARGES')
f=open( 'psi4out.xyz', 'w' )
f.write( "14  " )
f.write( str(ee) + "\n" )
f.write( MOL.save_string_xyz() )
f.close()
--------------------------------------------------------------------------

    Molecular point group: c1
  Charge       = 0
  Multiplicity = 1
  Basis Set: CC-PVTZ
  Basis Set:
  @DF-RHF Final Energy:  -248.22462322889254
    Total Energy =                       -248.2246232288927104
    Molecular point group: c1
  Basis Set: CC-PVTZ
  Basis Set:
  Basis Set: CC-PVTZ
  Basis Set:
  @DF-RHF Final Energy:  -248.22471142274051
    Total Energy =                       -248.2247114227406541
  Basis Set: CC-PVTZ
  Basis Set:
  Basis Set: CC-PVTZ
  Basis Set:
  @DF-RHF Final Energy:  -248.22473133856192
    Total Energy =                       -248.2247313385619236
  Basis Set: CC-PVTZ
  Basis Set:
  Charge       = 0
  Multiplicity = 1
  Basis Set: CC-PVTZ
  Basis Set:

    Orbital Energies (a.u.)
    -----------------------

    Doubly Occupied:

       1A    -20.548833     2A    -15.524769     3A    -11.263297
       4A    -11.262900     5A    -11.239801     6A     -1.381719
       7A     -1.176833     8A     -1.000444     9A     -0.907268
      10A     -0.815331    11A     -0.686445    12A     -0.672700
      13A     -0.646686    14A     -0.615336    15A     -0.604594
      16A     -0.541313    17A     -0.530847    18A     -0.499299
      19A     -0.473502    20A     -0.418306    21A     -0.384407

  @DF-RHF Final Energy:  -248.22473203136971

   => Energetics <=

    Nuclear Repulsion Energy =            195.2936780424497840
    One-Electron Energy =                -724.6475634162732149
    Two-Electron Energy =                 281.1291533424534350
    DFT Exchange-Correlation Energy =       0.0000000000000000
    Empirical Dispersion Energy =           0.0000000000000000
    PCM Polarization Energy =               0.0000000000000000
    EFP Energy =                            0.0000000000000000
    Total Energy =                       -248.2247320313700243
    Molecular point group: c1
  Basis Set: CC-PVTZ
  Basis Set:

  -Total Gradient:
     Atom            X                  Y                   Z
    ------   -----------------  -----------------  -----------------
       1       -0.000013651164    -0.000023936563    -0.000019348830
       2        0.000019665607     0.000027439225     0.000006578166
       3       -0.000351018172    -0.001160934203     0.001545676785
       4        0.000008047408    -0.000045441802    -0.000019718955
       5       -0.000030204673     0.000961836054    -0.001686572156
       6        0.000000245237    -0.000008957545     0.000008458199
       7        0.000016624938     0.000039020817     0.000003032821
       8        0.001599648320     0.001791927149    -0.000767770127
       9       -0.000003199511    -0.000003751166     0.000007723520
      10       -0.000014169143    -0.000019742480    -0.000005866253
      11       -0.001206016368    -0.001575804621     0.000949082427
      12        0.000007117115     0.000000243235    -0.000008563612
      13       -0.000026501663     0.000000897386    -0.000012817728
      14       -0.000006587929     0.000017204515     0.000000105743

  **** Optimization is complete! (in 4 steps) ****
    Final optimized geometry and variables:
    Molecular point group: c1

    Geometry (in Angstrom), charge = 0, multiplicity = 1:

    H           -2.774794058015    -0.749818588850    -0.114407588170
    N           -1.826482682350    -0.629962726026     0.171040347792
    C           -1.297805851631     0.637347381610    -0.298668022127
    H           -1.299126494646    -1.382837066625    -0.217709710718
    C            0.126514220423     0.821449441555     0.175658738469
    H           -1.319714683514     0.738923866677    -1.383140757860
    H           -1.898787234134     1.440601012657     0.113630299540
    O            0.933568690882    -0.163527119361    -0.402416139803
    H            0.492083880399     1.809074057222    -0.097031165000
    H            0.148272382273     0.737164913950     1.258428136827
    C            2.029879653293    -0.554910924449     0.357453433197
    H            2.564883175475    -1.310156730713    -0.200439475466
    H            2.704550196823     0.277033903236     0.548164138585
    H            1.720949895716    -0.974183088811     1.311161460432

  Mulliken Charges: (a.u.)
   Center  Symbol    Alpha    Beta     Spin     Total
       1     H     0.42983  0.42983  0.00000  0.14034
       2     N     3.69562  3.69562  0.00000 -0.39124
       3     C     3.02384  3.02384  0.00000 -0.04767
       4     H     0.42250  0.42250  0.00000  0.15499
       5     C     2.96981  2.96981  0.00000  0.06039
       6     H     0.46418  0.46418  0.00000  0.07164
       7     H     0.45813  0.45813  0.00000  0.08374
       8     O     4.18495  4.18495  0.00000 -0.36990
       9     H     0.46299  0.46299  0.00000  0.07401
      10     H     0.46945  0.46945  0.00000  0.06111
      11     C     3.03341  3.03341  0.00000 -0.06683
      12     H     0.44901  0.44901  0.00000  0.10198
      13     H     0.46894  0.46894  0.00000  0.06211
      14     H     0.46733  0.46733  0.00000  0.06533

   Total alpha = 21.00000, Total beta = 21.00000, Total charge =  0.00000
