                              Psi4 1.0.54 Driver

  ==> Input File <==

--------------------------------------------------------------------------
set {
	reference rhf
	basis cc-pvtz
}

set_num_threads( 4 )
memory 2 gb

molecule MOL {
0 1

O	 -1.278239	 1.034789	 -0.784693
C	 -1.204115	 0.062668	 -0.112312
C	 -2.386398	 -0.667698	 0.460323
O	 -0.068058	 -0.518372	 0.226882
H	 -2.382952	 -1.693172	 0.114333
H	 -3.296656	 -0.175702	 0.158400
H	 -2.312537	 -0.685191	 1.540100
C	 1.169086	 0.037484	 -0.230612
C	 1.039518	 1.540226	 -0.081975
C	 1.431914	 -0.397219	 -1.661193
H	 1.955421	 -0.332002	 0.409892
H	 0.847576	 1.807546	 0.949261
H	 1.956177	 2.024550	 -0.396423
H	 0.226206	 1.917661	 -0.690254
H	 2.362298	 0.032748	 -2.013348
H	 1.510940	 -1.473346	 -1.727177
H	 0.632776	 -0.062516	 -2.312835

	symmetry c1
}
set optking {
	frozen_dihedral = ("
		11 8 4 2
	")
}

ee,wfn = optimize('scf', return_wfn=True)
oeprop( wfn, 'DIPOLE', 'QUADRUPOLE', 'MULLIKEN_CHARGES')
f=open( 'psi4out.xyz', 'w' )
f.write( "17  " )
f.write( str(ee) + "\n" )
f.write( MOL.save_string_xyz() )
f.close()
--------------------------------------------------------------------------

    Molecular point group: c1
  Charge       = 0
  Multiplicity = 1
  Basis Set: CC-PVTZ
  Basis Set:
  @DF-RHF Final Energy:  -345.01504344759098
    Total Energy =                       -345.0150434475909833
    Molecular point group: c1
  Basis Set: CC-PVTZ
  Basis Set:
  Basis Set: CC-PVTZ
  Basis Set:
  @DF-RHF Final Energy:  -344.89095779997785
    Total Energy =                       -344.8909577999779117
  Basis Set: CC-PVTZ
  Basis Set:
  Basis Set: CC-PVTZ
  Basis Set:
  @DF-RHF Final Energy:  -345.00059403492992
    Total Energy =                       -345.0005940349299181
  Basis Set: CC-PVTZ
  Basis Set:
  Basis Set: CC-PVTZ
  Basis Set:
  @DF-RHF Final Energy:  -345.03431823539711
    Total Energy =                       -345.0343182353971088
  Basis Set: CC-PVTZ
  Basis Set:
  @DF-RHF Final Energy:  -345.03657242060507
    Total Energy =                       -345.0365724206052391
  @DF-RHF Final Energy:  -345.03683417542186
    Total Energy =                       -345.0368341754218022
  @DF-RHF Final Energy:  -345.03632309985625
    Total Energy =                       -345.0363230998565882
  @DF-RHF Final Energy:  -345.03698710296135
    Total Energy =                       -345.0369871029613478
  Basis Set: CC-PVTZ
  Basis Set:
  @DF-RHF Final Energy:  -345.03699667514076
    Total Energy =                       -345.0369966751407560
  Basis Set: CC-PVTZ
  Basis Set:
  Basis Set: CC-PVTZ
  Basis Set:
  @DF-RHF Final Energy:  -345.03699842758874
    Total Energy =                       -345.0369984275889692
  Basis Set: CC-PVTZ
  Basis Set:
  Basis Set: CC-PVTZ
  Basis Set:
  @DF-RHF Final Energy:  -345.03699951016188
    Total Energy =                       -345.0369995101621043
  Basis Set: CC-PVTZ
  Basis Set:
  Charge       = 0
  Multiplicity = 1
  Basis Set: CC-PVTZ
  Basis Set:

    Orbital Energies (a.u.)
    -----------------------

    Doubly Occupied:

       1A    -20.589000     2A    -20.529506     3A    -11.366487
       4A    -11.292789     5A    -11.228945     6A    -11.214577
       7A    -11.211520     8A     -1.464624     9A     -1.363492
      10A     -1.077561    11A     -1.003583    12A     -0.946735
      13A     -0.868379    14A     -0.732953    15A     -0.696828
      16A     -0.673462    17A     -0.662443    18A     -0.616929
      19A     -0.585468    20A     -0.580920    21A     -0.569957
      22A     -0.552149    23A     -0.529931    24A     -0.519863
      25A     -0.501254    26A     -0.483178    27A     -0.448180
      28A     -0.431346

  @DF-RHF Final Energy:  -345.03699991335020

   => Energetics <=

    Nuclear Repulsion Energy =            326.9340225634177841
    One-Electron Energy =               -1118.4579241062119763
    Two-Electron Energy =                 446.4869016294435937
    DFT Exchange-Correlation Energy =       0.0000000000000000
    Empirical Dispersion Energy =           0.0000000000000000
    PCM Polarization Energy =               0.0000000000000000
    EFP Energy =                            0.0000000000000000
    Total Energy =                       -345.0369999133505985
    Molecular point group: c1
  Basis Set: CC-PVTZ
  Basis Set:

  -Total Gradient:
     Atom            X                  Y                   Z
    ------   -----------------  -----------------  -----------------
       1        0.000073659422    -0.000037813444     0.000048863789
       2        0.000977302757     0.000594362338     0.003940554660
       3        0.000017976755     0.000050245610     0.000063292631
       4       -0.001486715672    -0.000563378339    -0.005545003898
       5       -0.000011063556    -0.000018379875    -0.000039380237
       6       -0.000020713536    -0.000006024836    -0.000002528542
       7        0.000006497630    -0.000028206666     0.000009576082
       8        0.000111892839    -0.001874827531    -0.002500235831
       9       -0.000051603352     0.000019978171    -0.000045224621
      10       -0.000143620473     0.000055089924    -0.000047092907
      11        0.000444465702     0.001871520906     0.004119273119
      12        0.000020201729    -0.000024552977     0.000013892922
      13        0.000014371380    -0.000005386286    -0.000002766534
      14        0.000025125357    -0.000024935863    -0.000007829674
      15        0.000006715287    -0.000004857630    -0.000008678283
      16        0.000001162288     0.000010384001     0.000011452282
      17        0.000014345444    -0.000013217501    -0.000008164955

  **** Optimization is complete! (in 12 steps) ****
    Final optimized geometry and variables:
    Molecular point group: c1

    Geometry (in Angstrom), charge = 0, multiplicity = 1:

    O           -1.181006180999     1.032587608260     0.120332102379
    C           -1.037554190017    -0.117602910753     0.362583152075
    C           -2.106718423024    -0.994198863700     0.955632165440
    O            0.064684791537    -0.805237914292     0.135454112482
    H           -2.286817411218    -1.840331037853     0.305428409169
    H           -3.011996944510    -0.423478009848     1.084718739410
    H           -1.770509949967    -1.379498102431     1.909848311711
    C            1.299787640130    -0.204212422795    -0.284459604570
    C            1.682982420334     1.041431179621     0.503378582780
    C            1.293521804997     0.006161702065    -1.786705555405
    H            2.015979167772    -0.967567548725    -0.015203718332
    H            1.561702208089     0.872251052359     1.566786784884
    H            2.731787727697     1.245437157285     0.318540871218
    H            1.103997523264     1.905365823813     0.222287017296
    H            2.272348693017     0.334299404641    -2.116638123870
    H            1.053757186952    -0.917302054395    -2.298704793843
    H            0.567823038935     0.758665307715    -2.064974113592

  Mulliken Charges: (a.u.)
   Center  Symbol    Alpha    Beta     Spin     Total
       1     O     4.20123  4.20123  0.00000 -0.40246
       2     C     2.80195  2.80195  0.00000  0.39609
       3     C     3.13726  3.13726  0.00000 -0.27452
       4     O     4.16371  4.16371  0.00000 -0.32742
       5     H     0.44509  0.44509  0.00000  0.10981
       6     H     0.43891  0.43891  0.00000  0.12218
       7     H     0.44700  0.44700  0.00000  0.10600
       8     C     2.93749  2.93749  0.00000  0.12501
       9     C     3.16114  3.16114  0.00000 -0.32229
      10     C     3.15381  3.15381  0.00000 -0.30761
      11     H     0.44035  0.44035  0.00000  0.11930
      12     H     0.44886  0.44886  0.00000  0.10228
      13     H     0.44999  0.44999  0.00000  0.10002
      14     H     0.43355  0.43355  0.00000  0.13290
      15     H     0.45123  0.45123  0.00000  0.09754
      16     H     0.44711  0.44711  0.00000  0.10577
      17     H     0.44130  0.44130  0.00000  0.11739

   Total alpha = 28.00000, Total beta = 28.00000, Total charge = -0.00000

*** Psi4 exiting successfully. Buy a developer a beer!
