                              Psi4 1.0.54 Driver

  ==> Input File <==

--------------------------------------------------------------------------
set {
	reference rhf
	basis cc-pvtz
}

set_num_threads( 4 )
memory 2 gb

molecule MOL {
0 1

O	 2.868453	 1.353349	 -0.000734
C	 2.841259	 0.166180	 -0.000295
C	 1.542794	 -0.614730	 -0.000853
C	 4.113372	 -0.651103	 0.000743
C	 0.288398	 0.247429	 0.000314
H	 1.557171	 -1.273139	 -0.866508
H	 1.557484	 -1.274998	 0.863344
C	 -0.993089	 -0.581367	 -0.000217
H	 0.305153	 0.900562	 -0.864701
H	 0.305567	 0.898805	 0.866656
C	 -2.258482	 0.271340	 0.000669
H	 -1.002280	 -1.233920	 -0.870484
H	 -1.002061	 -1.235367	 0.868958
C	 -3.321996	 -0.221185	 0.977958
H	 -2.676605	 0.293129	 -1.002731
H	 -1.998041	 1.298863	 0.242525
C	 -4.583439	 0.635860	 0.973071
H	 -3.583804	 -1.247811	 0.736226
H	 -2.905326	 -0.242076	 1.981387
H	 -5.043665	 0.648988	 -0.009304
H	 -5.317169	 0.259519	 1.676654
H	 -4.360225	 1.662071	 1.245305
H	 4.145311	 -1.294584	 -0.871587
H	 4.970080	 0.004978	 -0.000091
H	 4.145223	 -1.291980	 0.874988

	symmetry c1
}
set optking {
	frozen_dihedral = ("
		15 11 8 12
	")
}

ee,wfn = optimize('scf', return_wfn=True)
oeprop( wfn, 'DIPOLE', 'QUADRUPOLE', 'MULLIKEN_CHARGES')
f=open( 'psi4out.xyz', 'w' )
f.write( "25  " )
f.write( str(ee) + "\n" )
f.write( MOL.save_string_xyz() )
f.close()
--------------------------------------------------------------------------

    Molecular point group: c1
  Charge       = 0
  Multiplicity = 1
  Basis Set: CC-PVTZ
  Basis Set:
  @DF-RHF Final Energy:  -387.27001599011902
    Total Energy =                       -387.2700159901193047
    Molecular point group: c1
  Basis Set: CC-PVTZ
  Basis Set:
  Basis Set: CC-PVTZ
  Basis Set:
  @DF-RHF Final Energy:  -387.27025994563553
    Total Energy =                       -387.2702599456356438
  Basis Set: CC-PVTZ
  Basis Set:
  Basis Set: CC-PVTZ
  Basis Set:
  @DF-RHF Final Energy:  -387.27032303934197
    Total Energy =                       -387.2703230393418607
  Basis Set: CC-PVTZ
  Basis Set:
  Basis Set: CC-PVTZ
  Basis Set:
  @DF-RHF Final Energy:  -387.26986633012712
    Total Energy =                       -387.2698663301272290
  Basis Set: CC-PVTZ
  Basis Set:
  Basis Set: CC-PVTZ
  Basis Set:
  @DF-RHF Final Energy:  -387.27033905708407
    Total Energy =                       -387.2703390570835609
  Basis Set: CC-PVTZ
  Basis Set:
  Charge       = 0
  Multiplicity = 1
  Basis Set: CC-PVTZ
  Basis Set:

    Orbital Energies (a.u.)
    -----------------------

    Doubly Occupied:

       1A    -20.538859     2A    -11.320521     3A    -11.229925
       4A    -11.226574     5A    -11.215296     6A    -11.214632
       7A    -11.213604     8A    -11.211378     9A    -11.206084
      10A     -1.398900    11A     -1.093905    12A     -1.057214
      13A     -1.015272    14A     -0.969032    15A     -0.891666
      16A     -0.816126    17A     -0.790639    18A     -0.731296
      19A     -0.658465    20A     -0.654194    21A     -0.635401
      22A     -0.624323    23A     -0.600713    24A     -0.583321
      25A     -0.566680    26A     -0.562680    27A     -0.539870
      28A     -0.530042    29A     -0.511409    30A     -0.492889
      31A     -0.486837    32A     -0.478338    33A     -0.464373
      34A     -0.457474    35A     -0.450581    36A     -0.401280

  @DF-RHF Final Energy:  -387.27033957912738

   => Energetics <=

    Nuclear Repulsion Energy =            439.7081414619668749
    One-Electron Energy =               -1396.2773777870236245
    Two-Electron Energy =                 569.2988967459297101
    DFT Exchange-Correlation Energy =       0.0000000000000000
    Empirical Dispersion Energy =           0.0000000000000000
    PCM Polarization Energy =               0.0000000000000000
    EFP Energy =                            0.0000000000000000
    Total Energy =                       -387.2703395791270395
    Molecular point group: c1
  Basis Set: CC-PVTZ
  Basis Set:

  -Total Gradient:
     Atom            X                  Y                   Z
    ------   -----------------  -----------------  -----------------
       1       -0.000028067067     0.000030809933    -0.000002871398
       2       -0.000007574191    -0.000025914704     0.000002292857
       3        0.000011252371    -0.000001676187    -0.000034590588
       4       -0.000004294428    -0.000018516022    -0.000013697070
       5       -0.000024281647     0.000036941030     0.000088528281
       6        0.000011846451    -0.000002170632     0.000001667744
       7        0.000003581289     0.000009408139    -0.000001000662
       8       -0.002440473879    -0.003546507336     0.002295467622
       9       -0.000006581307     0.000022563167     0.000000736887
      10        0.000035813602     0.000005595555     0.000004190598
      11        0.002657649266     0.003878854289    -0.001320718368
      12        0.001591304796     0.002325067768    -0.001774259651
      13       -0.000033930289     0.000043432092     0.000008339546
      14        0.000070903684     0.000019676454     0.000068337270
      15       -0.001836880036    -0.002699170575     0.000665618978
      16        0.000031723952    -0.000044950542     0.000014676441
      17       -0.000022127743    -0.000003393401    -0.000046964444
      18        0.000003739728     0.000000686837     0.000021627716
      19       -0.000023377732     0.000002558862     0.000012619140
      20        0.000006049331     0.000014346729     0.000008259426
      21       -0.000000127932    -0.000014280385    -0.000012101221
      22        0.000005570586    -0.000019576061     0.000005940838
      23        0.000008465547    -0.000008708145     0.000000069389
      24       -0.000017458212     0.000005115303    -0.000000203315
      25        0.000007273864    -0.000010192167     0.000008033985

  **** Optimization is complete! (in 6 steps) ****
    Final optimized geometry and variables:
    Molecular point group: c1

    Geometry (in Angstrom), charge = 0, multiplicity = 1:

    O            2.835062723105     1.272505297072    -0.226075124065
    C            2.802933183618     0.085580399318    -0.240351135927
    C            1.501446723376    -0.690226055530    -0.223041138614
    C            4.071319325808    -0.736797443881    -0.277115012861
    C            0.251066630082     0.176419854061    -0.186534391133
    H            1.495711391318    -1.339199096692    -1.095883471068
    H            1.530994738874    -1.360184388807     0.633443503096
    C           -1.035849020474    -0.647295941144    -0.162990252717
    H            0.249344355158     0.836050897458    -1.047172099562
    H            0.289771798203     0.821879879661     0.683617845201
    C           -2.306105713178     0.220793230046    -0.179373407453
    H           -1.034592280467    -1.303385584258    -1.028601044244
    H           -1.034917458847    -1.285640562918     0.715670829163
    C           -3.398136210606    -0.286926907152     0.761201473862
    H           -2.715761552910     0.245413258079    -1.184590209039
    H           -2.059900007318     1.244168789293     0.085596637969
    C           -4.674441922489     0.545004920674     0.703493853343
    H           -3.629756850767    -1.320334471566     0.516257146380
    H           -3.017780671227    -0.294375702366     1.779205790322
    H           -5.099598611211     0.541155205432    -0.294712599644
    H           -5.425667197788     0.160631816579     1.383944635913
    H           -4.480437829638     1.577647049442     0.974049828384
    H            4.081844936768    -1.368887673338    -1.158239400100
    H            4.930679027803    -0.084235233871    -0.287791790302
    H            4.119027567111    -1.389150457826     0.587896238400

  Mulliken Charges: (a.u.)
   Center  Symbol    Alpha    Beta     Spin     Total
       1     O     4.17061  4.17061  0.00000 -0.34122
       2     C     2.86209  2.86209  0.00000  0.27583
       3     C     3.11494  3.11494  0.00000 -0.22988
       4     C     3.15138  3.15138  0.00000 -0.30277
       5     C     3.08331  3.08331  0.00000 -0.16662
       6     H     0.44562  0.44562  0.00000  0.10875
       7     H     0.44523  0.44523  0.00000  0.10955
       8     C     3.09446  3.09446  0.00000 -0.18892
       9     H     0.44479  0.44479  0.00000  0.11042
      10     H     0.44641  0.44641  0.00000  0.10717
      11     C     3.09054  3.09054  0.00000 -0.18108
      12     H     0.45343  0.45343  0.00000  0.09314
      13     H     0.45479  0.45479  0.00000  0.09042
      14     C     3.08381  3.08381  0.00000 -0.16763
      15     H     0.45260  0.45260  0.00000  0.09479
      16     H     0.45141  0.45141  0.00000  0.09719
      17     C     3.15051  3.15051  0.00000 -0.30102
      18     H     0.45436  0.45436  0.00000  0.09129
      19     H     0.45522  0.45522  0.00000  0.08956
      20     H     0.45529  0.45529  0.00000  0.08943
      21     H     0.44879  0.44879  0.00000  0.10243
      22     H     0.45428  0.45428  0.00000  0.09145
      23     H     0.45039  0.45039  0.00000  0.09922
      24     H     0.43535  0.43535  0.00000  0.12930
      25     H     0.45040  0.45040  0.00000  0.09919

   Total alpha = 36.00000, Total beta = 36.00000, Total charge = -0.00000

*** Psi4 exiting successfully. Buy a developer a beer!
