                              Psi4 1.0.54 Driver

  ==> Input File <==

--------------------------------------------------------------------------
set {
	reference rhf
	basis cc-pvtz
}

set_num_threads( 4 )
memory 2 gb

molecule MOL {
0 1

O	 -2.081319	 -0.951530	 -0.502732
N	 -1.613558	 0.006676	 0.014756
C	 -0.329345	 -0.171618	 0.743966
O	 -2.068523	 1.100482	 -0.024385
C	 0.667145	 -0.901884	 -0.147555
H	 -0.564948	 -0.738225	 1.629328
H	 0.010173	 0.818680	 0.997480
C	 2.003248	 -1.105352	 0.562089
H	 0.248577	 -1.860330	 -0.431702
H	 0.813318	 -0.328097	 -1.055376
C	 3.022089	 -1.828352	 -0.311819
H	 1.844391	 -1.670928	 1.475503
H	 2.403424	 -0.141186	 0.861506
H	 2.663270	 -2.810292	 -0.599467
H	 3.224711	 -1.270226	 -1.219099
H	 3.959966	 -1.958666	 0.214077

	symmetry c1
}
set optking {
	frozen_dihedral = ("
		5 3 2 1
	")
}

ee,wfn = optimize('scf', return_wfn=True)
oeprop( wfn, 'DIPOLE', 'QUADRUPOLE', 'MULLIKEN_CHARGES')
f=open( 'psi4out.xyz', 'w' )
f.write( "16  " )
f.write( str(ee) + "\n" )
f.write( MOL.save_string_xyz() )
f.close()
--------------------------------------------------------------------------

    Molecular point group: c1
  Charge       = 0
  Multiplicity = 1
  Basis Set: CC-PVTZ
  Basis Set:
  @DF-RHF Final Energy:  -360.90853308364512
    Total Energy =                       -360.9085330836452385
    Molecular point group: c1
  Basis Set: CC-PVTZ
  Basis Set:
  Basis Set: CC-PVTZ
  Basis Set:
  @DF-RHF Final Energy:  -360.90417100891290
    Total Energy =                       -360.9041710089128969
  Basis Set: CC-PVTZ
  Basis Set:
  Basis Set: CC-PVTZ
  Basis Set:
  @DF-RHF Final Energy:  -360.90774289201693
    Total Energy =                       -360.9077428920169268
  Basis Set: CC-PVTZ
  Basis Set:
  Basis Set: CC-PVTZ
  Basis Set:
  @DF-RHF Final Energy:  -360.90895473906357
    Total Energy =                       -360.9089547390634607
  Basis Set: CC-PVTZ
  Basis Set:
  Basis Set: CC-PVTZ
  Basis Set:
  @DF-RHF Final Energy:  -360.90882650032438
    Total Energy =                       -360.9088265003246079
  Basis Set: CC-PVTZ
  Basis Set:
  Basis Set: CC-PVTZ
  Basis Set:
  @DF-RHF Final Energy:  -360.90902624180967
    Total Energy =                       -360.9090262418097836
  Basis Set: CC-PVTZ
  Basis Set:
  Charge       = 0
  Multiplicity = 1
  Basis Set: CC-PVTZ
  Basis Set:

    Orbital Energies (a.u.)
    -----------------------

    Doubly Occupied:

       1A    -20.591570     2A    -20.588869     3A    -15.837044
       4A    -11.297115     5A    -11.246977     6A    -11.240690
       7A    -11.224988     8A     -1.635938     9A     -1.420088
      10A     -1.135078    11A     -1.059363    12A     -0.948860
      13A     -0.843515    14A     -0.825492    15A     -0.759427
      16A     -0.742868    17A     -0.729582    18A     -0.674115
      19A     -0.615398    20A     -0.605798    21A     -0.566648
      22A     -0.539158    23A     -0.518479    24A     -0.503000
      25A     -0.495749    26A     -0.485854    27A     -0.469519
      28A     -0.453575

  @DF-RHF Final Energy:  -360.90902655464606

   => Energetics <=

    Nuclear Repulsion Energy =            312.6591466154718546
    One-Electron Energy =               -1111.0268332991677198
    Two-Electron Energy =                 437.4586601290502585
    DFT Exchange-Correlation Energy =       0.0000000000000000
    Empirical Dispersion Energy =           0.0000000000000000
    PCM Polarization Energy =               0.0000000000000000
    EFP Energy =                            0.0000000000000000
    Total Energy =                       -360.9090265546456067
    Molecular point group: c1
  Basis Set: CC-PVTZ
  Basis Set:

  -Total Gradient:
     Atom            X                  Y                   Z
    ------   -----------------  -----------------  -----------------
       1        0.000326167574     0.000035580187    -0.000506189011
       2       -0.000480211519    -0.000328465008     0.000713648423
       3        0.000298952679     0.000593176988    -0.000403507642
       4        0.000028585829     0.000126887909     0.000051887551
       5       -0.000144059582    -0.000455311561     0.000167188485
       6       -0.000002713022    -0.000011879282    -0.000024266824
       7       -0.000025802333     0.000025986962    -0.000001575900
       8       -0.000010729259     0.000018092520    -0.000011417250
       9       -0.000012346422    -0.000016946453     0.000007782214
      10       -0.000000281699     0.000000593426     0.000010315846
      11        0.000016197600     0.000010832434    -0.000003815342
      12       -0.000004031920    -0.000008374712    -0.000012692881
      13        0.000007371572     0.000003126528     0.000015109091
      14       -0.000004973018     0.000003455448     0.000005938804
      15        0.000002252464     0.000000557021    -0.000005127232
      16        0.000005621055     0.000002687594    -0.000003278332

  **** Optimization is complete! (in 7 steps) ****
    Final optimized geometry and variables:
    Molecular point group: c1

    Geometry (in Angstrom), charge = 0, multiplicity = 1:

    O           -2.034616401946    -0.391453915353    -0.495235918884
    N           -1.527077445419     0.550838374359     0.014556159642
    C           -0.207655806353     0.343886310821     0.677843582550
    O           -1.989751494795     1.640660935582     0.053148663026
    C            0.774428847146    -0.379840946753    -0.227868238882
    H           -0.430398140890    -0.236374829432     1.562356168433
    H            0.129897819225     1.324830613603     0.963616675968
    C            2.125592870444    -0.560854476510     0.460226534379
    H            0.363149482931    -1.340411087785    -0.504976215665
    H            0.901728590206     0.190439078344    -1.142337813244
    C            3.138057333185    -1.277801628554    -0.426039366958
    H            1.989252951368    -1.123131229987     1.379664602361
    H            2.521182771138     0.408685093627     0.748423732907
    H            2.784605445040    -2.264615297890    -0.703296589475
    H            3.320358564604    -0.722362436242    -1.339342663069
    H            4.085759638254    -1.395754215400     0.085049211823

  Mulliken Charges: (a.u.)
   Center  Symbol    Alpha    Beta     Spin     Total
       1     O     4.17328  4.17328  0.00000 -0.34655
       2     N     3.27622  3.27622  0.00000  0.44756
       3     C     3.04367  3.04367  0.00000 -0.08733
       4     O     4.16942  4.16942  0.00000 -0.33883
       5     C     3.09996  3.09996  0.00000 -0.19992
       6     H     0.43679  0.43679  0.00000  0.12643
       7     H     0.43137  0.43137  0.00000  0.13726
       8     C     3.09393  3.09393  0.00000 -0.18786
       9     H     0.43261  0.43261  0.00000  0.13478
      10     H     0.44370  0.44370  0.00000  0.11260
      11     C     3.14801  3.14801  0.00000 -0.29603
      12     H     0.45120  0.45120  0.00000  0.09760
      13     H     0.45071  0.45071  0.00000  0.09858
      14     H     0.45156  0.45156  0.00000  0.09689
      15     H     0.45214  0.45214  0.00000  0.09571
      16     H     0.44544  0.44544  0.00000  0.10912

   Total alpha = 28.00000, Total beta = 28.00000, Total charge =  0.00000

*** Psi4 exiting successfully. Buy a developer a beer!
