  ==> Input File <==

--------------------------------------------------------------------------
set {
	reference rhf
	basis 6-31G*
}

set_num_threads( 4 )
memory 2 gb

molecule MOL {
0 1

O	 0.624701	 1.348748	 -0.056369
C	 0.486307	 0.169203	 0.000779
C	 1.608116	 -0.841643	 0.000302
O	 -0.696876	 -0.424626	 0.071837
C	 2.990107	 -0.200498	 -0.000684
H	 1.468623	 -1.481519	 -0.865924
H	 1.469683	 -1.481289	 0.866878
H	 3.129736	 0.423364	 -0.875135
H	 3.757882	 -0.966877	 -0.001197
H	 3.130964	 0.423383	 0.873533
C	 -1.851589	 0.408422	 0.080144
C	 -3.062997	 -0.495905	 0.163783
H	 -1.860978	 1.006905	 -0.820586
H	 -1.795336	 1.080669	 0.925431
H	 -3.101914	 -1.166595	 -0.686993
H	 -3.969452	 0.100676	 0.172603
H	 -3.036043	 -1.092439	 1.068590

	symmetry c1
}
set optking {
	frozen_dihedral = ("
		4 2 3 6
	")
}

ee = optimize('scf')
oeprop('DIPOLE', 'QUADRUPOLE', 'MULLIKEN_CHARGES')
f=open( 'psi4out.xyz', 'w' )
f.write( "17  " )
f.write( str(ee) + "\n" )
f.write( MOL.save_string_xyz() )
f.close()
--------------------------------------------------------------------------

    Molecular point group: c1
  Charge       = 0
  Multiplicity = 1
  Basis Set: 6-31G*
  Basis Set:
  @DF-RHF Final Energy:  -344.91197119085507
    Total Energy =                       -344.9119711908548425
    Molecular point group: c1
  Basis Set: 6-31G*
  Basis Set:
  Basis Set: 6-31G*
  Basis Set:
  @DF-RHF Final Energy:  -344.91197429298552
    Total Energy =                       -344.9119742929855192
  Basis Set: 6-31G*
  Basis Set:
  Charge       = 0
  Multiplicity = 1
  Basis Set: 6-31G*
  Basis Set:

    Orbital Energies (a.u.)
    -----------------------

    Doubly Occupied:

       1A    -20.600895     2A    -20.544285     3A    -11.371299
       4A    -11.284790     5A    -11.237559     6A    -11.222326
       7A    -11.215771     8A     -1.467543     9A     -1.361902
      10A     -1.069979    11A     -1.031802    12A     -0.910704
      13A     -0.847330    14A     -0.772779    15A     -0.695454
      16A     -0.689731    17A     -0.664338    18A     -0.629897
      19A     -0.582143    20A     -0.572232    21A     -0.558414
      22A     -0.523437    23A     -0.518999    24A     -0.514576
      25A     -0.504648    26A     -0.492659    27A     -0.452606
      28A     -0.436111

  @DF-RHF Final Energy:  -344.91197445898166

   => Energetics <=

    Nuclear Repulsion Energy =            314.6851249797923060
    One-Electron Energy =               -1093.6457838300589174
    Two-Electron Energy =                 434.0486843912851214
    DFT Exchange-Correlation Energy =       0.0000000000000000
    Empirical Dispersion Energy =           0.0000000000000000
    PCM Polarization Energy =               0.0000000000000000
    EFP Energy =                            0.0000000000000000
    Total Energy =                       -344.9119744589814331
    Molecular point group: c1
  Basis Set: 6-31G*
  Basis Set:

  -Total Gradient:
     Atom            X                  Y                   Z
    ------   -----------------  -----------------  -----------------
       1        0.000006645109     0.000007632805     0.000089188423
       2       -0.000002850731    -0.000001915265    -0.000538668675
       3       -0.000115300102    -0.000132134235     0.000379089652
       4        0.000005681968     0.000008035463     0.000178643981
       5       -0.000001755016    -0.000004062338    -0.000061029375
       6        0.000072122098     0.000143205618    -0.000118381026
       7        0.000028845456    -0.000027758710    -0.000016434389
       8       -0.000001623213    -0.000004763844     0.000011793425
       9        0.000002068066     0.000002971091     0.000001977667
      10        0.000004704122     0.000005245853     0.000013472937
      11        0.000005547545     0.000013407523     0.000195105051
      12       -0.000000423635    -0.000002675315    -0.000047840997
      13        0.000024221132    -0.000001545925    -0.000036555278
      14       -0.000026128223    -0.000004693387    -0.000040270854
      15       -0.000013626939    -0.000014027992    -0.000000733074
      16       -0.000001067317     0.000000097797    -0.000005974054
      17        0.000012939682     0.000012980861    -0.000003383416

  **** Optimization is complete! (in 3 steps) ****
    Final optimized geometry and variables:
    Molecular point group: c1

    Geometry (in Angstrom), charge = 0, multiplicity = 1:

    O            0.624236754125     1.347847748770    -0.090689436458
    C            0.485696090908     0.168354276975    -0.033077779025
    C            1.607413689992    -0.842669470709    -0.033956617416
    O           -0.697565191354    -0.425239214851     0.039087568961
    C            2.989364376664    -0.201214592692    -0.045065287785
    H            1.464300160973    -1.481284530672    -0.900967514928
    H            1.473603563192    -1.482765257593     0.832483015953
    H            3.121721018774     0.423473601678    -0.919807630546
    H            3.757224217779    -0.967473292524    -0.051893172234
    H            3.137231649953     0.421811742372     0.828847000978
    C           -1.852289830551     0.407755495705     0.041217932939
    C           -3.064051962427    -0.496553318836     0.120031226078
    H           -1.857484064675     1.005294801337    -0.860192207553
    H           -1.800052143215     1.080908267687     0.885960819013
    H           -3.098906343696    -1.168310513634    -0.730122278391
    H           -3.970581157295     0.099981182578     0.123807287536
    H           -3.041390993769    -1.092019313100     1.025629387666

  Mulliken Charges: (a.u.)
   Center  Symbol    Alpha    Beta     Spin     Total
       1     O     4.28638  4.28638  0.00000 -0.57275
       2     C     2.60567  2.60567  0.00000  0.78867
       3     C     3.20500  3.20500  0.00000 -0.41000
       4     O     4.31322  4.31322  0.00000 -0.62644
       5     C     3.23881  3.23881  0.00000 -0.47762
       6     H     0.40074  0.40074  0.00000  0.19853
       7     H     0.40080  0.40080  0.00000  0.19840
       8     H     0.40927  0.40927  0.00000  0.18145
       9     H     0.41822  0.41822  0.00000  0.16356
      10     H     0.41067  0.41067  0.00000  0.17867
      11     C     3.00212  3.00212  0.00000 -0.00425
      12     C     3.24842  3.24842  0.00000 -0.49685
      13     H     0.41031  0.41031  0.00000  0.17939
      14     H     0.41031  0.41031  0.00000  0.17938
      15     H     0.41189  0.41189  0.00000  0.17622
      16     H     0.41630  0.41630  0.00000  0.16739
      17     H     0.41188  0.41188  0.00000  0.17625

   Total alpha = 28.00000, Total beta = 28.00000, Total charge =  0.00000
