  ==> Input File <==

--------------------------------------------------------------------------
set {
	reference rhf
	basis 6-31G*
}

set_num_threads( 4 )
memory 2 gb

molecule MOL {
0 1

H	 -1.748661	 -2.220942	 -0.005015
C	 -1.343207	 -1.225221	 -0.013879
N	 -0.055091	 -1.100174	 -0.261126
C	 -2.150779	 -0.125890	 0.222726
C	 0.449969	 0.122615	 -0.277109
H	 -3.200618	 -0.238980	 0.422496
N	 -1.660212	 1.097703	 0.209594
C	 -0.371804	 1.219904	 -0.038265
C	 1.928147	 0.267347	 -0.541394
H	 0.029131	 2.217482	 -0.051283
C	 2.699132	 0.746296	 0.693192
H	 2.313747	 -0.696592	 -0.856030
H	 2.082982	 0.958738	 -1.363695
H	 3.760622	 0.813321	 0.476987
H	 2.562753	 0.056829	 1.518125
H	 2.358354	 1.726635	 1.011178

	symmetry c1
}
set optking {
	frozen_dihedral = ("
		12 9 5 3
	")
}

ee = optimize('scf')
oeprop('DIPOLE', 'QUADRUPOLE', 'MULLIKEN_CHARGES')
f=open( 'psi4out.xyz', 'w' )
f.write( "16  " )
f.write( str(ee) + "\n" )
f.write( MOL.save_string_xyz() )
f.close()
--------------------------------------------------------------------------

    Molecular point group: c1
  Charge       = 0
  Multiplicity = 1
  Basis Set: 6-31G*
  Basis Set:
  @DF-RHF Final Energy:  -340.75726757262413
    Total Energy =                       -340.7572675726243574
    Molecular point group: c1
  Basis Set: 6-31G*
  Basis Set:
  Basis Set: 6-31G*
  Basis Set:
  @DF-RHF Final Energy:  -340.75736280300652
    Total Energy =                       -340.7573628030068562
  Basis Set: 6-31G*
  Basis Set:
  Basis Set: 6-31G*
  Basis Set:
  @DF-RHF Final Energy:  -340.75740405654824
    Total Energy =                       -340.7574040565481823
  Basis Set: 6-31G*
  Basis Set:
  Basis Set: 6-31G*
  Basis Set:
  @DF-RHF Final Energy:  -340.75741397810623
    Total Energy =                       -340.7574139781061717
  Basis Set: 6-31G*
  Basis Set:
  Basis Set: 6-31G*
  Basis Set:
  @DF-RHF Final Energy:  -340.75742092047443
    Total Energy =                       -340.7574209204742601
  Basis Set: 6-31G*
  Basis Set:
  Charge       = 0
  Multiplicity = 1
  Basis Set: 6-31G*
  Basis Set:

    Orbital Energies (a.u.)
    -----------------------

    Doubly Occupied:

       1A    -15.586804     2A    -15.582184     3A    -11.281733
       4A    -11.274873     5A    -11.273019     6A    -11.271231
       7A    -11.232624     8A    -11.222485     9A     -1.313090
      10A     -1.221660    11A     -1.085198    12A     -1.014883
      13A     -0.903580    14A     -0.895117    15A     -0.829740
      16A     -0.714675    17A     -0.710773    18A     -0.657470
      19A     -0.612746    20A     -0.606115    21A     -0.581491
      22A     -0.562502    23A     -0.521812    24A     -0.509731
      25A     -0.504044    26A     -0.482039    27A     -0.429611
      28A     -0.394968    29A     -0.344748

  @DF-RHF Final Energy:  -340.75742321190000

   => Energetics <=

    Nuclear Repulsion Energy =            349.5222930249632327
    One-Electron Energy =               -1153.3175451704257739
    Two-Electron Energy =                 463.0378289335625936
    DFT Exchange-Correlation Energy =       0.0000000000000000
    Empirical Dispersion Energy =           0.0000000000000000
    PCM Polarization Energy =               0.0000000000000000
    EFP Energy =                            0.0000000000000000
    Total Energy =                       -340.7574232118999475
    Molecular point group: c1
  Basis Set: 6-31G*
  Basis Set:

  -Total Gradient:
     Atom            X                  Y                   Z
    ------   -----------------  -----------------  -----------------
       1       -0.000010588197     0.000003421325     0.000010789070
       2        0.000013009841    -0.000034601986     0.000007953758
       3       -0.000217413297     0.000080197134    -0.001097790674
       4       -0.000012700118     0.000028392133    -0.000020143770
       5        0.000332891633    -0.000122361943     0.001793523276
       6        0.000001322998    -0.000009875237     0.000004359509
       7       -0.000035789290    -0.000030715124     0.000011817729
       8        0.000061533574     0.000011422458    -0.000015623139
       9       -0.000396739102     0.000431420662    -0.001821086713
      10        0.000004061030    -0.000012974346    -0.000002211318
      11       -0.000008184311    -0.000030553928    -0.000005003283
      12        0.000260942977    -0.000306305200     0.001144981252
      13        0.000001433577    -0.000026142474    -0.000007384704
      14        0.000012037651    -0.000002335492    -0.000004274767
      15        0.000004270866     0.000015703748    -0.000006155447
      16       -0.000010089828     0.000005308268     0.000006249221

  **** Optimization is complete! (in 6 steps) ****
    Final optimized geometry and variables:
    Molecular point group: c1

    Geometry (in Angstrom), charge = 0, multiplicity = 1:

    H           -1.743338625360    -2.356105070467    -0.009019779932
    C           -1.338601711754    -1.360273158068    -0.019930706082
    N           -0.044167537272    -1.238208102803    -0.261352319284
    C           -2.143775633838    -0.262668188587     0.205354777791
    C            0.462266922941    -0.020491912977    -0.275338797435
    H           -3.194973299974    -0.371425350211     0.399550565092
    N           -1.650699279867     0.964553939452     0.185586392900
    C           -0.364638084573     1.082662621402    -0.052497245477
    C            1.939936235594     0.137463888086    -0.543848229910
    H            0.037047688887     2.080307442653    -0.075333065488
    C            2.726279176389     0.612177140824     0.684540111459
    H            2.317254113381    -0.825761806352    -0.862575195005
    H            2.088087687579     0.836440357814    -1.362534540159
    H            3.782636413451     0.693082592640     0.449988272488
    H            2.616789505096    -0.087847322638     1.506121474518
    H            2.387362833653     1.584708569298     1.027001400910

  Mulliken Charges: (a.u.)
   Center  Symbol    Alpha    Beta     Spin     Total
       1     H     0.39381  0.39381  0.00000  0.21238
       2     C     2.99127  2.99127  0.00000  0.01746
       3     N     3.75600  3.75600  0.00000 -0.51201
       4     C     2.99834  2.99834  0.00000  0.00332
       5     C     2.87346  2.87346  0.00000  0.25307
       6     H     0.39421  0.39421  0.00000  0.21158
       7     N     3.72999  3.72999  0.00000 -0.45998
       8     C     2.99220  2.99220  0.00000  0.01560
       9     C     3.17622  3.17622  0.00000 -0.35243
      10     H     0.39525  0.39525  0.00000  0.20950
      11     C     3.24344  3.24344  0.00000 -0.48687
      12     H     0.39832  0.39832  0.00000  0.20335
      13     H     0.41157  0.41157  0.00000  0.17686
      14     H     0.41496  0.41496  0.00000  0.17009
      15     H     0.41202  0.41202  0.00000  0.17596
      16     H     0.41894  0.41894  0.00000  0.16212

   Total alpha = 29.00000, Total beta = 29.00000, Total charge = -0.00000
