                              Psi4 1.0.54 Driver

  ==> Input File <==

--------------------------------------------------------------------------
set {
	reference rhf
	basis cc-pvtz
}

set_num_threads( 4 )
memory 2 gb

molecule MOL {
0 1

H	 2.646708	 0.758099	 0.000000
O	 2.258158	 -0.097743	 0.000000
C	 0.911162	 -0.015915	 0.000000
C	 0.328927	 0.962085	 -0.789506
C	 0.117952	 -0.863484	 0.750244
H	 0.959796	 1.610601	 -1.364772
C	 -1.043459	 1.083072	 -0.821011
H	 0.569662	 -1.622523	 1.362999
C	 -1.258656	 -0.730446	 0.708860
H	 -1.489147	 1.842810	 -1.434657
C	 -1.848854	 0.239722	 -0.073680
H	 -1.867295	 -1.392842	 1.294621
H	 -2.916078	 0.339961	 -0.103335

	symmetry c1
}
set optking {
	frozen_dihedral = ("
		4 3 2 1
	")
}

ee,wfn = optimize('scf', return_wfn=True)
oeprop( wfn, 'DIPOLE', 'QUADRUPOLE', 'MULLIKEN_CHARGES')
f=open( 'psi4out.xyz', 'w' )
f.write( "13  " )
f.write( str(ee) + "\n" )
f.write( MOL.save_string_xyz() )
f.close()
--------------------------------------------------------------------------

    Molecular point group: c1
  Charge       = 0
  Multiplicity = 1
  Basis Set: CC-PVTZ
  Basis Set:
  @DF-RHF Final Energy:  -305.66705154192556
    Total Energy =                       -305.6670515419256162
    Molecular point group: c1
  Basis Set: CC-PVTZ
  Basis Set:
  Basis Set: CC-PVTZ
  Basis Set:
  @DF-RHF Final Energy:  -305.66841441137706
    Total Energy =                       -305.6684144113770571
  Basis Set: CC-PVTZ
  Basis Set:
  Basis Set: CC-PVTZ
  Basis Set:
  @DF-RHF Final Energy:  -305.66872523065496
    Total Energy =                       -305.6687252306548999
  Basis Set: CC-PVTZ
  Basis Set:
  Basis Set: CC-PVTZ
  Basis Set:
  @DF-RHF Final Energy:  -305.66874272465930
    Total Energy =                       -305.6687427246593529
  Basis Set: CC-PVTZ
  Basis Set:
  Basis Set: CC-PVTZ
  Basis Set:
  @DF-RHF Final Energy:  -305.66874731379943
    Total Energy =                       -305.6687473137990878
  Basis Set: CC-PVTZ
  Basis Set:
  Charge       = 0
  Multiplicity = 1
  Basis Set: CC-PVTZ
  Basis Set:

    Orbital Energies (a.u.)
    -----------------------

    Doubly Occupied:

       1A    -20.579412     2A    -11.294093     3A    -11.234662
       4A    -11.233184     5A    -11.226239     6A    -11.221914
       7A    -11.221827     8A     -1.408516     9A     -1.152897
      10A     -1.022526    11A     -1.008401    12A     -0.846746
      13A     -0.827207    14A     -0.740360    15A     -0.686823
      16A     -0.653287    17A     -0.622054    18A     -0.598917
      19A     -0.591745    20A     -0.547063    21A     -0.517351
      22A     -0.495731    23A     -0.480458    24A     -0.342591
      25A     -0.320001

  @DF-RHF Final Energy:  -305.66874767202671

   => Energetics <=

    Nuclear Repulsion Energy =            273.6291158929233234
    One-Electron Energy =                -956.8477221010325593
    Two-Electron Energy =                 377.5498585360825246
    DFT Exchange-Correlation Energy =       0.0000000000000000
    Empirical Dispersion Energy =           0.0000000000000000
    PCM Polarization Energy =               0.0000000000000000
    EFP Energy =                            0.0000000000000000
    Total Energy =                       -305.6687476720267114
    Molecular point group: c1
  Basis Set: CC-PVTZ
  Basis Set:

  -Total Gradient:
     Atom            X                  Y                   Z
    ------   -----------------  -----------------  -----------------
       1       -0.000080895971    -0.000195098626     0.002536820951
       2        0.000046852851    -0.000348217416    -0.004045494304
       3        0.000128104605     0.001677784435     0.003114568794
       4       -0.000032986852    -0.001116620047    -0.001578828072
       5       -0.000019479849     0.000005427728    -0.000017083866
       6       -0.000004500900    -0.000005509909     0.000010182825
       7       -0.000006273370    -0.000025318884    -0.000015650617
       8        0.000022334777     0.000010400671    -0.000002522527
       9       -0.000044625079    -0.000005269604    -0.000067884537
      10       -0.000015819513    -0.000007930138     0.000007301425
      11        0.000016918216    -0.000014722138     0.000062889556
      12       -0.000000852403     0.000011237673     0.000004512955
      13       -0.000008776510     0.000013836254    -0.000008812581

  **** Optimization is complete! (in 6 steps) ****
    Final optimized geometry and variables:
    Molecular point group: c1

    Geometry (in Angstrom), charge = 0, multiplicity = 1:

    H            2.688139448207     0.605584510924     0.133705848671
    O            2.253242798199    -0.224651201513     0.058577300659
    C            0.906292157918    -0.063381956571     0.032420266441
    C            0.311387743193     0.972112595017    -0.664814129652
    C            0.125676360247    -1.005680924551     0.675800584286
    H            0.922600921213     1.687211231339    -1.183558836859
    C           -1.066719992023     1.075142803126    -0.694776993522
    H            0.605324318122    -1.806726745327     1.202947833084
    C           -1.249966694046    -0.900412567476     0.627707144779
    H           -1.522833109950     1.884544365289    -1.232464895542
    C           -1.855111722853     0.141256045472    -0.051709964194
    H           -1.851788579576    -1.634245697099     1.129288161263
    H           -2.924265250662     0.220985860025    -0.082127888411

  Mulliken Charges: (a.u.)
   Center  Symbol    Alpha    Beta     Spin     Total
       1     H     0.38588  0.38588  0.00000  0.22824
       2     O     4.18281  4.18281  0.00000 -0.36561
       3     C     2.86234  2.86234  0.00000  0.27531
       4     C     3.12563  3.12563  0.00000 -0.25126
       5     C     3.10921  3.10921  0.00000 -0.21842
       6     H     0.42761  0.42761  0.00000  0.14478
       7     C     3.06649  3.06649  0.00000 -0.13297
       8     H     0.41769  0.41769  0.00000  0.16463
       9     C     3.06048  3.06048  0.00000 -0.12095
      10     H     0.42226  0.42226  0.00000  0.15548
      11     C     3.09381  3.09381  0.00000 -0.18761
      12     H     0.42219  0.42219  0.00000  0.15563
      13     H     0.42362  0.42362  0.00000  0.15276

   Total alpha = 25.00000, Total beta = 25.00000, Total charge = -0.00000

*** Psi4 exiting successfully. Buy a developer a beer!
