  ==> Input File <==

--------------------------------------------------------------------------
set {
	reference rhf
	basis cc-pvtz
}

set_num_threads( 4 )
memory 2 gb

molecule MOL {
0 1

H	 -2.816458	 -0.841657	 -0.064679
N	 -1.878861	 -0.711874	 0.250184
C	 -1.341419	 0.551458	 -0.220231
H	 -1.333674	 -1.468530	 -0.105118
C	 -1.089618	 0.498564	 -1.709676
H	 -1.988570	 1.402379	 -0.011247
H	 -0.394977	 0.732828	 0.277165
O	 -2.311651	 0.353446	 -2.367919
H	 -0.596544	 1.413962	 -2.033863
H	 -0.436959	 -0.340316	 -1.940422
C	 -2.211197	 0.222733	 -3.747065
H	 -3.210541	 0.121147	 -4.145031
H	 -1.743661	 1.096382	 -4.196332
H	 -1.633194	 -0.656301	 -4.022339

	symmetry c1
}
set optking {
	frozen_dihedral = ("
		6 3 2 4
	")
}

ee = optimize('scf')
oeprop('DIPOLE', 'QUADRUPOLE', 'MULLIKEN_CHARGES')
f=open( 'psi4out.xyz', 'w' )
f.write( "14  " )
f.write( str(ee) + "\n" )
f.write( MOL.save_string_xyz() )
f.close()
--------------------------------------------------------------------------

    Molecular point group: c1
  Charge       = 0
  Multiplicity = 1
  Basis Set: CC-PVTZ
  Basis Set:
  @DF-RHF Final Energy:  -248.22304812406185
    Total Energy =                       -248.2230481240617337
    Molecular point group: c1
  Basis Set: CC-PVTZ
  Basis Set:
  Basis Set: CC-PVTZ
  Basis Set:
  @DF-RHF Final Energy:  -248.22506604198651
    Total Energy =                       -248.2250660419866790
  Basis Set: CC-PVTZ
  Basis Set:
  Basis Set: CC-PVTZ
  Basis Set:
  @DF-RHF Final Energy:  -248.22530343911782
    Total Energy =                       -248.2253034391179654
  Basis Set: CC-PVTZ
  Basis Set:
  Charge       = 0
  Multiplicity = 1
  Basis Set: CC-PVTZ
  Basis Set:

    Orbital Energies (a.u.)
    -----------------------

    Doubly Occupied:

       1A    -20.553952     2A    -15.524962     3A    -11.267281
       4A    -11.267026     5A    -11.240641     6A     -1.388186
       7A     -1.177602     8A     -1.001399     9A     -0.910095
      10A     -0.823984    11A     -0.687338    12A     -0.671692
      13A     -0.646313    14A     -0.639207    15A     -0.583933
      16A     -0.548165    17A     -0.527686    18A     -0.507866
      19A     -0.478901    20A     -0.423604    21A     -0.385290

  @DF-RHF Final Energy:  -248.22530699138829

   => Energetics <=

    Nuclear Repulsion Energy =            194.3098598749829478
    One-Electron Energy =                -722.5600927021529287
    Two-Electron Energy =                 280.0249258357815165
    DFT Exchange-Correlation Energy =       0.0000000000000000
    Empirical Dispersion Energy =           0.0000000000000000
    PCM Polarization Energy =               0.0000000000000000
    EFP Energy =                            0.0000000000000000
    Total Energy =                       -248.2253069913884360
    Molecular point group: c1
  Basis Set: CC-PVTZ
  Basis Set:

  -Total Gradient:
     Atom            X                  Y                   Z
    ------   -----------------  -----------------  -----------------
       1        0.000007410131     0.000048763109     0.000001030474
       2        0.001508856079     0.000179361306     0.001727795447
       3        0.000815515525     0.000315210590     0.001738359520
       4       -0.001342451772    -0.000159771024    -0.001716006902
       5        0.000137090550     0.000100745032     0.000069829077
       6       -0.000977307591    -0.000362934509    -0.001713386912
       7       -0.000031021366    -0.000020954695     0.000023810918
       8        0.000042080482    -0.000051104140     0.000009881058
       9       -0.000040693414    -0.000024436836    -0.000008970620
      10       -0.000115893391    -0.000011611496    -0.000083326443
      11        0.000010224608    -0.000029209644     0.000001586928
      12       -0.000005307122     0.000005510374    -0.000024596007
      13       -0.000001008740     0.000002955988    -0.000009614893
      14       -0.000007493981     0.000007475945    -0.000016391649

  **** Optimization is complete! (in 4 steps) ****
    Final optimized geometry and variables:
    Molecular point group: c1

    Geometry (in Angstrom), charge = 0, multiplicity = 1:

    H           -1.052200428959    -0.968344760140     1.584729922905
    N           -0.117949150196    -0.847679834628     1.915347453387
    C            0.446248359603     0.361909391881     1.347413372826
    H            0.390218077087    -1.652758798041     1.610974938377
    C            0.687940844278     0.325995990450    -0.150742463420
    H           -0.233162476478     1.179696119694     1.555814631550
    H            1.385536408651     0.583697963095     1.842378048888
    O           -0.529657429688     0.156733990815    -0.806547627505
    H            1.162928407955     1.253604829329    -0.469897133703
    H            1.364886833886    -0.491612254253    -0.403300064012
    C           -0.437251981137     0.084386519366    -2.190525828931
    H           -1.435119474368    -0.044958922547    -2.583969873747
    H           -0.011526341417     0.993477665632    -2.609546777451
    H            0.175001457887    -0.757870845641    -2.505535686797

  Mulliken Charges: (a.u.)
   Center  Symbol    Alpha    Beta     Spin     Total
       1     H     0.42582  0.42582  0.00000  0.14836
       2     N     3.68534  3.68534  0.00000 -0.37069
       3     C     3.02947  3.02947  0.00000 -0.05895
       4     H     0.43523  0.43523  0.00000  0.12953
       5     C     2.97022  2.97022  0.00000  0.05956
       6     H     0.45286  0.45286  0.00000  0.09428
       7     H     0.45469  0.45469  0.00000  0.09062
       8     O     4.17615  4.17615  0.00000 -0.35230
       9     H     0.47155  0.47155  0.00000  0.05690
      10     H     0.47828  0.47828  0.00000  0.04344
      11     C     3.03106  3.03106  0.00000 -0.06211
      12     H     0.44714  0.44714  0.00000  0.10572
      13     H     0.47058  0.47058  0.00000  0.05884
      14     H     0.47159  0.47159  0.00000  0.05682

   Total alpha = 21.00000, Total beta = 21.00000, Total charge = -0.00000
