  ==> Input File <==

--------------------------------------------------------------------------
set {
	reference rhf
	basis 6-31G*
}

set_num_threads( 1 )
memory 2 gb

molecule MOL {
0 1

O	 -2.042549	 -1.228399	 -0.269030
C	 -1.653912	 -0.146171	 0.050137
C	 -0.332303	 0.024011	 0.778412
C	 -2.438579	 1.106236	 -0.272369
C	 0.845713	 -0.001731	 -0.208243
H	 -0.323783	 0.953829	 1.340327
H	 -0.235459	 -0.796807	 1.480410
C	 1.947099	 0.992108	 0.163595
H	 0.489026	 0.217966	 -1.213027
H	 1.252387	 -1.008214	 -0.235590
C	 3.123861	 0.962291	 -0.810853
H	 1.531084	 1.996677	 0.198225
H	 2.302830	 0.772710	 1.167531
H	 2.805348	 1.211398	 -1.819093
H	 3.581162	 -0.022248	 -0.842507
H	 3.890134	 1.674187	 -0.520930
H	 -3.277823	 0.863061	 -0.908988
H	 -1.806773	 1.843019	 -0.759671
H	 -2.802853	 1.554979	 0.648059

	symmetry c1
}
set optking {
	frozen_dihedral = ("
		11 8 5 9,
		5 3 2 4
	")
}

ee = energy('scf')
oeprop('DIPOLE', 'QUADRUPOLE', 'MULLIKEN_CHARGES')
f=open( 'psi4out.xyz', 'w' )
f.write( "19  " )
f.write( str(ee) + "\n" )
f.write( MOL.save_string_xyz() )
f.close()
--------------------------------------------------------------------------

    Molecular point group: c1

    Geometry (in Angstrom), charge = 0, multiplicity = 1:

       Center              X                  Y                   Z               Mass
    ------------   -----------------  -----------------  -----------------  -----------------
           O         -1.969567595360    -1.477435938150    -0.175396325356    15.994914619560
           C         -1.580930595360    -0.395207938150     0.143770674644    12.000000000000
           C         -0.259321595360    -0.225025938150     0.872045674644    12.000000000000
           C         -2.365597595360     0.857199061850    -0.178735325356    12.000000000000
           C          0.918694404640    -0.250767938150    -0.114609325356    12.000000000000
           H         -0.250801595360     0.704792061850     1.433960674644     1.007825032070
           H         -0.162477595360    -1.045843938150     1.574043674644     1.007825032070
           C          2.020080404640     0.743071061850     0.257228674644    12.000000000000
           H          0.562007404640    -0.031070938150    -1.119393325356     1.007825032070
           H          1.325368404640    -1.257250938150    -0.141956325356     1.007825032070
           C          3.196842404640     0.713254061850    -0.717219325356    12.000000000000
           H          1.604065404640     1.747640061850     0.291858674644     1.007825032070
           H          2.375811404640     0.523673061850     1.261164674644     1.007825032070
           H          2.878329404640     0.962361061850    -1.725459325356     1.007825032070
           H          3.654143404640    -0.271284938150    -0.748873325356     1.007825032070
           H          3.963115404640     1.425150061850    -0.427296325356     1.007825032070
           H         -3.204841595360     0.614024061850    -0.815354325356     1.007825032070
           H         -1.733791595360     1.593982061850    -0.666037325356     1.007825032070
           H         -2.729871595360     1.305942061850     0.741692674644     1.007825032070

  Charge       = 0
  Multiplicity = 1
  Basis Set: 6-31G*
  Basis Set:

    Orbital Energies (a.u.)
    -----------------------

    Doubly Occupied:

       1A    -20.546525     2A    -11.324375     3A    -11.230278
       4A    -11.228681     5A    -11.228173     6A    -11.226119
       7A    -11.215515     8A     -1.392614     9A     -1.092245
      10A     -1.029060    11A     -0.984302    12A     -0.890156
      13A     -0.808182    14A     -0.734368    15A     -0.659682
      16A     -0.647884    17A     -0.621838    18A     -0.612162
      19A     -0.584475    20A     -0.575180    21A     -0.554749
      22A     -0.535492    23A     -0.509433    24A     -0.505378
      25A     -0.482005    26A     -0.475798    27A     -0.464809
      28A     -0.396300

  @DF-RHF Final Energy:  -309.06082604856192

   => Energetics <=

    Nuclear Repulsion Energy =            302.3832425341906855
    One-Electron Energy =               -1017.7765772853757653
    Two-Electron Energy =                 406.3325087026228175
    DFT Exchange-Correlation Energy =       0.0000000000000000
    Empirical Dispersion Energy =           0.0000000000000000
    PCM Polarization Energy =               0.0000000000000000
    EFP Energy =                            0.0000000000000000
    Total Energy =                       -309.0608260485622623

  Mulliken Charges: (a.u.)
   Center  Symbol    Alpha    Beta     Spin     Total
       1     O     4.26179  4.26179  0.00000 -0.52358
       2     C     2.74054  2.74054  0.00000  0.51892
       3     C     3.20174  3.20174  0.00000 -0.40348
       4     C     3.28932  3.28932  0.00000 -0.57864
       5     C     3.15703  3.15703  0.00000 -0.31406
       6     H     0.41514  0.41514  0.00000  0.16971
       7     H     0.39953  0.39953  0.00000  0.20093
       8     C     3.15483  3.15483  0.00000 -0.30966
       9     H     0.41700  0.41700  0.00000  0.16599
      10     H     0.40853  0.40853  0.00000  0.18293
      11     C     3.24062  3.24062  0.00000 -0.48123
      12     H     0.42296  0.42296  0.00000  0.15408
      13     H     0.41988  0.41988  0.00000  0.16024
      14     H     0.42037  0.42037  0.00000  0.15925
      15     H     0.41923  0.41923  0.00000  0.16155
      16     H     0.41764  0.41764  0.00000  0.16472
      17     H     0.39690  0.39690  0.00000  0.20620
      18     H     0.41038  0.41038  0.00000  0.17923
      19     H     0.40655  0.40655  0.00000  0.18691

   Total alpha = 28.00000, Total beta = 28.00000, Total charge =  0.00000
