                              Psi4 1.0.54 Driver

  ==> Input File <==

--------------------------------------------------------------------------
set {
	reference rhf
	basis cc-pvtz
}

set_num_threads( 4 )
memory 2 gb

molecule MOL {
0 1

H	 1.596926	 -1.077433	 1.070674
C	 0.718407	 -1.186641	 0.451812
O	 0.000000	 0.000000	 0.518769
H	 1.032561	 -1.405417	 -0.566667
H	 0.133847	 -2.027692	 0.818933
C	 -1.165153	 0.000000	 -0.236961
H	 -1.229451	 0.882440	 -0.870223
H	 -2.002557	 0.000000	 0.445289
H	 -1.229451	 -0.882440	 -0.870223

	symmetry c1
}
set optking {
	frozen_dihedral = ("
		2 3 6 7
	")
}

ee,wfn = optimize('scf', return_wfn=True)
oeprop( wfn, 'DIPOLE', 'QUADRUPOLE', 'MULLIKEN_CHARGES')
f=open( 'psi4out.xyz', 'w' )
f.write( "9  " )
f.write( str(ee) + "\n" )
f.write( MOL.save_string_xyz() )
f.close()
--------------------------------------------------------------------------

    Molecular point group: c1
  Charge       = 0
  Multiplicity = 1
  Basis Set: CC-PVTZ
  Basis Set:
  @DF-RHF Final Energy:  -154.12303061961171
    Total Energy =                       -154.1230306196117112
    Molecular point group: c1
  Basis Set: CC-PVTZ
  Basis Set:
  Basis Set: CC-PVTZ
  Basis Set:
  @DF-RHF Final Energy:  -154.12358268106203
    Total Energy =                       -154.1235826810621461
  Basis Set: CC-PVTZ
  Basis Set:
  Basis Set: CC-PVTZ
  Basis Set:
  @DF-RHF Final Energy:  -154.12369494543549
    Total Energy =                       -154.1236949454355738
  Basis Set: CC-PVTZ
  Basis Set:
  Charge       = 0
  Multiplicity = 1
  Basis Set: CC-PVTZ
  Basis Set:

    Orbital Energies (a.u.)
    -----------------------

    Doubly Occupied:

       1A    -20.546785     2A    -11.263581     3A    -11.262684
       4A     -1.377897     5A     -0.975794     6A     -0.872657
       7A     -0.659360     8A     -0.654542     9A     -0.644792
      10A     -0.559177    11A     -0.527388    12A     -0.475073
      13A     -0.415337

  @DF-RHF Final Energy:  -154.12369549079932

   => Energetics <=

    Nuclear Repulsion Energy =             84.5901311439841948
    One-Electron Energy =                -376.9575198209309974
    Two-Electron Energy =                 138.2436931861474818
    DFT Exchange-Correlation Energy =       0.0000000000000000
    Empirical Dispersion Energy =           0.0000000000000000
    PCM Polarization Energy =               0.0000000000000000
    EFP Energy =                            0.0000000000000000
    Total Energy =                       -154.1236954907993209
    Molecular point group: c1
  Basis Set: CC-PVTZ
  Basis Set:

  -Total Gradient:
     Atom            X                  Y                   Z
    ------   -----------------  -----------------  -----------------
       1        0.000025425308    -0.000037073213     0.000010165427
       2        0.000752391780     0.000426657315    -0.000920832244
       3       -0.000803810111    -0.000847911399     0.001035169591
       4       -0.000020392526    -0.000001908312     0.000001906476
       5       -0.000027169098     0.000059362944    -0.000013887216
       6       -0.000637693818     0.001085417319     0.000995679204
       7        0.000718442026    -0.000696802140    -0.001109326370
       8       -0.000014225804     0.000004128769    -0.000003986187
       9        0.000007032244     0.000008128718     0.000005111320

  **** Optimization is complete! (in 4 steps) ****
    Final optimized geometry and variables:
    Molecular point group: c1

    Geometry (in Angstrom), charge = 0, multiplicity = 1:

    H            1.762073551560    -0.621525458823     0.860522498103
    C            0.900230991226    -0.762064236273     0.224023356320
    O            0.137181396632     0.397712410023     0.285183311516
    H            1.243813918463    -0.961987414444    -0.788178129492
    H            0.346086114651    -1.628853596455     0.577500477309
    C           -1.026450178184     0.399360159088    -0.483506843462
    H           -1.060180734813     1.303779180000    -1.078445200764
    H           -1.903094954072     0.362400345825     0.154488936464
    H           -1.062995974736    -0.447142306043    -1.162329260166

  Mulliken Charges: (a.u.)
   Center  Symbol    Alpha    Beta     Spin     Total
       1     H     0.44979  0.44979  0.00000  0.10042
       2     C     3.02075  3.02075  0.00000 -0.04151
       3     O     4.17274  4.17274  0.00000 -0.34548
       4     H     0.47283  0.47283  0.00000  0.05434
       5     H     0.47326  0.47326  0.00000  0.05348
       6     C     3.01628  3.01628  0.00000 -0.03256
       7     H     0.45719  0.45719  0.00000  0.08561
       8     H     0.46207  0.46207  0.00000  0.07586
       9     H     0.47509  0.47509  0.00000  0.04982

   Total alpha = 13.00000, Total beta = 13.00000, Total charge = -0.00000

*** Psi4 exiting successfully. Buy a developer a beer!
