  ==> Input File <==

--------------------------------------------------------------------------
set {
	reference rhf
	basis cc-pvtz
}

set_num_threads( 4 )
memory 2 gb

molecule MOL {
0 1

H	 1.562451	 -1.804569	 -0.995178
C	 0.688304	 -2.358606	 -0.628348
C	 -0.614159	 -1.609938	 -0.690671
O	 0.815462	 -3.460763	 -0.220041
C	 -0.554654	 -0.292621	 0.086567
H	 -1.398330	 -2.254088	 -0.315193
H	 -0.820031	 -1.401689	 -1.738587
C	 -1.846385	 0.513195	 -0.016346
H	 -0.343156	 -0.503659	 1.130918
H	 0.273510	 0.308475	 -0.280177
C	 -3.089953	 -0.365049	 -0.098564
H	 -1.798267	 1.154820	 -0.891143
H	 -1.925398	 1.173265	 0.842889
H	 -3.055079	 -1.012299	 -0.968245
H	 -3.988403	 0.236438	 -0.170014
H	 -3.183055	 -0.995885	 0.779079

	symmetry c1
}
set optking {
	frozen_dihedral = ("
		9 5 8 12
	")
}

ee = optimize('scf')
oeprop('DIPOLE', 'QUADRUPOLE', 'MULLIKEN_CHARGES')
f=open( 'psi4out.xyz', 'w' )
f.write( "16  " )
f.write( str(ee) + "\n" )
f.write( MOL.save_string_xyz() )
f.close()
--------------------------------------------------------------------------

    Molecular point group: c1
  Charge       = 0
  Multiplicity = 1
  Basis Set: CC-PVTZ
  Basis Set:
  @DF-RHF Final Energy:  -270.11216899589499
    Total Energy =                       -270.1121689958950469
    Molecular point group: c1
  Basis Set: CC-PVTZ
  Basis Set:
  Basis Set: CC-PVTZ
  Basis Set:
  @DF-RHF Final Energy:  -270.11354132800005
    Total Energy =                       -270.1135413279999966
  Basis Set: CC-PVTZ
  Basis Set:
  Basis Set: CC-PVTZ
  Basis Set:
  @DF-RHF Final Energy:  -270.11471903001529
    Total Energy =                       -270.1147190300155216
  Basis Set: CC-PVTZ
  Basis Set:
  Basis Set: CC-PVTZ
  Basis Set:
  @DF-RHF Final Energy:  -270.11472990453626
    Total Energy =                       -270.1147299045359773
  Basis Set: CC-PVTZ
  Basis Set:
  @DF-RHF Final Energy:  -270.11466674793428
    Total Energy =                       -270.1146667479345069
  Basis Set: CC-PVTZ
  Basis Set:
  @DF-RHF Final Energy:  -270.11483798269910
    Total Energy =                       -270.1148379826994415
  Basis Set: CC-PVTZ
  Basis Set:
  Basis Set: CC-PVTZ
  Basis Set:
  @DF-RHF Final Energy:  -270.11482985816463
    Total Energy =                       -270.1148298581647396
  Basis Set: CC-PVTZ
  Basis Set:
  Basis Set: CC-PVTZ
  Basis Set:
  @DF-RHF Final Energy:  -270.11484113456896
    Total Energy =                       -270.1148411345689624
  Basis Set: CC-PVTZ
  Basis Set:
  Charge       = 0
  Multiplicity = 1
  Basis Set: CC-PVTZ
  Basis Set:

    Orbital Energies (a.u.)
    -----------------------

    Doubly Occupied:

       1A    -20.552129     2A    -11.321227     3A    -11.234822
       4A    -11.233805     5A    -11.227736     6A    -11.216670
       7A     -1.406924     8A     -1.096311     9A     -1.016288
      10A     -0.916298    11A     -0.811447    12A     -0.787318
      13A     -0.681804    14A     -0.646812    15A     -0.635092
      16A     -0.599411    17A     -0.580526    18A     -0.560231
      19A     -0.539407    20A     -0.511467    21A     -0.487775
      22A     -0.478892    23A     -0.469975    24A     -0.412334

  @DF-RHF Final Energy:  -270.11484127016593

   => Energetics <=

    Nuclear Repulsion Energy =            232.6452144420447894
    One-Electron Energy =                -826.6707078786718057
    Two-Electron Energy =                 323.9106521664612615
    DFT Exchange-Correlation Energy =       0.0000000000000000
    Empirical Dispersion Energy =           0.0000000000000000
    PCM Polarization Energy =               0.0000000000000000
    EFP Energy =                            0.0000000000000000
    Total Energy =                       -270.1148412701657548
    Molecular point group: c1
  Basis Set: CC-PVTZ
  Basis Set:

  -Total Gradient:
     Atom            X                  Y                   Z
    ------   -----------------  -----------------  -----------------
       1        0.000000545129     0.000000064624     0.000001786715
       2        0.000002521737    -0.000002068822     0.000008651213
       3        0.000007954939     0.000033626878     0.000024891762
       4       -0.000000382479    -0.000006805536    -0.000015781787
       5       -0.003235233050    -0.004804738286     0.000228487164
       6        0.000003187623    -0.000001316561     0.000000521519
       7       -0.000010217980    -0.000007832792    -0.000008252343
       8       -0.002109768498    -0.003831358548    -0.003699534194
       9        0.003040344324     0.004632231343     0.000378864769
      10        0.000009399913    -0.000010620012     0.000005024569
      11       -0.000002885851     0.000004618793     0.000003388178
      12        0.002296832268     0.003997601346     0.003079374777
      13       -0.000002342510     0.000003043822    -0.000003563827
      14        0.000007041765    -0.000007974520    -0.000001643960
      15       -0.000005043281    -0.000003780388    -0.000003452682
      16       -0.000001954047     0.000005308661     0.000001238128

  **** Optimization is complete! (in 9 steps) ****
    Final optimized geometry and variables:
    Molecular point group: c1

    Geometry (in Angstrom), charge = 0, multiplicity = 1:

    H            2.368788480457    -0.443020096747    -0.729522697710
    C            1.529390621453    -1.054181480702    -0.372565383918
    C            0.180790393102    -0.392162012472    -0.443613912804
    O            1.723985530044    -2.147296280557     0.033256110856
    C            0.156449591975     0.908828762712     0.361590783097
    H           -0.560840729646    -1.098153443206    -0.098983637197
    H           -0.018134437126    -0.173326318287    -1.491125316627
    C           -1.114432106277     1.757587699674     0.208604246657
    H            0.336150365753     0.705318267457     1.412737900929
    H            0.999505675647     1.521792060495     0.052534330229
    C           -2.432175059906     0.990952706096     0.193959516589
    H           -1.024642609821     2.384606797950    -0.673358682764
    H           -1.134114395177     2.457623965670     1.038504180039
    H           -2.519444638929     0.346037230540    -0.671968432785
    H           -3.268672093713     1.679259952983     0.173322082165
    H           -2.536303956311     0.372707878966     1.079511451143

  Mulliken Charges: (a.u.)
   Center  Symbol    Alpha    Beta     Spin     Total
       1     H     0.46430  0.46430  0.00000  0.07140
       2     C     2.91247  2.91247  0.00000  0.17507
       3     C     3.08113  3.08113  0.00000 -0.16227
       4     O     4.16308  4.16308  0.00000 -0.32616
       5     C     3.10832  3.10832  0.00000 -0.21664
       6     H     0.44043  0.44043  0.00000  0.11915
       7     H     0.44836  0.44836  0.00000  0.10329
       8     C     3.08985  3.08985  0.00000 -0.17971
       9     H     0.44291  0.44291  0.00000  0.11417
      10     H     0.44924  0.44924  0.00000  0.10152
      11     C     3.15481  3.15481  0.00000 -0.30962
      12     H     0.45085  0.45085  0.00000  0.09830
      13     H     0.44852  0.44852  0.00000  0.10296
      14     H     0.45173  0.45173  0.00000  0.09654
      15     H     0.44344  0.44344  0.00000  0.11313
      16     H     0.45055  0.45055  0.00000  0.09889

   Total alpha = 24.00000, Total beta = 24.00000, Total charge =  0.00000
