  ==> Input File <==

--------------------------------------------------------------------------
set {
	reference rhf
	basis 6-31G*
}

set_num_threads( 4 )
memory 2 gb

molecule MOL {
0 1

O	 1.427255	 0.794396	 0.937555
C	 1.705091	 0.115954	 0.001797
C	 0.977874	 0.103103	 -1.320647
O	 2.721346	 -0.737485	 -0.000216
C	 -0.201047	 1.070047	 -1.373640
H	 1.706926	 0.328303	 -2.094263
H	 0.657633	 -0.918723	 -1.505133
C	 -0.918484	 1.037102	 -2.723922
H	 0.151779	 2.075681	 -1.167720
H	 -0.899133	 0.826756	 -0.578786
C	 -2.103419	 2.001855	 -2.794913
H	 -0.212365	 1.278373	 -3.517131
H	 -1.267806	 0.025603	 -2.925726
C	 -2.820603	 1.967603	 -4.143885
H	 -1.755692	 3.013136	 -2.596072
H	 -2.810097	 1.761564	 -2.003709
H	 -2.147766	 2.237603	 -4.952961
H	 -3.655259	 2.661461	 -4.162900
H	 -3.210177	 0.975884	 -4.356102
C	 4.024888	 -0.184556	 -0.001949
H	 4.179030	 0.422472	 -0.882452
H	 4.701782	 -1.024608	 -0.003642
H	 4.181981	 0.421185	 0.878906

	symmetry c1
}
set optking {
	frozen_dihedral = ("
		1 2 4 20
	")
}

ee = optimize('scf')
oeprop('DIPOLE', 'QUADRUPOLE', 'MULLIKEN_CHARGES')
f=open( 'psi4out.xyz', 'w' )
f.write( "23  " )
f.write( str(ee) + "\n" )
f.write( MOL.save_string_xyz() )
f.close()
--------------------------------------------------------------------------

    Molecular point group: c1
  Charge       = 0
  Multiplicity = 1
  Basis Set: 6-31G*
  Basis Set:
  @DF-RHF Final Energy:  -422.95845291343898
    Total Energy =                       -422.9584529134388049
    Molecular point group: c1
  Basis Set: 6-31G*
  Basis Set:
  Basis Set: 6-31G*
  Basis Set:
  @DF-RHF Final Energy:  -422.95623743848205
    Total Energy =                       -422.9562374384818213
  Basis Set: 6-31G*
  Basis Set:
  Basis Set: 6-31G*
  Basis Set:
  @DF-RHF Final Energy:  -422.95945502963895
    Total Energy =                       -422.9594550296390025
  Basis Set: 6-31G*
  Basis Set:
  Basis Set: 6-31G*
  Basis Set:
  @DF-RHF Final Energy:  -422.95960539135172
    Total Energy =                       -422.9596053913514879
  Basis Set: 6-31G*
  Basis Set:
  Basis Set: 6-31G*
  Basis Set:
  @DF-RHF Final Energy:  -422.95961077237104
    Total Energy =                       -422.9596107723709792
  Basis Set: 6-31G*
  Basis Set:
  Basis Set: 6-31G*
  Basis Set:
  @DF-RHF Final Energy:  -422.95960988576167
    Total Energy =                       -422.9596098857609832
  Basis Set: 6-31G*
  Basis Set:
  Charge       = 0
  Multiplicity = 1
  Basis Set: 6-31G*
  Basis Set:

    Orbital Energies (a.u.)
    -----------------------

    Doubly Occupied:

       1A    -20.587028     2A    -20.555836     3A    -11.374760
       4A    -11.288928     5A    -11.238175     6A    -11.221090
       7A    -11.219498     8A    -11.217703     9A    -11.210668
      10A     -1.459752    11A     -1.366115    12A     -1.094310
      13A     -1.042294    14A     -0.982239    15A     -0.938720
      16A     -0.848419    17A     -0.796596    18A     -0.764911
      19A     -0.695795    20A     -0.678175    21A     -0.673279
      22A     -0.649152    23A     -0.614420    24A     -0.607109
      25A     -0.578022    26A     -0.568013    27A     -0.554214
      28A     -0.533136    29A     -0.509572    30A     -0.502616
      31A     -0.486689    32A     -0.474796    33A     -0.469824
      34A     -0.466939    35A     -0.450102    36A     -0.431521

  @DF-RHF Final Energy:  -422.95961034020576

   => Energetics <=

    Nuclear Repulsion Energy =            451.9116008662976469
    One-Electron Energy =               -1471.4415812820438987
    Two-Electron Energy =                 596.5703700755408363
    DFT Exchange-Correlation Energy =       0.0000000000000000
    Empirical Dispersion Energy =           0.0000000000000000
    PCM Polarization Energy =               0.0000000000000000
    EFP Energy =                            0.0000000000000000
    Total Energy =                       -422.9596103402053586
    Molecular point group: c1
  Basis Set: 6-31G*
  Basis Set:

  -Total Gradient:
     Atom            X                  Y                   Z
    ------   -----------------  -----------------  -----------------
       1       -0.004635234918    -0.005019833513     0.002061555696
       2        0.006878809517     0.007640847380    -0.005493224943
       3        0.000039968976    -0.000078567983    -0.000049910410
       4       -0.002547963310    -0.002825976150     0.009141974549
       5       -0.000063173828     0.000012232955    -0.000036562646
       6        0.000022976447     0.000004846767    -0.000028137262
       7        0.000018444805     0.000038995784     0.000045142866
       8       -0.000006293441    -0.000020915796    -0.000033163861
       9        0.000013138449     0.000018498750     0.000006819945
      10        0.000001037504    -0.000026457036     0.000013795150
      11       -0.000005020487     0.000006302494     0.000050329327
      12        0.000005265118    -0.000014195495    -0.000016376575
      13       -0.000012510950    -0.000013994701     0.000018262880
      14        0.000065300098    -0.000011351527    -0.000008755547
      15       -0.000004745645     0.000008603393     0.000015916941
      16       -0.000007705512    -0.000013106311    -0.000001707964
      17        0.000000619421    -0.000003895910    -0.000016095321
      18        0.000024806692     0.000004125977     0.000024840689
      19       -0.000005507385    -0.000000126553     0.000006548365
      20        0.000162371054     0.000307509112    -0.005715603232
      21        0.000149627382     0.000015080960    -0.000033274724
      22       -0.000116461529    -0.000012015418    -0.000004865963
      23        0.000022251538    -0.000016607177     0.000052492041

  **** Optimization is complete! (in 7 steps) ****
    Final optimized geometry and variables:
    Molecular point group: c1

    Geometry (in Angstrom), charge = 0, multiplicity = 1:

    O            0.880265570384     0.125296259972     2.165709676204
    C            1.166806568036    -0.526381695021     1.221080099818
    C            0.421505881085    -0.536111080778    -0.089624733278
    O            2.168431630324    -1.432462622407     1.247245788259
    C           -0.775126333287     0.408565224901    -0.129239459671
    H            1.138538216679    -0.298035384915    -0.872916138567
    H            0.122016035853    -1.564408699805    -0.274515734695
    C           -1.506298850006     0.366477583501    -1.471795734688
    H           -0.439604107918     1.420509644485     0.076590073209
    H           -1.459492455711     0.148852338344     0.672388535910
    C           -2.708450627987     1.310563131049    -1.527256852033
    H           -0.813186872950     0.622113831721    -2.272074511980
    H           -1.839956992655    -0.650525751819    -1.672272797892
    C           -3.435167856834     1.272060645690    -2.870943648891
    H           -2.377098256991     2.326578333275    -1.324569382159
    H           -3.404527668236     1.052723701473    -0.732286628122
    H           -2.773157120355     1.557649355691    -3.683674048823
    H           -4.281101291849     1.952221349286    -2.879452071935
    H           -3.810171545643     0.275354195898    -3.085836213175
    C            3.484113446048    -0.923305023396     1.327451898782
    H            3.735121998302    -0.369341423650     0.428816154836
    H            4.138685924942    -1.776491882616     1.413507817828
    H            3.597942640619    -0.286127459028     2.194299103336

  Mulliken Charges: (a.u.)
   Center  Symbol    Alpha    Beta     Spin     Total
       1     O     4.25913  4.25913  0.00000 -0.51825
       2     C     2.60974  2.60974  0.00000  0.78053
       3     C     3.21168  3.21168  0.00000 -0.42337
       4     O     4.31623  4.31623  0.00000 -0.63246
       5     C     3.15317  3.15317  0.00000 -0.30634
       6     H     0.40679  0.40679  0.00000  0.18641
       7     H     0.39772  0.39772  0.00000  0.20456
       8     C     3.15318  3.15318  0.00000 -0.30636
       9     H     0.41282  0.41282  0.00000  0.17436
      10     H     0.41040  0.41040  0.00000  0.17919
      11     C     3.15163  3.15163  0.00000 -0.30327
      12     H     0.42464  0.42464  0.00000  0.15073
      13     H     0.42333  0.42333  0.00000  0.15333
      14     C     3.23963  3.23963  0.00000 -0.47926
      15     H     0.42150  0.42150  0.00000  0.15700
      16     H     0.42084  0.42084  0.00000  0.15831
      17     H     0.42200  0.42200  0.00000  0.15600
      18     H     0.41825  0.41825  0.00000  0.16351
      19     H     0.42156  0.42156  0.00000  0.15689
      20     C     3.09396  3.09396  0.00000 -0.18792
      21     H     0.42180  0.42180  0.00000  0.15641
      22     H     0.40420  0.40420  0.00000  0.19161
      23     H     0.40581  0.40581  0.00000  0.18838

   Total alpha = 36.00000, Total beta = 36.00000, Total charge =  0.00000
