  ==> Input File <==

--------------------------------------------------------------------------
set {
	reference rhf
	basis 6-31G*
}

set_num_threads( 1 )
memory 2 gb

molecule MOL {
0 1

H	 -1.183915	 -0.704293	 -0.822333
N	 -0.626943	 -0.667432	 -0.000092
C	 -1.028179	 -1.468684	 1.133805
C	 0.469286	 0.129090	 0.000148
H	 -2.017021	 -1.185708	 1.478944
H	 -0.319717	 -1.305179	 1.929466
H	 -1.036504	 -2.523704	 0.881029
C	 1.788933	 -0.616240	 -0.000037
O	 0.411098	 1.327768	 -0.000049
H	 1.872803	 -1.245775	 -0.880381
H	 2.595421	 0.101576	 0.003713
H	 1.870096	 -1.252171	 0.875943

	symmetry c1
}
set optking {
	frozen_dihedral = ("
		4 2 3 5
	")
}

ee = energy('scf')
oeprop('DIPOLE', 'QUADRUPOLE', 'MULLIKEN_CHARGES')
f=open( 'psi4out.xyz', 'w' )
f.write( "12  " )
f.write( str(ee) + "\n" )
f.write( MOL.save_string_xyz() )
f.close()
--------------------------------------------------------------------------

    Molecular point group: c1

    Geometry (in Angstrom), charge = 0, multiplicity = 1:

       Center              X                  Y                   Z               Mass
    ------------   -----------------  -----------------  -----------------  -----------------
           H         -1.380374765325    -0.433840152271    -1.056388833182     1.007825032070
           N         -0.823402765325    -0.396979152271    -0.234147833182    14.003074004780
           C         -1.224638765325    -1.198231152271     0.899749166818    12.000000000000
           C          0.272826234675     0.399542847729    -0.233907833182    12.000000000000
           H         -2.213480765325    -0.915255152271     1.244888166818     1.007825032070
           H         -0.516176765325    -1.034726152271     1.695410166818     1.007825032070
           H         -1.232963765325    -2.253251152271     0.646973166818     1.007825032070
           C          1.592473234675    -0.345787152271    -0.234092833182    12.000000000000
           O          0.214638234675     1.598220847729    -0.234104833182    15.994914619560
           H          1.676343234675    -0.975322152271    -1.114436833182     1.007825032070
           H          2.398961234675     0.372028847729    -0.230342833182     1.007825032070
           H          1.673636234675    -0.981718152271     0.641887166818     1.007825032070

  Charge       = 0
  Multiplicity = 1
  Basis Set: 6-31G*
  Basis Set:

    Orbital Energies (a.u.)
    -----------------------

    Doubly Occupied:

       1A    -20.542958     2A    -15.549235     3A    -11.347128
       4A    -11.264612     5A    -11.224214     6A     -1.395403
       7A     -1.221724     8A     -1.002813     9A     -0.943193
      10A     -0.782880    11A     -0.680771    12A     -0.652103
      13A     -0.640570    14A     -0.592076    15A     -0.579884
      16A     -0.567051    17A     -0.552584    18A     -0.487338
      19A     -0.423766    20A     -0.371265

  @DF-RHF Final Energy:  -246.96770344585647

   => Energetics <=

    Nuclear Repulsion Energy =            181.2594079793427966
    One-Electron Energy =                -694.8110646907472301
    Two-Electron Energy =                 266.5839532655480184
    DFT Exchange-Correlation Energy =       0.0000000000000000
    Empirical Dispersion Energy =           0.0000000000000000
    PCM Polarization Energy =               0.0000000000000000
    EFP Energy =                            0.0000000000000000
    Total Energy =                       -246.9677034458564435

  Mulliken Charges: (a.u.)
   Center  Symbol    Alpha    Beta     Spin     Total
       1     H     0.30766  0.30766  0.00000  0.38467
       2     N     3.90136  3.90136  0.00000 -0.80271
       3     C     3.13311  3.13311  0.00000 -0.26621
       4     C     2.66235  2.66235  0.00000  0.67530
       5     H     0.40995  0.40995  0.00000  0.18010
       6     H     0.41277  0.41277  0.00000  0.17446
       7     H     0.41908  0.41908  0.00000  0.16185
       8     C     3.27925  3.27925  0.00000 -0.55851
       9     O     4.25516  4.25516  0.00000 -0.51032
      10     H     0.40748  0.40748  0.00000  0.18504
      11     H     0.40099  0.40099  0.00000  0.19803
      12     H     0.41084  0.41084  0.00000  0.17831

   Total alpha = 20.00000, Total beta = 20.00000, Total charge =  0.00000
