                              Psi4 1.0.54 Driver

  ==> Input File <==

--------------------------------------------------------------------------
set {
	reference rhf
	basis cc-pvtz
}

set_num_threads( 4 )
memory 2 gb

molecule MOL {
0 1

H	 -2.816458	 -0.841657	 -0.064679
N	 -1.878861	 -0.711874	 0.250184
C	 -1.341419	 0.551458	 -0.220231
H	 -1.333674	 -1.468530	 -0.105118
C	 0.082190	 0.731516	 0.254705
H	 -1.357065	 0.652078	 -1.304747
H	 -1.939897	 1.357530	 0.189797
O	 0.487384	 -0.430337	 0.913205
H	 0.733813	 0.925869	 -0.596051
H	 0.137712	 1.583622	 0.928323
C	 1.762231	 -0.367316	 1.460941
H	 1.966453	 -1.315157	 1.937678
H	 2.515573	 -0.191886	 0.695831
H	 1.837116	 0.422511	 2.204667

	symmetry c1
}
set optking {
	frozen_dihedral = ("
		8 5 3 6
	")
}

ee,wfn = optimize('scf', return_wfn=True)
oeprop( wfn, 'DIPOLE', 'QUADRUPOLE', 'MULLIKEN_CHARGES')
f=open( 'psi4out.xyz', 'w' )
f.write( "14  " )
f.write( str(ee) + "\n" )
f.write( MOL.save_string_xyz() )
f.close()
--------------------------------------------------------------------------

    Molecular point group: c1
  Charge       = 0
  Multiplicity = 1
  Basis Set: CC-PVTZ
  Basis Set:
  @DF-RHF Final Energy:  -248.21034203144058
    Total Energy =                       -248.2103420314405184
    Molecular point group: c1
  Basis Set: CC-PVTZ
  Basis Set:
  Basis Set: CC-PVTZ
  Basis Set:
  @DF-RHF Final Energy:  -247.19339537543144
    Total Energy =                       -247.1933953754313791
  Basis Set: CC-PVTZ
  Basis Set:
  Basis Set: CC-PVTZ
  Basis Set:
  @DF-RHF Final Energy:  -247.38502538981243
    Total Energy =                       -247.3850253898122560
  Basis Set: CC-PVTZ
  Basis Set:
  Basis Set: CC-PVTZ
  Basis Set:
  @DF-RHF Final Energy:  -247.60540214576028
    Total Energy =                       -247.6054021457601664
  Basis Set: CC-PVTZ
  Basis Set:
  @DF-RHF Final Energy:  -247.92211420259849
    Total Energy =                       -247.9221142025984079
  @DF-RHF Final Energy:  -248.08843035027405
    Total Energy =                       -248.0884303502742796
  @DF-RHF Final Energy:  -247.73251189171683
    Total Energy =                       -247.7325118917168538
  @DF-RHF Final Energy:  -247.81751906479792
    Total Energy =                       -247.8175190647978638
  @DF-RHF Final Energy:  -248.04312720310352
    Total Energy =                       -248.0431272031033814
  @DF-RHF Final Energy:  -247.68073423588820
    Total Energy =                       -247.6807342358883375
  @DF-RHF Final Energy:  -247.96798271974018
    Total Energy =                       -247.9679827197402346
  @DF-RHF Final Energy:  -248.14986440909396
    Total Energy =                       -248.1498644090939933
  @DF-RHF Final Energy:  -248.19192845539655
    Total Energy =                       -248.1919284553964644
  @DF-RHF Final Energy:  -248.20637744990586
    Total Energy =                       -248.2063774499057445
  @DF-RHF Final Energy:  -248.20976256480236
    Total Energy =                       -248.2097625648024177
  @DF-RHF Final Energy:  -248.21269300927293
    Total Energy =                       -248.2126930092729253
  @DF-RHF Final Energy:  -248.21268691575770
    Total Energy =                       -248.2126869157575584
  Basis Set: CC-PVTZ
  Basis Set:
  @DF-RHF Final Energy:  -248.21336726911636
    Total Energy =                       -248.2133672691163611
  Basis Set: CC-PVTZ
  Basis Set:
  Basis Set: CC-PVTZ
  Basis Set:
  @DF-RHF Final Energy:  -248.21340529346875
    Total Energy =                       -248.2134052934687247
  Basis Set: CC-PVTZ
  Basis Set:
  Basis Set: CC-PVTZ
  Basis Set:
  @DF-RHF Final Energy:  -248.21341721927115
    Total Energy =                       -248.2134172192710935
  Basis Set: CC-PVTZ
  Basis Set:
  Charge       = 0
  Multiplicity = 1
  Basis Set: CC-PVTZ
  Basis Set:

    Orbital Energies (a.u.)
    -----------------------

    Doubly Occupied:

       1A    -20.550549     2A    -15.518836     3A    -11.268457
       4A    -11.264002     5A    -11.241330     6A     -1.385893
       7A     -1.170695     8A     -0.995627     9A     -0.910393
      10A     -0.814972    11A     -0.683516    12A     -0.677586
      13A     -0.649159    14A     -0.607163    15A     -0.599508
      16A     -0.561036    17A     -0.519856    18A     -0.494993
      19A     -0.472310    20A     -0.423502    21A     -0.370590

  @DF-RHF Final Energy:  -248.21341777590146

   => Energetics <=

    Nuclear Repulsion Energy =            194.8331667293698501
    One-Electron Energy =                -723.7332305755621746
    Two-Electron Energy =                 280.6866460702907489
    DFT Exchange-Correlation Energy =       0.0000000000000000
    Empirical Dispersion Energy =           0.0000000000000000
    PCM Polarization Energy =               0.0000000000000000
    EFP Energy =                            0.0000000000000000
    Total Energy =                       -248.2134177759015756
    Molecular point group: c1
  Basis Set: CC-PVTZ
  Basis Set:

  -Total Gradient:
     Atom            X                  Y                   Z
    ------   -----------------  -----------------  -----------------
       1        0.000016895102    -0.000000049332     0.000007498525
       2       -0.000058198505     0.000069426273     0.000047386528
       3        0.002234635949     0.000889735613     0.003818173944
       4       -0.000012329564    -0.000064943295    -0.000093367260
       5        0.000571057666     0.003785998785    -0.000773356390
       6       -0.001992057381    -0.001553982428    -0.003086232887
       7        0.000010007573    -0.000008376221     0.000012503339
       8       -0.000746862419    -0.003095453467     0.000120050396
       9        0.000000568548    -0.000001351973    -0.000037002218
      10        0.000009938584    -0.000009583710    -0.000009737745
      11       -0.000003586206    -0.000010616479     0.000012742277
      12        0.000002742219    -0.000001900153    -0.000031276529
      13       -0.000000879972     0.000001369939     0.000000113818
      14       -0.000031931596    -0.000000273552     0.000012504203

  **** Optimization is complete! (in 21 steps) ****
    Final optimized geometry and variables:
    Molecular point group: c1

    Geometry (in Angstrom), charge = 0, multiplicity = 1:

    H            2.689616205087    -0.690345622981    -0.794852228355
    N            1.797000789242    -0.646913858327    -0.352951868391
    C            0.781554070838    -0.229717300631    -1.299008930348
    H            1.854867863230    -0.018328895005     0.417299897256
    C           -0.552596840868     0.156079563717    -0.624131755423
    H            1.090453440268     0.594647035402    -1.940693400674
    H            0.592655833125    -1.060462604728    -1.969344924463
    O           -0.433502945738     0.167730922959     0.762804493865
    H           -0.870460230384     1.136145546180    -0.973690361456
    H           -1.327059592080    -0.551711798897    -0.910902426327
    C           -1.603919061093     0.504812223289     1.428594682377
    H           -1.400455556295     0.478408662075     2.489184600674
    H           -1.943207602336     1.503567963336     1.161133584494
    H           -2.403127454821    -0.199404753099     1.208115813532

  Mulliken Charges: (a.u.)
   Center  Symbol    Alpha    Beta     Spin     Total
       1     H     0.43130  0.43130  0.00000  0.13740
       2     N     3.68372  3.68372  0.00000 -0.36744
       3     C     3.03388  3.03388  0.00000 -0.06776
       4     H     0.42314  0.42314  0.00000  0.15371
       5     C     2.95780  2.95780  0.00000  0.08440
       6     H     0.46894  0.46894  0.00000  0.06212
       7     H     0.46078  0.46078  0.00000  0.07844
       8     O     4.17183  4.17183  0.00000 -0.34365
       9     H     0.47488  0.47488  0.00000  0.05024
      10     H     0.47287  0.47287  0.00000  0.05426
      11     C     3.03131  3.03131  0.00000 -0.06261
      12     H     0.44670  0.44670  0.00000  0.10660
      13     H     0.47234  0.47234  0.00000  0.05533
      14     H     0.47052  0.47052  0.00000  0.05895

   Total alpha = 21.00000, Total beta = 21.00000, Total charge = -0.00000

*** Psi4 exiting successfully. Buy a developer a beer!
