                              Psi4 1.0.54 Driver

  ==> Input File <==

--------------------------------------------------------------------------
set {
	reference rhf
	basis cc-pvtz
}

set_num_threads( 4 )
memory 2 gb

molecule MOL {
0 1

H	 -3.436473	 1.252944	 -1.023892
O	 -3.458596	 0.315260	 -0.960865
C	 -3.176635	 -0.080824	 0.355601
C	 -1.763371	 0.265266	 0.799691
H	 -3.321825	 -1.153438	 0.379502
H	 -3.895468	 0.357385	 1.043382
C	 -0.673390	 -0.426948	 -0.013392
H	 -1.631049	 1.344913	 0.747560
H	 -1.664587	 -0.001624	 1.849167
C	 0.737842	 -0.043159	 0.423759
H	 -0.806103	 -0.190518	 -1.063345
H	 -0.797221	 -1.503753	 0.074146
C	 1.744704	 -1.178098	 0.247152
H	 1.057143	 0.827116	 -0.141536
H	 0.722270	 0.260538	 1.468451
C	 3.157206	 -0.869097	 0.746358
H	 1.789780	 -1.456979	 -0.803107
H	 1.376952	 -2.053119	 0.776033
C	 3.887153	 0.219463	 -0.036813
H	 3.743929	 -1.781520	 0.701449
H	 3.113326	 -0.589601	 1.795823
H	 3.941189	 -0.030073	 -1.091748
H	 4.901882	 0.338866	 0.325554
H	 3.395992	 1.181089	 0.050600

	symmetry c1
}
set optking {
	frozen_dihedral = ("
		13 10 7 11
	")
}

ee,wfn = optimize('scf', return_wfn=True)
oeprop( wfn, 'DIPOLE', 'QUADRUPOLE', 'MULLIKEN_CHARGES')
f=open( 'psi4out.xyz', 'w' )
f.write( "24  " )
f.write( str(ee) + "\n" )
f.write( MOL.save_string_xyz() )
f.close()
--------------------------------------------------------------------------

    Molecular point group: c1
  Charge       = 0
  Multiplicity = 1
  Basis Set: CC-PVTZ
  Basis Set:
  @DF-RHF Final Energy:  -349.37729937430902
    Total Energy =                       -349.3772993743091888
    Molecular point group: c1
  Basis Set: CC-PVTZ
  Basis Set:
  Basis Set: CC-PVTZ
  Basis Set:
  @DF-RHF Final Energy:  -349.37751705691267
    Total Energy =                       -349.3775170569126658
  Basis Set: CC-PVTZ
  Basis Set:
  Basis Set: CC-PVTZ
  Basis Set:
  @DF-RHF Final Energy:  -349.37761407273149
    Total Energy =                       -349.3776140727312622
  Basis Set: CC-PVTZ
  Basis Set:
  Basis Set: CC-PVTZ
  Basis Set:
  @DF-RHF Final Energy:  -349.37760385800055
    Total Energy =                       -349.3776038580002705
  Basis Set: CC-PVTZ
  Basis Set:
  Basis Set: CC-PVTZ
  Basis Set:
  @DF-RHF Final Energy:  -349.37762331071161
    Total Energy =                       -349.3776233107120106
  Basis Set: CC-PVTZ
  Basis Set:
  Charge       = 0
  Multiplicity = 1
  Basis Set: CC-PVTZ
  Basis Set:

    Orbital Energies (a.u.)
    -----------------------

    Doubly Occupied:

       1A    -20.546354     2A    -11.265342     3A    -11.215172
       4A    -11.212121     5A    -11.210303     6A    -11.209705
       7A    -11.208719     8A    -11.205217     9A     -1.364151
      10A     -1.088993    11A     -1.049243    12A     -0.986039
      13A     -0.915993    14A     -0.851172    15A     -0.801479
      16A     -0.777191    17A     -0.681759    18A     -0.654809
      19A     -0.624758    20A     -0.622157    21A     -0.596923
      22A     -0.579455    23A     -0.569358    24A     -0.533359
      25A     -0.521244    26A     -0.514227    27A     -0.493801
      28A     -0.477937    29A     -0.466927    30A     -0.461170
      31A     -0.453591    32A     -0.449019    33A     -0.421310

  @DF-RHF Final Energy:  -349.37762341019095

   => Energetics <=

    Nuclear Repulsion Energy =            384.3853175677803620
    One-Electron Energy =               -1235.4678948567111547
    Two-Electron Energy =                 501.7049538787395022
    DFT Exchange-Correlation Energy =       0.0000000000000000
    Empirical Dispersion Energy =           0.0000000000000000
    PCM Polarization Energy =               0.0000000000000000
    EFP Energy =                            0.0000000000000000
    Total Energy =                       -349.3776234101912905
    Molecular point group: c1
  Basis Set: CC-PVTZ
  Basis Set:

  -Total Gradient:
     Atom            X                  Y                   Z
    ------   -----------------  -----------------  -----------------
       1        0.000002693055     0.000000559040     0.000003054772
       2        0.000000977860    -0.000011322711    -0.000016875307
       3       -0.000005142748     0.000006691083     0.000021113923
       4        0.000014999288    -0.000002354109     0.000005848084
       5       -0.000005176117     0.000001043438    -0.000010739347
       6       -0.000000602139    -0.000003201815     0.000004095501
       7        0.001595356200    -0.005112109377    -0.000336416709
       8        0.000002734571     0.000006140563     0.000003645958
       9       -0.000004414856     0.000000748001     0.000005230561
      10        0.000466070706     0.002390846690    -0.003628494219
      11       -0.001463168736     0.003802799141     0.001148962613
      12        0.000014781248     0.000005801051    -0.000003402184
      13       -0.000594247894    -0.001092968505     0.002808911318
      14       -0.000003231458     0.000000245192    -0.000015678444
      15       -0.000017813352     0.000007777725     0.000012873366
      16        0.000001106188     0.000009293370    -0.000003750705
      17        0.000001281111    -0.000008812580    -0.000001441112
      18        0.000009579552     0.000003592647     0.000005779519
      19       -0.000005144907    -0.000003789323     0.000001378217
      20       -0.000003829987     0.000005273031    -0.000000344136
      21       -0.000003647783    -0.000002823421    -0.000003095347
      22       -0.000004084360     0.000002551686    -0.000004106792
      23        0.000002337612    -0.000002546377     0.000001187157
      24       -0.000001413047    -0.000003434439     0.000002263314

  **** Optimization is complete! (in 6 steps) ****
    Final optimized geometry and variables:
    Molecular point group: c1

    Geometry (in Angstrom), charge = 0, multiplicity = 1:

    H           -3.394910297263     1.503988527198    -1.165369753121
    O           -3.428902756348     0.564769755702    -1.146046387799
    C           -3.191535921118     0.106361426977     0.159048970648
    C           -1.786090900611     0.407423181072     0.657169896908
    H           -3.355101601310    -0.963618627188     0.130936644846
    H           -3.922864093567     0.526344427922     0.845039917190
    C           -0.683703963746    -0.278691805328    -0.148190372159
    H           -1.630751728126     1.485516734057     0.646434886577
    H           -1.723147309702     0.103128827886     1.699092912978
    C            0.724838693767     0.127121169799     0.304714083443
    H           -0.823497894618    -0.015843804641    -1.189965660828
    H           -0.807155553757    -1.354553668661    -0.067825685486
    C            1.764555219627    -0.973737771243     0.099409753817
    H            1.019544839356     1.034085206164    -0.211202848161
    H            0.704657216525     0.375269784067     1.363772673010
    C            3.181559043934    -0.612422051985     0.547532748077
    H            1.784849295770    -1.264703222375    -0.948930685146
    H            1.441197007843    -1.852623820744     0.649770617621
    C            3.858800444567     0.470798141914    -0.288670638357
    H            3.791874859832    -1.509670848964     0.511905284261
    H            3.160116458035    -0.303028810754     1.589407747042
    H            3.891759416889     0.189334064438    -1.336327814515
    H            4.879000520090     0.629918545865     0.041683617535
    H            3.342958530847     1.420751561553    -0.217994954965

  Mulliken Charges: (a.u.)
   Center  Symbol    Alpha    Beta     Spin     Total
       1     H     0.39530  0.39530  0.00000  0.20941
       2     O     4.20381  4.20381  0.00000 -0.40761
       3     C     2.97734  2.97734  0.00000  0.04532
       4     C     3.10139  3.10139  0.00000 -0.20278
       5     H     0.45891  0.45891  0.00000  0.08219
       6     H     0.46035  0.46035  0.00000  0.07931
       7     C     3.09016  3.09016  0.00000 -0.18031
       8     H     0.45849  0.45849  0.00000  0.08302
       9     H     0.45348  0.45348  0.00000  0.09305
      10     C     3.09349  3.09349  0.00000 -0.18697
      11     H     0.44505  0.44505  0.00000  0.10990
      12     H     0.45476  0.45476  0.00000  0.09048
      13     C     3.09457  3.09457  0.00000 -0.18914
      14     H     0.45074  0.45074  0.00000  0.09851
      15     H     0.45740  0.45740  0.00000  0.08520
      16     C     3.09017  3.09017  0.00000 -0.18034
      17     H     0.45291  0.45291  0.00000  0.09418
      18     H     0.44993  0.44993  0.00000  0.10014
      19     C     3.15174  3.15174  0.00000 -0.30349
      20     H     0.44865  0.44865  0.00000  0.10270
      21     H     0.45538  0.45538  0.00000  0.08925
      22     H     0.45465  0.45465  0.00000  0.09070
      23     H     0.44694  0.44694  0.00000  0.10612
      24     H     0.45441  0.45441  0.00000  0.09118

   Total alpha = 33.00000, Total beta = 33.00000, Total charge =  0.00000

*** Psi4 exiting successfully. Buy a developer a beer!
