  ==> Input File <==

--------------------------------------------------------------------------
set {
	reference rhf
	basis cc-pvtz
}

set_num_threads( 4 )
memory 2 gb

molecule MOL {
0 1

H	 -0.000105	 1.988529	 0.748933
O	 -0.000098	 1.879786	 -0.188206
C	 -0.000014	 0.545691	 -0.532416
C	 1.195537	 -0.164186	 0.105164
C	 -0.090506	 0.392206	 -2.051636
H	 -0.890141	 0.095863	 -0.117700
F	 1.123755	 -0.047997	 1.408317
F	 1.228256	 -1.440660	 -0.183379
F	 2.332970	 0.372692	 -0.281337
F	 -1.194075	 0.954766	 -2.478860
F	 -0.108303	 -0.862406	 -2.424927
F	 0.918429	 0.984687	 -2.653625

	symmetry c1
}
set optking {
	frozen_dihedral = ("
		6 3 2 1
	")
}

ee = optimize('scf')
oeprop('DIPOLE', 'QUADRUPOLE', 'MULLIKEN_CHARGES')
f=open( 'psi4out.xyz', 'w' )
f.write( "12  " )
f.write( str(ee) + "\n" )
f.write( MOL.save_string_xyz() )
f.close()
--------------------------------------------------------------------------

    Molecular point group: c1
  Charge       = 0
  Multiplicity = 1
  Basis Set: CC-PVTZ
  Basis Set:
  @DF-RHF Final Energy:  -786.58570855997368
    Total Energy =                       -786.5857085599736820
    Molecular point group: c1
  Basis Set: CC-PVTZ
  Basis Set:
  Basis Set: CC-PVTZ
  Basis Set:
  @DF-RHF Final Energy:  -786.58759052555206
    Total Energy =                       -786.5875905255518319
  Basis Set: CC-PVTZ
  Basis Set:
  Basis Set: CC-PVTZ
  Basis Set:
  @DF-RHF Final Energy:  -786.58801298618562
    Total Energy =                       -786.5880129861852765
  Basis Set: CC-PVTZ
  Basis Set:
  Basis Set: CC-PVTZ
  Basis Set:
  @DF-RHF Final Energy:  -786.58806653444356
    Total Energy =                       -786.5880665344434419
  Basis Set: CC-PVTZ
  Basis Set:
  Basis Set: CC-PVTZ
  Basis Set:
  @DF-RHF Final Energy:  -786.58807643112573
    Total Energy =                       -786.5880764311253870
  Basis Set: CC-PVTZ
  Basis Set:
  Basis Set: CC-PVTZ
  Basis Set:
  @DF-RHF Final Energy:  -786.58807832849038
    Total Energy =                       -786.5880783284904965
  Basis Set: CC-PVTZ
  Basis Set:
  Charge       = 0
  Multiplicity = 1
  Basis Set: CC-PVTZ
  Basis Set:

    Orbital Energies (a.u.)
    -----------------------

    Doubly Occupied:

       1A    -26.360230     2A    -26.357421     3A    -26.355482
       4A    -26.351914     5A    -26.348462     6A    -26.348065
       7A    -20.609029     8A    -11.520169     9A    -11.516227
      10A    -11.351532    11A     -1.771030    12A     -1.762254
      13A     -1.665806    14A     -1.664747    15A     -1.657685
      16A     -1.656027    17A     -1.439513    18A     -1.104124
      19A     -1.000452    20A     -0.941097    21A     -0.873524
      22A     -0.864170    23A     -0.859871    24A     -0.848793
      25A     -0.838153    26A     -0.790136    27A     -0.761377
      28A     -0.736925    29A     -0.727852    30A     -0.724000
      31A     -0.721188    32A     -0.690350    33A     -0.686983
      34A     -0.674545    35A     -0.674024    36A     -0.667563
      37A     -0.658891    38A     -0.641157    39A     -0.622592
      40A     -0.551549    41A     -0.509959

  @DF-RHF Final Energy:  -786.58807875220862

   => Energetics <=

    Nuclear Repulsion Energy =            670.9319290998711267
    One-Electron Energy =               -2429.2302705547290316
    Two-Electron Energy =                 971.7102627026495156
    DFT Exchange-Correlation Energy =       0.0000000000000000
    Empirical Dispersion Energy =           0.0000000000000000
    PCM Polarization Energy =               0.0000000000000000
    EFP Energy =                            0.0000000000000000
    Total Energy =                       -786.5880787522085029
    Molecular point group: c1
  Basis Set: CC-PVTZ
  Basis Set:

  -Total Gradient:
     Atom            X                  Y                   Z
    ------   -----------------  -----------------  -----------------
       1        0.000730282164     0.000008554791     0.000048791395
       2       -0.000975991653     0.000043768281    -0.000166115436
       3        0.000587606734    -0.000244417462     0.000605538509
       4       -0.000011154789     0.000017807069    -0.000022529725
       5        0.000007415965    -0.000025375694    -0.000005233161
       6       -0.000305417564     0.000141775863    -0.000533521147
       7       -0.000030004405     0.000012144471    -0.000027020402
       8        0.000009828206    -0.000004949303     0.000024499334
       9       -0.000021400269     0.000002571982    -0.000004935058
      10       -0.000022367784    -0.000035304656     0.000028779124
      11       -0.000034600570     0.000033673801     0.000053249350
      12        0.000065803971     0.000049750854    -0.000001502789

  **** Optimization is complete! (in 7 steps) ****
    Final optimized geometry and variables:
    Molecular point group: c1

    Geometry (in Angstrom), charge = 0, multiplicity = 1:

    H           -0.605414804287     1.736323608851     1.667224114624
    O           -0.580506734761     1.613313910327     0.734335364902
    C           -0.575260407316     0.272804297456     0.413996494627
    C            0.634433802487    -0.429650132522     1.032015566116
    C           -0.634997820727     0.186387072327    -1.109230300502
    H           -1.453927107094    -0.247213177441     0.780308333696
    F            0.638720714011    -0.173453862324     2.328190361552
    F            0.564753617333    -1.729165376895     0.887417993001
    F            1.774274518799    -0.019580177318     0.543911299899
    F           -1.769478457580     0.693596309094    -1.526780733371
    F           -0.584983993331    -1.064547526052    -1.505816472449
    F            0.338399952916     0.837234810490    -1.687724092834

  Mulliken Charges: (a.u.)
   Center  Symbol    Alpha    Beta     Spin     Total
       1     H     0.38371  0.38371  0.00000  0.23259
       2     O     4.18460  4.18460  0.00000 -0.36919
       3     C     2.99834  2.99834  0.00000  0.00332
       4     C     2.68337  2.68337  0.00000  0.63327
       5     C     2.67655  2.67655  0.00000  0.64690
       6     H     0.44488  0.44488  0.00000  0.11024
       7     F     4.61437  4.61437  0.00000 -0.22873
       8     F     4.60322  4.60322  0.00000 -0.20645
       9     F     4.59963  4.59963  0.00000 -0.19926
      10     F     4.60405  4.60405  0.00000 -0.20810
      11     F     4.60593  4.60593  0.00000 -0.21186
      12     F     4.60137  4.60137  0.00000 -0.20273

   Total alpha = 41.00000, Total beta = 41.00000, Total charge =  0.00000
