  ==> Input File <==

--------------------------------------------------------------------------
set {
	reference rhf
	basis cc-pvtz
}

set_num_threads( 4 )
memory 2 gb

molecule MOL {
0 1

H	 2.724450	 -0.411788	 -0.842304
N	 2.326826	 -0.066186	 0.000000
C	 0.934676	 -0.005420	 0.000000
H	 2.719954	 -0.514807	 0.794489
C	 0.226436	 -0.001077	 -1.195129
C	 0.226436	 -0.001077	 1.195129
H	 0.759091	 -0.011439	 -2.128123
C	 -1.153391	 0.009141	 -1.189028
H	 0.759091	 -0.011439	 2.128123
C	 -1.153391	 0.009141	 1.189028
H	 -1.680905	 0.012964	 -2.124348
C	 -1.857876	 0.014675	 0.000000
H	 -1.680905	 0.012964	 2.124348
H	 -2.930222	 0.022904	 0.000000

	symmetry c1
}
set optking {
	frozen_dihedral = ("
		1 2 3 5
	")
}

ee = optimize('scf')
oeprop('DIPOLE', 'QUADRUPOLE', 'MULLIKEN_CHARGES')
f=open( 'psi4out.xyz', 'w' )
f.write( "14  " )
f.write( str(ee) + "\n" )
f.write( MOL.save_string_xyz() )
f.close()
--------------------------------------------------------------------------

    Molecular point group: c1
  Charge       = 0
  Multiplicity = 1
  Basis Set: CC-PVTZ
  Basis Set:
  @DF-RHF Final Energy:  -285.83319618628178
    Total Energy =                       -285.8331961862817252
    Molecular point group: c1
  Basis Set: CC-PVTZ
  Basis Set:
  Basis Set: CC-PVTZ
  Basis Set:
  @DF-RHF Final Energy:  -285.83354255597516
    Total Energy =                       -285.8335425559751002
  Basis Set: CC-PVTZ
  Basis Set:
  Basis Set: CC-PVTZ
  Basis Set:
  @DF-RHF Final Energy:  -285.83365500593749
    Total Energy =                       -285.8336550059375440
  Basis Set: CC-PVTZ
  Basis Set:
  Charge       = 0
  Multiplicity = 1
  Basis Set: CC-PVTZ
  Basis Set:

    Orbital Energies (a.u.)
    -----------------------

    Doubly Occupied:

       1A    -15.555883     2A    -11.271079     3A    -11.227063
       4A    -11.226982     5A    -11.215526     6A    -11.215190
       7A    -11.210756     8A     -1.227080     9A     -1.130438
      10A     -1.013326    11A     -0.987822    12A     -0.832854
      13A     -0.813661    14A     -0.708335    15A     -0.688573
      16A     -0.655039    17A     -0.598976    18A     -0.594774
      19A     -0.581552    20A     -0.535036    21A     -0.506476
      22A     -0.487212    23A     -0.448489    24A     -0.336174
      25A     -0.294052

  @DF-RHF Final Energy:  -285.83365567376148

   => Energetics <=

    Nuclear Repulsion Energy =            273.7530491576691816
    One-Electron Energy =                -928.4487111893306519
    Two-Electron Energy =                 368.8620063579002135
    DFT Exchange-Correlation Energy =       0.0000000000000000
    Empirical Dispersion Energy =           0.0000000000000000
    PCM Polarization Energy =               0.0000000000000000
    EFP Energy =                            0.0000000000000000
    Total Energy =                       -285.8336556737612000
    Molecular point group: c1
  Basis Set: CC-PVTZ
  Basis Set:

  -Total Gradient:
     Atom            X                  Y                   Z
    ------   -----------------  -----------------  -----------------
       1        0.000005820193     0.000784329978    -0.000285889691
       2        0.000051884812    -0.001314078086     0.000327168178
       3       -0.000062364434     0.001125092810     0.000076468388
       4       -0.000011256891    -0.000009444561    -0.000000755100
       5       -0.000082665614    -0.000576887615    -0.000060073598
       6        0.000103802162    -0.000010087956    -0.000071571448
       7        0.000011352401    -0.000021586640     0.000000808338
       8        0.000105102270     0.000037986823    -0.000061320417
       9       -0.000008768963    -0.000022566827     0.000003333653
      10       -0.000112194566     0.000160516162    -0.000062650985
      11       -0.000002955928     0.000002304881     0.000007343627
      12        0.000002033790    -0.000133480997     0.000129146164
      13        0.000001306935    -0.000025369392     0.000001334311
      14       -0.000001096168     0.000003271420    -0.000003341418

  **** Optimization is complete! (in 4 steps) ****
    Final optimized geometry and variables:
    Molecular point group: c1

    Geometry (in Angstrom), charge = 0, multiplicity = 1:

    H            2.746648807654    -0.319817426499    -0.845990060919
    N            2.327049062799    -0.025966660354     0.004723241267
    C            0.934408717534    -0.028070410569     0.000045452919
    H            2.743306220356    -0.466348124268     0.791594362518
    C            0.226634934786    -0.009668922909    -1.194998878433
    C            0.226005444108    -0.004894224874     1.195326721247
    H            0.758812218475    -0.025918496171    -2.128248696644
    C           -1.152862425400     0.035020656693    -1.189248251241
    H            0.759084070410    -0.011358386102     2.128005428607
    C           -1.152891581973     0.035234671993     1.188759602918
    H           -1.679934760988     0.049558331530    -2.124710156456
    C           -1.857121867575     0.055960656839    -0.000672151989
    H           -1.680455186518     0.051261299230     2.123927801945
    H           -2.929002232065     0.088211035203    -0.000828365505

  Mulliken Charges: (a.u.)
   Center  Symbol    Alpha    Beta     Spin     Total
       1     H     0.42281  0.42281  0.00000  0.15437
       2     N     3.66877  3.66877  0.00000 -0.33755
       3     C     2.88811  2.88811  0.00000  0.22377
       4     H     0.42082  0.42082  0.00000  0.15835
       5     C     3.11837  3.11837  0.00000 -0.23674
       6     C     3.11701  3.11701  0.00000 -0.23402
       7     H     0.43480  0.43480  0.00000  0.13041
       8     C     3.05795  3.05795  0.00000 -0.11589
       9     H     0.43335  0.43335  0.00000  0.13329
      10     C     3.05777  3.05777  0.00000 -0.11554
      11     H     0.42477  0.42477  0.00000  0.15045
      12     C     3.10530  3.10530  0.00000 -0.21061
      13     H     0.42474  0.42474  0.00000  0.15052
      14     H     0.42541  0.42541  0.00000  0.14919

   Total alpha = 25.00000, Total beta = 25.00000, Total charge =  0.00000
