  ==> Input File <==

--------------------------------------------------------------------------
set {
	reference rhf
	basis 6-31G*
}

set_num_threads( 4 )
memory 2 gb

molecule MOL {
0 1

O	 -0.291628	 1.323815	 -0.000732
C	 -0.449655	 0.146360	 0.000961
C	 -1.783294	 -0.549321	 -0.000296
O	 0.550821	 -0.724572	 0.000672
H	 -1.863538	 -1.185371	 -0.874187
H	 -2.574672	 0.185258	 -0.002793
H	 -1.866414	 -1.182381	 0.875436
C	 0.500625	 -1.759347	 -0.965248
H	 -0.384750	 -2.363348	 -0.828686
H	 1.387064	 -2.353459	 -0.807114
H	 0.499126	 -1.346530	 -1.963709

	symmetry c1
}
set optking {
	frozen_dihedral = ("
		8 4 2 1
	")
}

ee = optimize('scf')
oeprop('DIPOLE', 'QUADRUPOLE', 'MULLIKEN_CHARGES')
f=open( 'psi4out.xyz', 'w' )
f.write( "11  " )
f.write( str(ee) + "\n" )
f.write( MOL.save_string_xyz() )
f.close()
--------------------------------------------------------------------------

    Molecular point group: c1
  Charge       = 0
  Multiplicity = 1
  Basis Set: 6-31G*
  Basis Set:
  @DF-RHF Final Energy:  -266.81121517468944
    Total Energy =                       -266.8112151746894369
    Molecular point group: c1
  Basis Set: 6-31G*
  Basis Set:
  Basis Set: 6-31G*
  Basis Set:
  @DF-RHF Final Energy:  -266.81186716244093
    Total Energy =                       -266.8118671624409899
  Basis Set: 6-31G*
  Basis Set:
  Basis Set: 6-31G*
  Basis Set:
  @DF-RHF Final Energy:  -266.81582982281981
    Total Energy =                       -266.8158298228198646
  Basis Set: 6-31G*
  Basis Set:
  Basis Set: 6-31G*
  Basis Set:
  @DF-RHF Final Energy:  -266.81593812030837
    Total Energy =                       -266.8159381203083740
  Basis Set: 6-31G*
  Basis Set:
  @DF-RHF Final Energy:  -266.81689137153120
    Total Energy =                       -266.8168913715315398
  @DF-RHF Final Energy:  -266.81715354807318
    Total Energy =                       -266.8171535480729517
  @DF-RHF Final Energy:  -266.81720132100668
    Total Energy =                       -266.8172013210063938
  Basis Set: 6-31G*
  Basis Set:
  @DF-RHF Final Energy:  -266.81723145233821
    Total Energy =                       -266.8172314523380919
  Basis Set: 6-31G*
  Basis Set:
  Basis Set: 6-31G*
  Basis Set:
  @DF-RHF Final Energy:  -266.81725087933830
    Total Energy =                       -266.8172508793385873
  Basis Set: 6-31G*
  Basis Set:
  Basis Set: 6-31G*
  Basis Set:
  @DF-RHF Final Energy:  -266.81725729067983
    Total Energy =                       -266.8172572906798337
  Basis Set: 6-31G*
  Basis Set:
  Charge       = 0
  Multiplicity = 1
  Basis Set: 6-31G*
  Basis Set:

    Orbital Energies (a.u.)
    -----------------------

    Doubly Occupied:

       1A    -20.595143     2A    -20.551411     3A    -11.379015
       4A    -11.297255     5A    -11.242466     6A     -1.462572
       7A     -1.369853     8A     -1.022824     9A     -0.977585
      10A     -0.782164    11A     -0.696269    12A     -0.684186
      13A     -0.675393    14A     -0.613318    15A     -0.591618
      16A     -0.579782    17A     -0.545280    18A     -0.499221
      19A     -0.458447    20A     -0.439016

  @DF-RHF Final Energy:  -266.81725749162160

   => Energetics <=

    Nuclear Repulsion Energy =            182.6611435863237602
    One-Electron Energy =                -726.0311637366680770
    Two-Electron Energy =                 276.5527626587224859
    DFT Exchange-Correlation Energy =       0.0000000000000000
    Empirical Dispersion Energy =           0.0000000000000000
    PCM Polarization Energy =               0.0000000000000000
    EFP Energy =                            0.0000000000000000
    Total Energy =                       -266.8172574916218309
    Molecular point group: c1
  Basis Set: 6-31G*
  Basis Set:

  -Total Gradient:
     Atom            X                  Y                   Z
    ------   -----------------  -----------------  -----------------
       1       -0.000007850276    -0.000125022082    -0.003936697228
       2        0.000739580871     0.001202515199     0.004585626330
       3        0.000011538942    -0.000009961291     0.000003414308
       4       -0.002330947946    -0.002958966826     0.001495355947
       5        0.000001363558     0.000004320736    -0.000001606005
       6       -0.000004317311    -0.000002252052    -0.000001727907
       7        0.000002222022     0.000006606240    -0.000001220327
       8        0.001582692901     0.001881163730    -0.002144671184
       9        0.000004415479     0.000000272237    -0.000001302908
      10        0.000001455125     0.000000432956     0.000001737066
      11       -0.000000153365     0.000000891149     0.000001091909

  **** Optimization is complete! (in 11 steps) ****
    Final optimized geometry and variables:
    Molecular point group: c1

    Geometry (in Angstrom), charge = 0, multiplicity = 1:

    O            0.001983410367     1.632629277275     0.166371043160
    C           -0.187679792811     0.466871588942     0.188392241068
    C           -1.566569319745    -0.149502975864     0.224774820372
    O            0.847133602081    -0.391521267891     0.200813288192
    H           -1.822703120162    -0.563838684339    -0.745050322178
    H           -2.284178020182     0.618626945402     0.471205771444
    H           -1.611230663981    -0.950014028465     0.953824388129
    C            0.874764334335    -1.458735654789    -0.719703934875
    H            0.099711357838    -2.188264590709    -0.515884509249
    H            1.839027381609    -1.928254248970    -0.605713314837
    H            0.775144472494    -1.095478320880    -1.735981773742

  Mulliken Charges: (a.u.)
   Center  Symbol    Alpha    Beta     Spin     Total
       1     O     4.25135  4.25135  0.00000 -0.50269
       2     C     2.62386  2.62386  0.00000  0.75228
       3     C     3.30185  3.30185  0.00000 -0.60370
       4     O     4.30179  4.30179  0.00000 -0.60359
       5     H     0.40303  0.40303  0.00000  0.19394
       6     H     0.39005  0.39005  0.00000  0.21990
       7     H     0.40155  0.40155  0.00000  0.19691
       8     C     3.09413  3.09413  0.00000 -0.18827
       9     H     0.41887  0.41887  0.00000  0.16226
      10     H     0.39902  0.39902  0.00000  0.20196
      11     H     0.41450  0.41450  0.00000  0.17101

   Total alpha = 20.00000, Total beta = 20.00000, Total charge = -0.00000
