  ==> Input File <==

--------------------------------------------------------------------------
set {
	reference rhf
	basis 6-31G*
}

set_num_threads( 4 )
memory 2 gb

molecule MOL {
0 1

O	 -0.987039	 -1.415352	 -0.025662
C	 -0.677512	 -0.254184	 -0.049828
C	 -1.749462	 0.819598	 -0.049024
N	 0.623947	 0.147590	 -0.102813
H	 -1.685303	 1.445948	 -0.932004
H	 -2.706268	 0.320153	 -0.037937
H	 -1.672694	 1.459234	 0.823647
C	 1.665360	 -0.855771	 0.000151
C	 1.058581	 1.513429	 0.091665
H	 2.465253	 -0.618490	 -0.692587
H	 1.257730	 -1.821716	 -0.242189
H	 2.081488	 -0.891645	 1.004627
H	 1.949762	 1.689168	 -0.499056
H	 0.309112	 2.218386	 -0.231238
H	 1.300631	 1.718427	 1.132914

	symmetry c1
}
set optking {
	frozen_dihedral = ("
		2 4 8 10
	")
}

ee = optimize('scf')
oeprop('DIPOLE', 'QUADRUPOLE', 'MULLIKEN_CHARGES')
f=open( 'psi4out.xyz', 'w' )
f.write( "15  " )
f.write( str(ee) + "\n" )
f.write( MOL.save_string_xyz() )
f.close()
--------------------------------------------------------------------------

    Molecular point group: c1
  Charge       = 0
  Multiplicity = 1
  Basis Set: 6-31G*
  Basis Set:
  @DF-RHF Final Energy:  -286.02981094116842
    Total Energy =                       -286.0298109411681367
    Molecular point group: c1
  Basis Set: 6-31G*
  Basis Set:
  Basis Set: 6-31G*
  Basis Set:
  @DF-RHF Final Energy:  -286.02981342325199
    Total Energy =                       -286.0298134232518805
  Basis Set: 6-31G*
  Basis Set:
  Charge       = 0
  Multiplicity = 1
  Basis Set: 6-31G*
  Basis Set:

    Orbital Energies (a.u.)
    -----------------------

    Doubly Occupied:

       1A    -20.514002     2A    -15.584009     3A    -11.341711
       4A    -11.266435     5A    -11.247777     6A    -11.228296
       7A     -1.384020     8A     -1.243733     9A     -1.014207
      10A     -0.972678    11A     -0.919330    12A     -0.737942
      13A     -0.681095    14A     -0.659288    15A     -0.651273
      16A     -0.589335    17A     -0.576056    18A     -0.567435
      19A     -0.561567    20A     -0.546923    21A     -0.529571
      22A     -0.503740    23A     -0.410001    24A     -0.366358

  @DF-RHF Final Energy:  -286.02981308750140

   => Energetics <=

    Nuclear Repulsion Energy =            252.3617162327689698
    One-Electron Energy =                -888.5894936169249831
    Two-Electron Energy =                 350.1979642966545612
    DFT Exchange-Correlation Energy =       0.0000000000000000
    Empirical Dispersion Energy =           0.0000000000000000
    PCM Polarization Energy =               0.0000000000000000
    EFP Energy =                            0.0000000000000000
    Total Energy =                       -286.0298130875015090
    Molecular point group: c1
  Basis Set: 6-31G*
  Basis Set:

  -Total Gradient:
     Atom            X                  Y                   Z
    ------   -----------------  -----------------  -----------------
       1       -0.000004003155     0.000050775741     0.000325482253
       2       -0.000164606894    -0.000085443437    -0.000816430775
       3       -0.000005689762     0.000009056491     0.000164331736
       4        0.000047233027    -0.000055942528     0.000252771074
       5        0.000019842738    -0.000031233239     0.000015294815
       6        0.000008424865    -0.000000823469     0.000022494174
       7       -0.000032767554     0.000033979868     0.000020090190
       8        0.000117283392     0.000078218495     0.000018399466
       9       -0.000012437397    -0.000002537731     0.000069380000
      10        0.000014361793    -0.000054957879    -0.000065116869
      11       -0.000013732401     0.000039848939    -0.000022067184
      12       -0.000021228616     0.000041031322     0.000013174325
      13        0.000013402248    -0.000017844432    -0.000001602742
      14        0.000027116705    -0.000001316233     0.000002321026
      15        0.000006801015    -0.000002811902     0.000001478510

  **** Optimization is complete! (in 3 steps) ****
    Final optimized geometry and variables:
    Molecular point group: c1

    Geometry (in Angstrom), charge = 0, multiplicity = 1:

    O           -0.986857853448    -1.411636910479    -0.010110873012
    C           -0.676168927195    -0.250766869723    -0.033090755252
    C           -1.747232859121     0.823942779899    -0.029471568086
    N            0.625604746815     0.150645116936    -0.080788554120
    H           -1.685524064613     1.449653255587    -0.913093393908
    H           -2.704334765477     0.325182702812    -0.015045908783
    H           -1.667232733892     1.464111088434     0.842538328428
    C            1.668701040952    -0.851084980421     0.019404936496
    C            1.060771984540     1.516856318357     0.109443159452
    H            2.470709650390    -0.610082067689    -0.669941786981
    H            1.262899834027    -1.816257025249    -0.228689154239
    H            2.081465913549    -0.890099124657     1.025087480752
    H            1.953243454036     1.689509020416    -0.480325688689
    H            0.312792046129     2.221634688811    -0.217187821602
    H            1.301421653512     1.725000978176     1.150375966993

  Mulliken Charges: (a.u.)
   Center  Symbol    Alpha    Beta     Spin     Total
       1     O     4.30471  4.30471  0.00000 -0.60942
       2     C     2.62344  2.62344  0.00000  0.75312
       3     C     3.29874  3.29874  0.00000 -0.59748
       4     N     3.82385  3.82385  0.00000 -0.64770
       5     H     0.40661  0.40661  0.00000  0.18678
       6     H     0.39043  0.39043  0.00000  0.21914
       7     H     0.40778  0.40778  0.00000  0.18444
       8     C     3.14546  3.14546  0.00000 -0.29092
       9     C     3.14169  3.14169  0.00000 -0.28337
      10     H     0.41874  0.41874  0.00000  0.16251
      11     H     0.38416  0.38416  0.00000  0.23169
      12     H     0.41999  0.41999  0.00000  0.16001
      13     H     0.41064  0.41064  0.00000  0.17871
      14     H     0.40718  0.40718  0.00000  0.18564
      15     H     0.41657  0.41657  0.00000  0.16685

   Total alpha = 24.00000, Total beta = 24.00000, Total charge =  0.00000
