  ==> Input File <==

--------------------------------------------------------------------------
set {
	reference rhf
	basis cc-pvtz
}

set_num_threads( 4 )
memory 2 gb

molecule MOL {
0 1

H	 2.315321	 -1.197530	 0.452821
N	 2.433987	 -0.362316	 -0.080024
C	 1.263552	 0.494993	 0.021953
H	 2.593065	 -0.637073	 -1.026882
C	 -0.016533	 -0.325589	 -0.026925
H	 1.280915	 1.180773	 -0.818522
H	 1.263064	 1.106893	 0.925038
C	 -1.280353	 0.525521	 0.047747
H	 -0.016686	 -0.912532	 -0.939714
H	 -0.014099	 -1.037598	 0.796369
C	 -2.560681	 -0.301323	 -0.007747
H	 -1.279957	 1.241025	 -0.770189
H	 -1.270445	 1.110526	 0.963468
H	 -2.617064	 -0.872870	 -0.928010
H	 -3.439525	 0.331102	 0.043462
H	 -2.609427	 -1.002736	 0.818585

	symmetry c1
}
set optking {
	frozen_dihedral = ("
		1 2 3 6
	")
}

ee = optimize('scf')
oeprop('DIPOLE', 'QUADRUPOLE', 'MULLIKEN_CHARGES')
f=open( 'psi4out.xyz', 'w' )
f.write( "16  " )
f.write( str(ee) + "\n" )
f.write( MOL.save_string_xyz() )
f.close()
--------------------------------------------------------------------------

    Molecular point group: c1
  Charge       = 0
  Multiplicity = 1
  Basis Set: CC-PVTZ
  Basis Set:
  @DF-RHF Final Energy:  -212.39771325427515
    Total Energy =                       -212.3977132542750610
    Molecular point group: c1
  Basis Set: CC-PVTZ
  Basis Set:
  Basis Set: CC-PVTZ
  Basis Set:
  @DF-RHF Final Energy:  -212.39904881470184
    Total Energy =                       -212.3990488147018709
  Basis Set: CC-PVTZ
  Basis Set:
  Basis Set: CC-PVTZ
  Basis Set:
  @DF-RHF Final Energy:  -212.39923403525265
    Total Energy =                       -212.3992340352529027
  Basis Set: CC-PVTZ
  Basis Set:
  Basis Set: CC-PVTZ
  Basis Set:
  @DF-RHF Final Energy:  -212.39923669454780
    Total Energy =                       -212.3992366945478807
  Basis Set: CC-PVTZ
  Basis Set:
  Charge       = 0
  Multiplicity = 1
  Basis Set: CC-PVTZ
  Basis Set:

    Orbital Energies (a.u.)
    -----------------------

    Doubly Occupied:

       1A    -15.526635     2A    -11.238378     3A    -11.215863
       4A    -11.211966     5A    -11.208769     6A     -1.178618
       7A     -1.063241     8A     -0.960588     9A     -0.848400
      10A     -0.797307    11A     -0.677286    12A     -0.627546
      13A     -0.598516    14A     -0.587867    15A     -0.556117
      16A     -0.525279    17A     -0.503903    18A     -0.486569
      19A     -0.471868    20A     -0.466518    21A     -0.380046

  @DF-RHF Final Energy:  -212.39923688472948

   => Energetics <=

    Nuclear Repulsion Energy =            186.3986555811089829
    One-Electron Energy =                -655.3332226325626380
    Two-Electron Energy =                 256.5353301667241226
    DFT Exchange-Correlation Energy =       0.0000000000000000
    Empirical Dispersion Energy =           0.0000000000000000
    PCM Polarization Energy =               0.0000000000000000
    EFP Energy =                            0.0000000000000000
    Total Energy =                       -212.3992368847295324
    Molecular point group: c1
  Basis Set: CC-PVTZ
  Basis Set:

  -Total Gradient:
     Atom            X                  Y                   Z
    ------   -----------------  -----------------  -----------------
       1       -0.000930622426    -0.001280481926    -0.002240829445
       2        0.000872098441     0.001204163724     0.002478908631
       3        0.001233990081     0.001729850987     0.001176925565
       4       -0.000002222526     0.000003353508     0.000004357511
       5        0.000022220388     0.000017476452    -0.000000919949
       6       -0.001173620865    -0.001672199128    -0.001419758731
       7       -0.000008198789     0.000003702172     0.000005009923
       8        0.000018979524    -0.000006858781    -0.000013463390
       9        0.000000521006     0.000004179589     0.000004183234
      10        0.000001541689    -0.000005248851    -0.000004875441
      11       -0.000026268355     0.000004643512     0.000014090545
      12        0.000002306655     0.000000123695     0.000000518757
      13       -0.000004760042     0.000000032660    -0.000005229293
      14        0.000004164352     0.000006680442    -0.000000544495
      15       -0.000009501375    -0.000007175355     0.000002471819
      16       -0.000000627759    -0.000002242700    -0.000000845243

  **** Optimization is complete! (in 5 steps) ****
    Final optimized geometry and variables:
    Molecular point group: c1

    Geometry (in Angstrom), charge = 0, multiplicity = 1:

    H            2.401255707382    -1.158558414652     0.476757619528
    N            2.493312921289    -0.310121424057    -0.042603334408
    C            1.270519679811     0.477111697800     0.026188662207
    H            2.682291830706    -0.580000918471    -0.984987644872
    C           -0.024411190311    -0.330380428095    -0.023868978468
    H            1.278796061209     1.174311921354    -0.804662179254
    H            1.289506247553     1.069837367770     0.934887376956
    C           -1.278552672703     0.534946618123     0.056148653516
    H           -0.043362588840    -0.915780489151    -0.940592196291
    H           -0.028044663668    -1.045540632808     0.796674947322
    C           -2.570400342434    -0.274750559169     0.016332677247
    H           -1.275970169813     1.247617782224    -0.764242662360
    H           -1.251180112100     1.123197850914     0.969254179070
    H           -2.644559765705    -0.848102673371    -0.901720509931
    H           -3.440033669551     0.369600090140     0.074618034559
    H           -2.620038077097    -0.972860181429     0.845315821102

  Mulliken Charges: (a.u.)
   Center  Symbol    Alpha    Beta     Spin     Total
       1     H     0.43186  0.43186  0.00000  0.13628
       2     N     3.68871  3.68871  0.00000 -0.37742
       3     C     3.02576  3.02576  0.00000 -0.05152
       4     H     0.43214  0.43214  0.00000  0.13571
       5     C     3.08655  3.08655  0.00000 -0.17311
       6     H     0.45627  0.45627  0.00000  0.08747
       7     H     0.45452  0.45452  0.00000  0.09096
       8     C     3.09000  3.09000  0.00000 -0.18000
       9     H     0.45939  0.45939  0.00000  0.08122
      10     H     0.45954  0.45954  0.00000  0.08091
      11     C     3.14862  3.14862  0.00000 -0.29724
      12     H     0.45441  0.45441  0.00000  0.09117
      13     H     0.45409  0.45409  0.00000  0.09181
      14     H     0.45504  0.45504  0.00000  0.08992
      15     H     0.44823  0.44823  0.00000  0.10355
      16     H     0.45485  0.45485  0.00000  0.09029

   Total alpha = 21.00000, Total beta = 21.00000, Total charge = -0.00000
