  ==> Input File <==

--------------------------------------------------------------------------
set {
	reference rhf
	basis cc-pvtz
}

set_num_threads( 4 )
memory 2 gb

molecule MOL {
0 1

H	 -2.644180	 -0.653737	 1.272255
C	 -2.092774	 -0.380414	 0.391915
O	 -0.808934	 -0.154049	 0.752536
F	 -2.163230	 -1.351640	 -0.507133
F	 -2.627232	 0.691260	 -0.169301
C	 0.085006	 0.250800	 -0.215074
C	 1.370439	 -0.548013	 -0.012993
Cl	 0.421658	 1.987697	 -0.091007
H	 -0.272219	 0.063284	 -1.212508
F	 2.246777	 0.156030	 0.657364
F	 1.888326	 -0.827480	 -1.185599
F	 1.161768	 -1.669612	 0.620035

	symmetry c1
}
set optking {
	frozen_dihedral = ("
		10 7 6 9
	")
}

ee = optimize('scf')
oeprop('DIPOLE', 'QUADRUPOLE', 'MULLIKEN_CHARGES')
f=open( 'psi4out.xyz', 'w' )
f.write( "12  " )
f.write( str(ee) + "\n" )
f.write( MOL.save_string_xyz() )
f.close()
--------------------------------------------------------------------------

    Molecular point group: c1
  Charge       = 0
  Multiplicity = 1
  Basis Set: CC-PVTZ
  Basis Set:
  @DF-RHF Final Energy: -1146.61205669437140
    Total Energy =                      -1146.6120566943723134
    Molecular point group: c1
  Basis Set: CC-PVTZ
  Basis Set:
  Basis Set: CC-PVTZ
  Basis Set:
  @DF-RHF Final Energy: -1146.61277490571706
    Total Energy =                      -1146.6127749057166056
  Basis Set: CC-PVTZ
  Basis Set:
  Basis Set: CC-PVTZ
  Basis Set:
  @DF-RHF Final Energy: -1146.61400469933187
    Total Energy =                      -1146.6140046993318720
  Basis Set: CC-PVTZ
  Basis Set:
  Basis Set: CC-PVTZ
  Basis Set:
  @DF-RHF Final Energy: -1146.61407364408637
    Total Energy =                      -1146.6140736440861474
  Basis Set: CC-PVTZ
  Basis Set:
  @DF-RHF Final Energy: -1146.61408838316584
    Total Energy =                      -1146.6140883831653809
  @DF-RHF Final Energy: -1146.61409697155705
    Total Energy =                      -1146.6140969715561369
  @DF-RHF Final Energy: -1146.61410421966480
    Total Energy =                      -1146.6141042196643411
  Basis Set: CC-PVTZ
  Basis Set:
  @DF-RHF Final Energy: -1146.61410738835252
    Total Energy =                      -1146.6141073883522949
  Basis Set: CC-PVTZ
  Basis Set:
  Basis Set: CC-PVTZ
  Basis Set:
  @DF-RHF Final Energy: -1146.61406165852350
    Total Energy =                      -1146.6140616585230418
  Basis Set: CC-PVTZ
  Basis Set:
  Basis Set: CC-PVTZ
  Basis Set:
  @DF-RHF Final Energy: -1146.61410771639862
    Total Energy =                      -1146.6141077163988484
  Basis Set: CC-PVTZ
  Basis Set:
  Charge       = 0
  Multiplicity = 1
  Basis Set: CC-PVTZ
  Basis Set:

    Orbital Energies (a.u.)
    -----------------------

    Doubly Occupied:

       1A   -104.854816     2A    -26.355682     3A    -26.353105
       4A    -26.351917     5A    -26.344021     6A    -26.343862
       7A    -20.641033     8A    -11.521947     9A    -11.484734
      10A    -11.402084    11A    -10.580402    12A     -8.047176
      13A     -8.045215    14A     -8.045117    15A     -1.768367
      16A     -1.725475    17A     -1.663977    18A     -1.659344
      19A     -1.645509    20A     -1.488246    21A     -1.175614
      22A     -1.049099    23A     -0.992177    24A     -0.924779
      25A     -0.862733    26A     -0.859471    27A     -0.852442
      28A     -0.831402    29A     -0.820327    30A     -0.795439
      31A     -0.734833    32A     -0.733261    33A     -0.711057
      34A     -0.708656    35A     -0.685917    36A     -0.679582
      37A     -0.665607    38A     -0.663267    39A     -0.650679
      40A     -0.636266    41A     -0.599067    42A     -0.579895
      43A     -0.523510    44A     -0.477337    45A     -0.468018

  @DF-RHF Final Energy: -1146.61410812144914

   => Energetics <=

    Nuclear Repulsion Energy =            736.2848544938723307
    One-Electron Energy =               -3055.7929920061378652
    Two-Electron Energy =                1172.8940293908176500
    DFT Exchange-Correlation Energy =       0.0000000000000000
    Empirical Dispersion Energy =           0.0000000000000000
    PCM Polarization Energy =               0.0000000000000000
    EFP Energy =                            0.0000000000000000
    Total Energy =                      -1146.6141081214477708
    Molecular point group: c1
  Basis Set: CC-PVTZ
  Basis Set:

  -Total Gradient:
     Atom            X                  Y                   Z
    ------   -----------------  -----------------  -----------------
       1       -0.000002020781    -0.000003727434     0.000008945180
       2       -0.000080839503    -0.000023982421     0.000012522373
       3        0.000015384507    -0.000011905655     0.000003270933
       4        0.000022314322     0.000032286472     0.000004264651
       5        0.000024343078    -0.000016491441     0.000001020634
       6       -0.003669966484    -0.005477402766     0.000875008556
       7       -0.002110876210    -0.002086861628     0.005881590099
       8       -0.000033402148    -0.000053144057     0.000005172221
       9        0.003680063033     0.005289549916    -0.002080639165
      10        0.002160875546     0.002346848889    -0.004843370906
      11        0.000015233518    -0.000029475860     0.000105860954
      12       -0.000021108868     0.000034306088     0.000026354466

  **** Optimization is complete! (in 11 steps) ****
    Final optimized geometry and variables:
    Molecular point group: c1

    Geometry (in Angstrom), charge = 0, multiplicity = 1:

    H           -2.676894884736    -0.607142381353     1.280377014727
    C           -2.100186020260    -0.383199669825     0.402342321992
    O           -0.844041077844    -0.068058708193     0.791148513760
    F           -2.089688055597    -1.428029508504    -0.413336043938
    F           -2.655169528265     0.612501357691    -0.268903573014
    C            0.067580623866     0.284365343804    -0.175674916341
    C            1.361950797286    -0.545448879895    -0.006626098136
    CL           0.426490349630     2.023371523062    -0.086645849055
    H           -0.280275805059     0.132468693077    -1.180720403291
    F            2.291480250417     0.057592798895     0.680103346176
    F            1.854650868998    -0.781869886338    -1.204751915586
    F            1.104803343132    -1.695024566310     0.556024060052

  Mulliken Charges: (a.u.)
   Center  Symbol    Alpha    Beta     Spin     Total
       1     H     0.45155  0.45155  0.00000  0.09690
       2     C     2.73802  2.73802  0.00000  0.52396
       3     O     4.15209  4.15209  0.00000 -0.30418
       4     F     4.61807  4.61807  0.00000 -0.23614
       5     F     4.61547  4.61547  0.00000 -0.23095
       6     C     2.95328  2.95328  0.00000  0.09343
       7     C     2.66415  2.66415  0.00000  0.67171
       8    CL     8.57235  8.57235  0.00000 -0.14470
       9     H     0.43189  0.43189  0.00000  0.13622
      10     F     4.59611  4.59611  0.00000 -0.19221
      11     F     4.60836  4.60836  0.00000 -0.21671
      12     F     4.59866  4.59866  0.00000 -0.19732

   Total alpha = 45.00000, Total beta = 45.00000, Total charge = -0.00000
