                              Psi4 1.0.54 Driver

  ==> Input File <==

--------------------------------------------------------------------------
set {
	reference rhf
	basis cc-pvtz
}

set_num_threads( 4 )
memory 2 gb

molecule MOL {
0 1

H	 1.128311	 0.207724	 1.465118
C	 1.134565	 0.093781	 0.372499
C	 0.062554	 0.862911	 -0.350953
O	 1.948932	 -0.587720	 -0.146651
C	 -1.345638	 0.346982	 -0.038820
H	 0.271515	 0.830008	 -1.412436
H	 0.145257	 1.897053	 -0.024174
C	 -1.611826	 -1.055339	 -0.578534
H	 -2.065276	 1.039169	 -0.460211
H	 -1.504626	 0.362456	 1.035857
H	 -1.495723	 -1.084998	 -1.656123
H	 -2.620143	 -1.373628	 -0.342673
H	 -0.928749	 -1.784246	 -0.156474

	symmetry c1
}
set optking {
	frozen_dihedral = ("
		6 3 2 4
	")
}

ee,wfn = optimize('scf', return_wfn=True)
oeprop( wfn, 'DIPOLE', 'QUADRUPOLE', 'MULLIKEN_CHARGES')
f=open( 'psi4out.xyz', 'w' )
f.write( "13  " )
f.write( str(ee) + "\n" )
f.write( MOL.save_string_xyz() )
f.close()
--------------------------------------------------------------------------

    Molecular point group: c1
  Charge       = 0
  Multiplicity = 1
  Basis Set: CC-PVTZ
  Basis Set:
  @DF-RHF Final Energy:  -231.07047755565955
    Total Energy =                       -231.0704775556596360
    Molecular point group: c1
  Basis Set: CC-PVTZ
  Basis Set:
  Basis Set: CC-PVTZ
  Basis Set:
  @DF-RHF Final Energy:  -231.06962196020794
    Total Energy =                       -231.0696219602080532
  Basis Set: CC-PVTZ
  Basis Set:
  Basis Set: CC-PVTZ
  Basis Set:
  @DF-RHF Final Energy:  -231.07051160214161
    Total Energy =                       -231.0705116021415506
  Basis Set: CC-PVTZ
  Basis Set:
  Basis Set: CC-PVTZ
  Basis Set:
  @DF-RHF Final Energy:  -231.07052092582018
    Total Energy =                       -231.0705209258202331
  Basis Set: CC-PVTZ
  Basis Set:
  Basis Set: CC-PVTZ
  Basis Set:
  @DF-RHF Final Energy:  -231.07052875411676
    Total Energy =                       -231.0705287541168786
  Basis Set: CC-PVTZ
  Basis Set:
  Charge       = 0
  Multiplicity = 1
  Basis Set: CC-PVTZ
  Basis Set:

    Orbital Energies (a.u.)
    -----------------------

    Doubly Occupied:

       1A    -20.552828     2A    -11.321809     3A    -11.237355
       4A    -11.234646     5A    -11.217385     6A     -1.407653
       7A     -1.086925     8A     -0.973834     9A     -0.847404
      10A     -0.788310    11A     -0.671975    12A     -0.652678
      13A     -0.623829    14A     -0.595921    15A     -0.559495
      16A     -0.536578    17A     -0.506500    18A     -0.493628
      19A     -0.483255    20A     -0.412842

  @DF-RHF Final Energy:  -231.07052971950463

   => Energetics <=

    Nuclear Repulsion Energy =            174.6329646050470501
    One-Electron Energy =                -658.9972905632023412
    Two-Electron Energy =                 253.2937962386506570
    DFT Exchange-Correlation Energy =       0.0000000000000000
    Empirical Dispersion Energy =           0.0000000000000000
    PCM Polarization Energy =               0.0000000000000000
    EFP Energy =                            0.0000000000000000
    Total Energy =                       -231.0705297195046342
    Molecular point group: c1
  Basis Set: CC-PVTZ
  Basis Set:

  -Total Gradient:
     Atom            X                  Y                   Z
    ------   -----------------  -----------------  -----------------
       1        0.000005237186     0.000018734568    -0.000058737243
       2        0.001068751573     0.001288416493    -0.000123552403
       3       -0.000960735620    -0.001361086666    -0.000045994362
       4       -0.000650211952    -0.000780304797     0.000121965337
       5        0.000004909556     0.000022988928     0.000003623264
       6        0.000552400866     0.000821059757     0.000112143586
       7       -0.000003273041     0.000001024343    -0.000008866831
       8       -0.000001538219    -0.000003614317    -0.000006417348
       9       -0.000006383818    -0.000027526759     0.000008041673
      10       -0.000009038125     0.000001619108    -0.000009293033
      11        0.000000604673     0.000001712707     0.000009528278
      12        0.000005901509     0.000003099975     0.000000427295
      13       -0.000006624584     0.000013876660    -0.000002868217

  **** Optimization is complete! (in 6 steps) ****
    Final optimized geometry and variables:
    Molecular point group: c1

    Geometry (in Angstrom), charge = 0, multiplicity = 1:

    H            1.062297814599     0.283309215456     1.627513142294
    C            1.089862184247     0.184078502069     0.534071277429
    C            0.026860581007     0.955375359988    -0.199228897125
    O            1.903193070347    -0.505267395123     0.023278436342
    C           -1.381536634947     0.431586122370     0.110435678604
    H            0.239282342458     0.916914801448    -1.259815412891
    H            0.098306044621     1.991143260472     0.122669143801
    C           -1.650193799454    -0.964366349612    -0.443669330689
    H           -2.101040067754     1.129126132788    -0.302207358807
    H           -1.538355645114     0.436398751692     1.185623606903
    H           -1.539585022801    -0.981258690630    -1.522009269554
    H           -2.658422650744    -1.282267677290    -0.206510138739
    H           -0.965869710352    -1.697964606479    -0.033864241792

  Mulliken Charges: (a.u.)
   Center  Symbol    Alpha    Beta     Spin     Total
       1     H     0.46438  0.46438  0.00000  0.07124
       2     C     2.90529  2.90529  0.00000  0.18943
       3     C     3.08738  3.08738  0.00000 -0.17475
       4     O     4.16567  4.16567  0.00000 -0.33133
       5     C     3.10220  3.10220  0.00000 -0.20441
       6     H     0.44382  0.44382  0.00000  0.11235
       7     H     0.44361  0.44361  0.00000  0.11279
       8     C     3.14249  3.14249  0.00000 -0.28497
       9     H     0.44383  0.44383  0.00000  0.11235
      10     H     0.45152  0.45152  0.00000  0.09697
      11     H     0.45172  0.45172  0.00000  0.09655
      12     H     0.44768  0.44768  0.00000  0.10464
      13     H     0.45042  0.45042  0.00000  0.09916

   Total alpha = 20.00000, Total beta = 20.00000, Total charge = -0.00000

*** Psi4 exiting successfully. Buy a developer a beer!
