  ==> Input File <==

--------------------------------------------------------------------------
set {
	reference rhf
	basis 6-31G*
}

set_num_threads( 4 )
memory 2 gb

molecule MOL {
0 1

H	 -3.420663	 1.227371	 -1.044276
O	 -3.452007	 0.283848	 -0.965577
C	 -3.181085	 -0.079926	 0.364119
C	 -1.765924	 0.277073	 0.805136
H	 -3.327791	 -1.152017	 0.410903
H	 -3.905698	 0.375695	 1.036898
C	 -0.677594	 -0.417312	 -0.014550
H	 -1.637766	 1.358238	 0.744969
H	 -1.659588	 0.017670	 1.857098
C	 0.738335	 -0.034840	 0.421385
H	 -0.814977	 -0.178223	 -1.064632
H	 -0.802730	 -1.495410	 0.071702
C	 1.181574	 -0.756291	 1.696976
H	 1.429318	 -0.254641	 -0.388953
H	 0.789354	 1.041260	 0.582662
C	 2.559750	 -0.339895	 2.223666
H	 1.174139	 -1.831207	 1.523203
H	 0.444477	 -0.570764	 2.475489
C	 3.728543	 -0.709408	 1.308359
H	 2.714309	 -0.809352	 3.192176
H	 2.566911	 0.733403	 2.403062
H	 3.739409	 -1.776212	 1.101113
H	 4.676687	 -0.454252	 1.771775
H	 3.681148	 -0.188203	 0.357957

	symmetry c1
}
set optking {
	frozen_dihedral = ("
		13 10 7 11
	")
}

ee = optimize('scf')
oeprop('DIPOLE', 'QUADRUPOLE', 'MULLIKEN_CHARGES')
f=open( 'psi4out.xyz', 'w' )
f.write( "24  " )
f.write( str(ee) + "\n" )
f.write( MOL.save_string_xyz() )
f.close()
--------------------------------------------------------------------------

    Molecular point group: c1
  Charge       = 0
  Multiplicity = 1
  Basis Set: 6-31G*
  Basis Set:
  @DF-RHF Final Energy:  -349.24525847810179
    Total Energy =                       -349.2452584781019596
    Molecular point group: c1
  Basis Set: 6-31G*
  Basis Set:
  Basis Set: 6-31G*
  Basis Set:
  @DF-RHF Final Energy:  -349.24549016863222
    Total Energy =                       -349.2454901686321591
  Basis Set: 6-31G*
  Basis Set:
  Basis Set: 6-31G*
  Basis Set:
  @DF-RHF Final Energy:  -349.24551432657705
    Total Energy =                       -349.2455143265768811
  Basis Set: 6-31G*
  Basis Set:
  Basis Set: 6-31G*
  Basis Set:
  @DF-RHF Final Energy:  -349.24549472440395
    Total Energy =                       -349.2454947244040682
  Basis Set: 6-31G*
  Basis Set:
  Basis Set: 6-31G*
  Basis Set:
  @DF-RHF Final Energy:  -349.24552870269395
    Total Energy =                       -349.2455287026940596
  Basis Set: 6-31G*
  Basis Set:
  Charge       = 0
  Multiplicity = 1
  Basis Set: 6-31G*
  Basis Set:

    Orbital Energies (a.u.)
    -----------------------

    Doubly Occupied:

       1A    -20.553533     2A    -11.267718     3A    -11.217249
       4A    -11.214867     5A    -11.212878     6A    -11.212283
       7A    -11.211262     8A    -11.207475     9A     -1.360145
      10A     -1.088587    11A     -1.047233    12A     -0.984535
      13A     -0.916109    14A     -0.853315    15A     -0.804377
      16A     -0.772287    17A     -0.679701    18A     -0.643208
      19A     -0.629836    20A     -0.619124    21A     -0.596465
      22A     -0.586569    23A     -0.563140    24A     -0.541270
      25A     -0.518173    26A     -0.508900    27A     -0.495292
      28A     -0.482116    29A     -0.467352    30A     -0.457522
      31A     -0.456275    32A     -0.437931    33A     -0.423611

  @DF-RHF Final Energy:  -349.24552871292212

   => Energetics <=

    Nuclear Repulsion Energy =            386.7762733104710833
    One-Electron Energy =               -1239.9829291218829894
    Two-Electron Energy =                 503.9611270984902376
    DFT Exchange-Correlation Energy =       0.0000000000000000
    Empirical Dispersion Energy =           0.0000000000000000
    PCM Polarization Energy =               0.0000000000000000
    EFP Energy =                            0.0000000000000000
    Total Energy =                       -349.2455287129216686
    Molecular point group: c1
  Basis Set: 6-31G*
  Basis Set:

  -Total Gradient:
     Atom            X                  Y                   Z
    ------   -----------------  -----------------  -----------------
       1       -0.000003312587     0.000012761880    -0.000009611778
       2       -0.000011811961     0.000030423768     0.000044821672
       3       -0.000021813044    -0.000050937531     0.000034228409
       4       -0.000013195428     0.000052112043    -0.000102225497
       5        0.000009352966    -0.000002741150     0.000000196494
       6       -0.000023442036    -0.000002825567    -0.000011331233
       7       -0.000464835210     0.001502191474     0.000257835072
       8       -0.000008311517     0.000004515186     0.000000099134
       9        0.000000236196    -0.000002042103    -0.000023157929
      10       -0.000518861263     0.000933425173     0.000861739649
      11        0.000495180459    -0.001564881822    -0.000411881459
      12       -0.000031343461    -0.000001170441    -0.000006204066
      13        0.000507668876    -0.000879071522    -0.000708311254
      14        0.000069376688     0.000030464131    -0.000001308363
      15        0.000019424666    -0.000023361491     0.000017567622
      16        0.000005425404    -0.000066196174     0.000063180946
      17        0.000007131070     0.000011617299     0.000014125139
      18        0.000009262778     0.000015912867    -0.000013079049
      19       -0.000024315172     0.000003124079    -0.000009137743
      20        0.000028428485    -0.000000149323     0.000017403281
      21       -0.000011521791    -0.000012630688    -0.000005155705
      22        0.000005654648    -0.000001561041     0.000005226610
      23       -0.000009438544     0.000009658892     0.000003234583
      24       -0.000014940219     0.000001362060    -0.000018254532

  **** Optimization is complete! (in 6 steps) ****
    Final optimized geometry and variables:
    Molecular point group: c1

    Geometry (in Angstrom), charge = 0, multiplicity = 1:

    H           -3.245967751632     1.441044446937    -1.770569583822
    O           -3.279900604866     0.497245173378    -1.696642144227
    C           -3.038684394804     0.127591463354    -0.362890813201
    C           -1.634661453499     0.484704763604     0.113298446537
    H           -3.184544693947    -0.944856955770    -0.324546956436
    H           -3.779481192748     0.578831052497     0.295025311735
    C           -0.529257336502    -0.201258624865    -0.692406442957
    H           -1.506637642965     1.566289800783     0.059573396688
    H           -1.559319742028     0.222366349076     1.165977709914
    C            0.895340756013     0.163852970046    -0.251278885530
    H           -0.656279738549     0.041869629062    -1.741828008797
    H           -0.657718748858    -1.280610873562    -0.623573455827
    C            1.354427484573    -0.550459356262     1.024447456087
    H            1.577180281267    -0.083313352322    -1.059821330162
    H            0.969066524319     1.241711876200    -0.112606276598
    C            2.742627205411    -0.133581540832     1.524778337145
    H            1.344521269811    -1.625412176044     0.851080025133
    H            0.637828818723    -0.365855203897     1.821140184187
    C            3.894267630249    -0.498512667208     0.586169047410
    H            2.916927535010    -0.605099743730     2.488963851544
    H            2.751429159867     0.939288928140     1.706694628909
    H            3.901808467227    -1.564342214600     0.373953226215
    H            4.850433116418    -0.245086938514     1.033767299516
    H            3.829687114677     0.026872777412    -0.360744105463

  Mulliken Charges: (a.u.)
   Center  Symbol    Alpha    Beta     Spin     Total
       1     H     0.28336  0.28336  0.00000  0.43327
       2     O     4.36834  4.36834  0.00000 -0.73667
       3     C     2.99598  2.99598  0.00000  0.00805
       4     C     3.17001  3.17001  0.00000 -0.34001
       5     H     0.41620  0.41620  0.00000  0.16760
       6     H     0.42815  0.42815  0.00000  0.14371
       7     C     3.15467  3.15467  0.00000 -0.30933
       8     H     0.42841  0.42841  0.00000  0.14319
       9     H     0.42110  0.42110  0.00000  0.15781
      10     C     3.15628  3.15628  0.00000 -0.31255
      11     H     0.40982  0.40982  0.00000  0.18036
      12     H     0.42352  0.42352  0.00000  0.15296
      13     C     3.15364  3.15364  0.00000 -0.30729
      14     H     0.41854  0.41854  0.00000  0.16293
      15     H     0.42557  0.42557  0.00000  0.14885
      16     C     3.15191  3.15191  0.00000 -0.30383
      17     H     0.42393  0.42393  0.00000  0.15215
      18     H     0.42259  0.42259  0.00000  0.15482
      19     C     3.24132  3.24132  0.00000 -0.48265
      20     H     0.42141  0.42141  0.00000  0.15717
      21     H     0.42382  0.42382  0.00000  0.15236
      22     H     0.42214  0.42214  0.00000  0.15572
      23     H     0.41950  0.41950  0.00000  0.16100
      24     H     0.41980  0.41980  0.00000  0.16039

   Total alpha = 33.00000, Total beta = 33.00000, Total charge =  0.00000
