                              Psi4 1.0.54 Driver

  ==> Input File <==

--------------------------------------------------------------------------
set {
	reference rhf
	basis cc-pvtz
}

set_num_threads( 4 )
memory 2 gb

molecule MOL {
0 1

O	 0.749630	 1.305591	 -0.000460
C	 0.576499	 0.134701	 -0.003900
C	 -0.765656	 -0.550508	 -0.002152
O	 1.564816	 -0.744612	 -0.000631
C	 -1.945526	 0.411052	 0.000603
H	 -0.794329	 -1.203792	 -0.868145
H	 -0.791555	 -1.205429	 0.862701
C	 -3.258261	 -0.291961	 0.328358
H	 -2.015905	 0.893026	 -0.966941
H	 -1.760577	 1.201428	 0.717875
H	 -3.481708	 -1.068499	 -0.395776
H	 -4.083623	 0.409626	 0.324548
H	 -3.223751	 -0.755776	 1.308671
C	 2.884339	 -0.237801	 0.002883
H	 3.064150	 0.362814	 -0.876312
H	 3.533055	 -1.098529	 0.004958
H	 3.059365	 0.363432	 0.882614

	symmetry c1
}
set optking {
	frozen_dihedral = ("
		9 5 3 6
	")
}

ee,wfn = optimize('scf', return_wfn=True)
oeprop( wfn, 'DIPOLE', 'QUADRUPOLE', 'MULLIKEN_CHARGES')
f=open( 'psi4out.xyz', 'w' )
f.write( "17  " )
f.write( str(ee) + "\n" )
f.write( MOL.save_string_xyz() )
f.close()
--------------------------------------------------------------------------

    Molecular point group: c1
  Charge       = 0
  Multiplicity = 1
  Basis Set: CC-PVTZ
  Basis Set:
  @DF-RHF Final Energy:  -345.03479565585513
    Total Energy =                       -345.0347956558551346
    Molecular point group: c1
  Basis Set: CC-PVTZ
  Basis Set:
  Basis Set: CC-PVTZ
  Basis Set:
  @DF-RHF Final Energy:  -345.03467647821856
    Total Energy =                       -345.0346764782183300
  Basis Set: CC-PVTZ
  Basis Set:
  Basis Set: CC-PVTZ
  Basis Set:
  @DF-RHF Final Energy:  -345.03456919002207
    Total Energy =                       -345.0345691900218981
  Basis Set: CC-PVTZ
  Basis Set:
  Basis Set: CC-PVTZ
  Basis Set:
  @DF-RHF Final Energy:  -345.03488434274703
    Total Energy =                       -345.0348843427468637
  Basis Set: CC-PVTZ
  Basis Set:
  Basis Set: CC-PVTZ
  Basis Set:
  @DF-RHF Final Energy:  -345.03488864816200
    Total Energy =                       -345.0348886481623367
  Basis Set: CC-PVTZ
  Basis Set:
  Charge       = 0
  Multiplicity = 1
  Basis Set: CC-PVTZ
  Basis Set:

    Orbital Energies (a.u.)
    -----------------------

    Doubly Occupied:

       1A    -20.596608     2A    -20.534492     3A    -11.364854
       4A    -11.278729     5A    -11.234486     6A    -11.220009
       7A    -11.212532     8A     -1.472547     9A     -1.366136
      10A     -1.081493    11A     -1.002509    12A     -0.940162
      13A     -0.827713    14A     -0.769150    15A     -0.702153
      16A     -0.686785    17A     -0.676250    18A     -0.638001
      19A     -0.597005    20A     -0.575177    21A     -0.570218
      22A     -0.528883    23A     -0.523839    24A     -0.498770
      25A     -0.487660    26A     -0.480175    27A     -0.460200
      28A     -0.441242

  @DF-RHF Final Energy:  -345.03488936580374

   => Energetics <=

    Nuclear Repulsion Energy =            313.0329661116805369
    One-Electron Energy =               -1090.6001490763126185
    Two-Electron Energy =                 432.5322935988282325
    DFT Exchange-Correlation Energy =       0.0000000000000000
    Empirical Dispersion Energy =           0.0000000000000000
    PCM Polarization Energy =               0.0000000000000000
    EFP Energy =                            0.0000000000000000
    Total Energy =                       -345.0348893658039060
    Molecular point group: c1
  Basis Set: CC-PVTZ
  Basis Set:

  -Total Gradient:
     Atom            X                  Y                   Z
    ------   -----------------  -----------------  -----------------
       1       -0.000010704039     0.000018270741     0.000031274646
       2        0.000022169707    -0.000001699672    -0.000047103337
       3       -0.001872566395    -0.002308367503     0.001278431178
       4       -0.000020039075    -0.000013002320     0.000009870324
       5        0.001993613656     0.002439905551     0.000610517400
       6        0.001227589345     0.001521064880    -0.001164104164
       7       -0.000008296222     0.000014487950     0.000001018671
       8        0.000005616242    -0.000010371121     0.000019817957
       9       -0.001337337218    -0.001657058694    -0.000739810523
      10       -0.000002831557    -0.000013149045    -0.000007097576
      11        0.000007784356     0.000007462063     0.000007084926
      12        0.000008610345    -0.000001953289    -0.000003421072
      13       -0.000013587685    -0.000002351647     0.000000989141
      14        0.000005165421     0.000010330149     0.000000157885
      15       -0.000000144684    -0.000000014296    -0.000000025415
      16       -0.000005369258    -0.000004266715     0.000000930069
      17        0.000000327065     0.000000712969     0.000001469892

  **** Optimization is complete! (in 6 steps) ****
    Final optimized geometry and variables:
    Molecular point group: c1

    Geometry (in Angstrom), charge = 0, multiplicity = 1:

    O            0.744741620003     1.305081101752    -0.053383643021
    C            0.573176947932     0.133967065875    -0.046710739386
    C           -0.767622976956    -0.556447663971    -0.022587134046
    O            1.563606554533    -0.743104103996    -0.062042517886
    C           -1.950155217436     0.403727184652    -0.011171048491
    H           -0.796000933163    -1.201872138153    -0.894276645318
    H           -0.777560304233    -1.210096569455     0.843004393353
    C           -3.264902483649    -0.313414049981     0.280849307525
    H           -2.020347760027     0.893296527656    -0.975569162664
    H           -1.779547147939     1.180652606932     0.722214693582
    H           -3.463417025146    -1.089536153827    -0.451204717307
    H           -4.096644356052     0.380412749008     0.258720294598
    H           -3.249934714283    -0.780405052823     1.260095054661
    C            2.881546953749    -0.233473217554    -0.087077790747
    H            3.042086478416     0.365327018595    -0.971322943745
    H            3.532650207087    -1.092456623249    -0.096048645175
    H            3.073503154373     0.370681549220     0.787210027967

  Mulliken Charges: (a.u.)
   Center  Symbol    Alpha    Beta     Spin     Total
       1     O     4.19644  4.19644  0.00000 -0.39289
       2     C     2.80620  2.80620  0.00000  0.38761
       3     C     3.09647  3.09647  0.00000 -0.19294
       4     O     4.14715  4.14715  0.00000 -0.29430
       5     C     3.07939  3.07939  0.00000 -0.15877
       6     H     0.43989  0.43989  0.00000  0.12023
       7     H     0.44140  0.44140  0.00000  0.11719
       8     C     3.15106  3.15106  0.00000 -0.30211
       9     H     0.44961  0.44961  0.00000  0.10079
      10     H     0.44340  0.44340  0.00000  0.11320
      11     H     0.45609  0.45609  0.00000  0.08783
      12     H     0.44592  0.44592  0.00000  0.10816
      13     H     0.45563  0.45563  0.00000  0.08873
      14     C     3.03732  3.03732  0.00000 -0.07464
      15     H     0.45439  0.45439  0.00000  0.09123
      16     H     0.44533  0.44533  0.00000  0.10933
      17     H     0.45432  0.45432  0.00000  0.09136

   Total alpha = 28.00000, Total beta = 28.00000, Total charge =  0.00000

*** Psi4 exiting successfully. Buy a developer a beer!
