  ==> Input File <==

--------------------------------------------------------------------------
set {
	reference rhf
	basis cc-pvtz
}

set_num_threads( 4 )
memory 2 gb

molecule MOL {
0 1

H	 -0.366580	 2.045936	 -0.305741
C	 0.351829	 1.335402	 0.083179
N	 -0.000018	 0.000080	 -0.334836
H	 1.327156	 1.599860	 -0.305475
H	 0.380566	 1.445403	 1.171445
C	 -1.307779	 -0.386282	 0.137250
C	 0.131183	 -0.171296	 -1.761601
H	 -1.509714	 -1.414765	 -0.133927
H	 -1.348333	 -0.311323	 1.216567
H	 -2.108201	 0.235369	 -0.274993
H	 1.142588	 0.060658	 -2.070534
H	 -0.072526	 -1.199962	 -2.030810
H	 -0.550625	 0.468287	 -2.330092

	symmetry c1
}
set optking {
	frozen_dihedral = ("
		6 3 2 1
	")
}

ee = optimize('scf')
oeprop('DIPOLE', 'QUADRUPOLE', 'MULLIKEN_CHARGES')
f=open( 'psi4out.xyz', 'w' )
f.write( "13  " )
f.write( str(ee) + "\n" )
f.write( MOL.save_string_xyz() )
f.close()
--------------------------------------------------------------------------

    Molecular point group: c1
  Charge       = 0
  Multiplicity = 1
  Basis Set: CC-PVTZ
  Basis Set:
  @DF-RHF Final Energy:  -173.33323646641992
    Total Energy =                       -173.3332364664198906
    Molecular point group: c1
  Basis Set: CC-PVTZ
  Basis Set:
  Basis Set: CC-PVTZ
  Basis Set:
  @DF-RHF Final Energy:  -173.33389649781699
    Total Energy =                       -173.3338964978170509
  Basis Set: CC-PVTZ
  Basis Set:
  Basis Set: CC-PVTZ
  Basis Set:
  @DF-RHF Final Energy:  -173.33397478852197
    Total Energy =                       -173.3339747885220277
  Basis Set: CC-PVTZ
  Basis Set:
  Charge       = 0
  Multiplicity = 1
  Basis Set: CC-PVTZ
  Basis Set:

    Orbital Energies (a.u.)
    -----------------------

    Doubly Occupied:

       1A    -15.539637     2A    -11.234287     3A    -11.234274
       4A    -11.234252     5A     -1.227325     6A     -0.952420
       7A     -0.952250     8A     -0.806917     9A     -0.643599
      10A     -0.631632    11A     -0.631290    12A     -0.544601
      13A     -0.543503    14A     -0.517119    15A     -0.502394
      16A     -0.502047    17A     -0.349740

  @DF-RHF Final Energy:  -173.33397566018672

   => Energetics <=

    Nuclear Repulsion Energy =            139.4792473490089435
    One-Electron Energy =                -509.5318747863864246
    Two-Electron Energy =                 196.7186517771906438
    DFT Exchange-Correlation Energy =       0.0000000000000000
    Empirical Dispersion Energy =           0.0000000000000000
    PCM Polarization Energy =               0.0000000000000000
    EFP Energy =                            0.0000000000000000
    Total Energy =                       -173.3339756601868658
    Molecular point group: c1
  Basis Set: CC-PVTZ
  Basis Set:

  -Total Gradient:
     Atom            X                  Y                   Z
    ------   -----------------  -----------------  -----------------
       1       -0.000457759756    -0.000102587158     0.000664331936
       2        0.000438602352     0.000199426522    -0.001096975131
       3        0.000212450551    -0.000391425774     0.000867365591
       4        0.000000438292    -0.000042791991    -0.000012184283
       5        0.000000012527    -0.000027300266    -0.000001576008
       6       -0.000220204392     0.000266035343    -0.000474665606
       7        0.000044154768     0.000100522451     0.000028651750
       8        0.000005673573     0.000004985804    -0.000005836926
       9       -0.000021864472    -0.000002687194     0.000011596240
      10       -0.000003284791    -0.000004672079    -0.000000211216
      11        0.000022428213    -0.000000206552    -0.000021540477
      12       -0.000009914992     0.000011572074     0.000049557714
      13       -0.000010731873    -0.000010871182    -0.000008513583

  **** Optimization is complete! (in 4 steps) ****
    Final optimized geometry and variables:
    Molecular point group: c1

    Geometry (in Angstrom), charge = 0, multiplicity = 1:

    H           -0.135758599736     1.884856856706     0.182004730848
    C            0.566808635828     1.133218919391     0.554875323188
    N            0.223364410534    -0.206827778191     0.144249811826
    H            1.556049338600     1.388507855565     0.197320597162
    H            0.575872258320     1.196929994870     1.636024367313
    C           -1.082226173124    -0.595653274660     0.619894878215
    C            0.349201514362    -0.383329036771    -1.282587502721
    H           -1.279672632982    -1.627563059339     0.358265360480
    H           -1.123551843347    -0.511125430976     1.698657919719
    H           -1.885856373741     0.018754446662     0.202415439662
    H            1.358980917936    -0.151479889383    -1.596920935518
    H            0.145884387195    -1.413583079236    -1.546292620199
    H           -0.336345100124     0.251971032815    -1.851970135185

  Mulliken Charges: (a.u.)
   Center  Symbol    Alpha    Beta     Spin     Total
       1     H     0.47389  0.47389  0.00000  0.05222
       2     C     3.08907  3.08907  0.00000 -0.17814
       3     N     3.59556  3.59556  0.00000 -0.19112
       4     H     0.45277  0.45277  0.00000  0.09446
       5     H     0.45237  0.45237  0.00000  0.09526
       6     C     3.08925  3.08925  0.00000 -0.17850
       7     C     3.08895  3.08895  0.00000 -0.17789
       8     H     0.45255  0.45255  0.00000  0.09490
       9     H     0.45266  0.45266  0.00000  0.09468
      10     H     0.47376  0.47376  0.00000  0.05249
      11     H     0.45250  0.45250  0.00000  0.09501
      12     H     0.45263  0.45263  0.00000  0.09474
      13     H     0.47406  0.47406  0.00000  0.05189

   Total alpha = 17.00000, Total beta = 17.00000, Total charge =  0.00000
