  ==> Input File <==

--------------------------------------------------------------------------
set {
	reference rhf
	basis 6-31G*
}

set_num_threads( 4 )
memory 2 gb

molecule MOL {
0 1

H	 2.254917	 2.526667	 0.181739
N	 1.457584	 1.927933	 0.085183
C	 1.865559	 0.531981	 0.018834
H	 0.993240	 2.198573	 -0.760967
C	 0.645745	 -0.382037	 -0.029944
H	 2.441335	 0.314035	 0.913172
H	 2.515500	 0.314821	 -0.832528
C	 -0.679275	 0.379305	 0.025956
H	 0.698998	 -0.976915	 -0.937203
H	 0.693479	 -1.083846	 0.802235
C	 -1.903357	 -0.536963	 -0.023547
H	 -0.726309	 1.082987	 -0.803784
H	 -0.717680	 0.977832	 0.934877
C	 -3.225172	 0.228290	 0.028445
H	 -1.867824	 -1.134999	 -0.931459
H	 -1.860449	 -1.239604	 0.805977
H	 -3.313397	 0.915643	 -0.808262
H	 -4.073500	 -0.448134	 -0.008893
H	 -3.306061	 0.809945	 0.942516

	symmetry c1
}
set optking {
	frozen_dihedral = ("
		6 3 5 9
	")
}

ee = optimize('scf')
oeprop('DIPOLE', 'QUADRUPOLE', 'MULLIKEN_CHARGES')
f=open( 'psi4out.xyz', 'w' )
f.write( "19  " )
f.write( str(ee) + "\n" )
f.write( MOL.save_string_xyz() )
f.close()
--------------------------------------------------------------------------

    Molecular point group: c1
  Charge       = 0
  Multiplicity = 1
  Basis Set: 6-31G*
  Basis Set:
  @DF-RHF Final Energy:  -251.33920855220660
    Total Energy =                       -251.3392085522066850
    Molecular point group: c1
  Basis Set: 6-31G*
  Basis Set:
  Basis Set: 6-31G*
  Basis Set:
  @DF-RHF Final Energy:  -251.33939995027524
    Total Energy =                       -251.3393999502752649
  Basis Set: 6-31G*
  Basis Set:
  Basis Set: 6-31G*
  Basis Set:
  @DF-RHF Final Energy:  -251.34216840558761
    Total Energy =                       -251.3421684055875858
  Basis Set: 6-31G*
  Basis Set:
  Basis Set: 6-31G*
  Basis Set:
  @DF-RHF Final Energy:  -251.34242152182722
    Total Energy =                       -251.3424215218270774
  Basis Set: 6-31G*
  Basis Set:
  Basis Set: 6-31G*
  Basis Set:
  @DF-RHF Final Energy:  -251.34240178829316
    Total Energy =                       -251.3424017882933299
  Basis Set: 6-31G*
  Basis Set:
  Basis Set: 6-31G*
  Basis Set:
  @DF-RHF Final Energy:  -251.34244517684240
    Total Energy =                       -251.3424451768422614
  Basis Set: 6-31G*
  Basis Set:
  Basis Set: 6-31G*
  Basis Set:
  @DF-RHF Final Energy:  -251.34244926058525
    Total Energy =                       -251.3424492605851128
  Basis Set: 6-31G*
  Basis Set:
  Charge       = 0
  Multiplicity = 1
  Basis Set: 6-31G*
  Basis Set:

    Orbital Energies (a.u.)
    -----------------------

    Doubly Occupied:

       1A    -15.532936     2A    -11.241192     3A    -11.209963
       4A    -11.209266     5A    -11.204667     6A    -11.203598
       7A     -1.175786     8A     -1.065803     9A     -0.991744
      10A     -0.904012    11A     -0.812707    12A     -0.775551
      13A     -0.666813    14A     -0.638462    15A     -0.614135
      16A     -0.581127    17A     -0.564203    18A     -0.547969
      19A     -0.525823    20A     -0.497232    21A     -0.477047
      22A     -0.461272    23A     -0.454755    24A     -0.443859
      25A     -0.377440

  @DF-RHF Final Energy:  -251.34245022750375

   => Energetics <=

    Nuclear Repulsion Energy =            249.5051070101002608
    One-Electron Energy =                -833.3403926873776300
    Two-Electron Energy =                 332.4928354497736791
    DFT Exchange-Correlation Energy =       0.0000000000000000
    Empirical Dispersion Energy =           0.0000000000000000
    PCM Polarization Energy =               0.0000000000000000
    EFP Energy =                            0.0000000000000000
    Total Energy =                       -251.3424502275037185
    Molecular point group: c1
  Basis Set: 6-31G*
  Basis Set:

  -Total Gradient:
     Atom            X                  Y                   Z
    ------   -----------------  -----------------  -----------------
       1        0.000023723240    -0.000016339149     0.000000718429
       2        0.000066361675    -0.000022634715    -0.000006946557
       3       -0.000761759600     0.001129429662     0.001202458926
       4        0.000007389759    -0.000009887196    -0.000006509777
       5       -0.000784844806     0.001144050096    -0.001191743447
       6        0.000835664380    -0.001048137703    -0.000779125224
       7       -0.000013332572     0.000046366759     0.000003056753
       8       -0.000040418866    -0.000056963424     0.000115922522
       9        0.000694295263    -0.001152403300     0.000781405270
      10       -0.000031839140     0.000037662372    -0.000025954659
      11        0.000001634446    -0.000011565956    -0.000077846309
      12        0.000008877915    -0.000044090070    -0.000021574908
      13        0.000006197492     0.000012362916     0.000002736049
      14        0.000001373434    -0.000003578159     0.000026217940
      15       -0.000015347904    -0.000012814381    -0.000011038079
      16        0.000005883573     0.000006724142    -0.000014148928
      17       -0.000003302740    -0.000011522352    -0.000005592957
      18       -0.000001829222     0.000001303761     0.000013679758
      19        0.000001273674     0.000012036695    -0.000005714802

  **** Optimization is complete! (in 8 steps) ****
    Final optimized geometry and variables:
    Molecular point group: c1

    Geometry (in Angstrom), charge = 0, multiplicity = 1:

    H            2.740557140277     2.088096418165     0.240775288076
    N            1.893945305823     1.584145622555     0.059623111979
    C            2.168666928016     0.153153733584     0.015892708613
    H            1.550460321276     1.910060179877    -0.823133158487
    C            0.894227116946    -0.728838691434    -0.057432724243
    H            2.717643518925    -0.091713417774     0.918042653745
    H            2.827102072037    -0.114288452677    -0.811917075321
    C           -0.446527128751     0.007469017478     0.006525387927
    H            0.926748377713    -1.328987485027    -0.963604893761
    H            0.924728334061    -1.445205301788     0.759630983920
    C           -1.635357670536    -0.955584236480    -0.023050318995
    H           -0.534281278885     0.698998387575    -0.828570496839
    H           -0.487008392357     0.614029641910     0.904664777671
    C           -2.983482628853    -0.237764397612     0.035773932050
    H           -1.590228373648    -1.563210650992    -0.924878440164
    H           -1.560264239682    -1.647538038893     0.813405185728
    H           -3.107603287637     0.433447852720    -0.809520913048
    H           -3.807751447331    -0.944458719240     0.020202251963
    H           -3.072134695759     0.354743033728     0.941894727195

  Mulliken Charges: (a.u.)
   Center  Symbol    Alpha    Beta     Spin     Total
       1     H     0.33147  0.33147  0.00000  0.33707
       2     N     3.92309  3.92309  0.00000 -0.84618
       3     C     3.06135  3.06135  0.00000 -0.12269
       4     H     0.33403  0.33403  0.00000  0.33195
       5     C     3.16675  3.16675  0.00000 -0.33351
       6     H     0.41904  0.41904  0.00000  0.16192
       7     H     0.43185  0.43185  0.00000  0.13631
       8     C     3.14365  3.14365  0.00000 -0.28731
       9     H     0.42324  0.42324  0.00000  0.15353
      10     H     0.42033  0.42033  0.00000  0.15935
      11     C     3.15236  3.15236  0.00000 -0.30472
      12     H     0.42989  0.42989  0.00000  0.14023
      13     H     0.41001  0.41001  0.00000  0.17998
      14     C     3.23855  3.23855  0.00000 -0.47710
      15     H     0.42549  0.42549  0.00000  0.14901
      16     H     0.42413  0.42413  0.00000  0.15174
      17     H     0.42287  0.42287  0.00000  0.15425
      18     H     0.42079  0.42079  0.00000  0.15843
      19     H     0.42112  0.42112  0.00000  0.15775

   Total alpha = 25.00000, Total beta = 25.00000, Total charge = -0.00000
