  ==> Input File <==

--------------------------------------------------------------------------
set {
	reference rhf
	basis cc-pvtz
}

set_num_threads( 4 )
memory 2 gb

molecule MOL {
0 1

O	 0.518615	 -0.711110	 2.207200
C	 -0.015594	 -0.935350	 1.175591
C	 -1.402285	 -1.492708	 1.026946
O	 0.550743	 -0.719877	 0.000412
H	 -2.012151	 -0.801975	 0.459181
H	 -1.832948	 -1.654653	 2.001541
H	 -1.361918	 -2.424091	 0.477098
C	 1.863204	 -0.194033	 0.000410
H	 2.031502	 0.409177	 -0.879273
H	 2.524488	 -1.045142	 0.000793
H	 2.031291	 0.409823	 0.879686

	symmetry c1
}
set optking {
	frozen_dihedral = ("
		2 4 8 9
	")
}

ee = optimize('scf')
oeprop('DIPOLE', 'QUADRUPOLE', 'MULLIKEN_CHARGES')
f=open( 'psi4out.xyz', 'w' )
f.write( "11  " )
f.write( str(ee) + "\n" )
f.write( MOL.save_string_xyz() )
f.close()
--------------------------------------------------------------------------

    Molecular point group: c1
  Charge       = 0
  Multiplicity = 1
  Basis Set: CC-PVTZ
  Basis Set:
  @DF-RHF Final Energy:  -266.93681867950829
    Total Energy =                       -266.9368186795082920
    Molecular point group: c1
  Basis Set: CC-PVTZ
  Basis Set:
  Basis Set: CC-PVTZ
  Basis Set:
  @DF-RHF Final Energy:  -266.93778335622505
    Total Energy =                       -266.9377833562252818
  Basis Set: CC-PVTZ
  Basis Set:
  Basis Set: CC-PVTZ
  Basis Set:
  @DF-RHF Final Energy:  -266.93721696641478
    Total Energy =                       -266.9372169664144394
  Basis Set: CC-PVTZ
  Basis Set:
  Basis Set: CC-PVTZ
  Basis Set:
  @DF-RHF Final Energy:  -266.93810475630573
    Total Energy =                       -266.9381047563056768
  Basis Set: CC-PVTZ
  Basis Set:
  Basis Set: CC-PVTZ
  Basis Set:
  @DF-RHF Final Energy:  -266.93811436306385
    Total Energy =                       -266.9381143630638462
  Basis Set: CC-PVTZ
  Basis Set:
  Charge       = 0
  Multiplicity = 1
  Basis Set: CC-PVTZ
  Basis Set:

    Orbital Energies (a.u.)
    -----------------------

    Doubly Occupied:

       1A    -20.598182     2A    -20.534877     3A    -11.369522
       4A    -11.279263     5A    -11.232859     6A     -1.472770
       7A     -1.367990     8A     -1.036984     9A     -0.953980
      10A     -0.779679    11A     -0.698662    12A     -0.683480
      13A     -0.681007    14A     -0.597718    15A     -0.592516
      16A     -0.561621    17A     -0.529508    18A     -0.521972
      19A     -0.460783    20A     -0.445770

  @DF-RHF Final Energy:  -266.93811542740639

   => Energetics <=

    Nuclear Repulsion Energy =            183.4384731383232463
    One-Electron Energy =                -727.9548843207712707
    Two-Electron Energy =                 277.5782957550415517
    DFT Exchange-Correlation Energy =       0.0000000000000000
    Empirical Dispersion Energy =           0.0000000000000000
    PCM Polarization Energy =               0.0000000000000000
    EFP Energy =                            0.0000000000000000
    Total Energy =                       -266.9381154274064443
    Molecular point group: c1
  Basis Set: CC-PVTZ
  Basis Set:

  -Total Gradient:
     Atom            X                  Y                   Z
    ------   -----------------  -----------------  -----------------
       1       -0.000044453824    -0.000031322586     0.000030382375
       2       -0.000534397975     0.001307768693    -0.000005520651
       3        0.000004564614     0.000026844314     0.000008679803
       4        0.000679424997    -0.001696779314     0.000209535111
       5        0.000000466658    -0.000001498267    -0.000003369339
       6       -0.000005034849    -0.000000702731     0.000004659240
       7        0.000015972037     0.000003135245     0.000007801583
       8        0.000388398506    -0.000873420327    -0.001011801987
       9       -0.000466113458     0.001313302904     0.000751654155
      10       -0.000045858877    -0.000008602794     0.000018565809
      11        0.000007032171    -0.000038725137    -0.000010586107

  **** Optimization is complete! (in 6 steps) ****
    Final optimized geometry and variables:
    Molecular point group: c1

    Geometry (in Angstrom), charge = 0, multiplicity = 1:

    O            0.183959062267     0.068424080941     1.348794262980
    C           -0.337838429465    -0.134523028888     0.306761494701
    C           -1.731768411416    -0.667380499382     0.135291369943
    O            0.241534575510     0.079568194514    -0.863162228109
    H           -2.323264435346     0.038873590142    -0.432728693279
    H           -2.176851501333    -0.832864124028     1.102796092598
    H           -1.699017302020    -1.593466488940    -0.423906271517
    C            1.550550389179     0.615773831161    -0.883051003419
    H            1.633392409685     1.190294590627    -1.792009488652
    H            2.275627256857    -0.185905154448    -0.881827451931
    H            1.717537015079     1.250537196238    -0.028767706885

  Mulliken Charges: (a.u.)
   Center  Symbol    Alpha    Beta     Spin     Total
       1     O     4.19695  4.19695  0.00000 -0.39391
       2     C     2.79965  2.79965  0.00000  0.40071
       3     C     3.13910  3.13910  0.00000 -0.27820
       4     O     4.14904  4.14904  0.00000 -0.29808
       5     H     0.44579  0.44579  0.00000  0.10843
       6     H     0.43793  0.43793  0.00000  0.12415
       7     H     0.44525  0.44525  0.00000  0.10949
       8     C     3.03430  3.03430  0.00000 -0.06860
       9     H     0.44813  0.44813  0.00000  0.10375
      10     H     0.45619  0.45619  0.00000  0.08762
      11     H     0.44767  0.44767  0.00000  0.10465

   Total alpha = 20.00000, Total beta = 20.00000, Total charge = -0.00000
