                              Psi4 1.0.54 Driver

  ==> Input File <==

--------------------------------------------------------------------------
set {
	reference rhf
	basis cc-pvtz
}

set_num_threads( 4 )
memory 2 gb

molecule MOL {
0 1

H	 3.288184	 -0.461113	 -0.037559
C	 2.231600	 -0.272657	 -0.028647
C	 1.634912	 0.251941	 1.108056
C	 1.474787	 -0.553775	 -1.148345
H	 2.229733	 0.467795	 1.974306
C	 0.279778	 0.495190	 1.123661
H	 1.939046	 -0.959460	 -2.026046
C	 0.113931	 -0.308938	 -1.131155
H	 -0.199570	 0.900232	 1.992466
C	 -0.486398	 0.214248	 0.000000
H	 -0.481096	 -0.525371	 -1.999069
C	 -1.946525	 0.470130	 0.000000
O	 -2.779618	 -0.371226	 0.000000
H	 -2.227127	 1.528393	 0.000000

	symmetry c1
}
set optking {
	frozen_dihedral = ("
		8 10 12 14
	")
}

ee,wfn = optimize('scf', return_wfn=True)
oeprop( wfn, 'DIPOLE', 'QUADRUPOLE', 'MULLIKEN_CHARGES')
f=open( 'psi4out.xyz', 'w' )
f.write( "14  " )
f.write( str(ee) + "\n" )
f.write( MOL.save_string_xyz() )
f.close()
--------------------------------------------------------------------------

    Molecular point group: c1
  Charge       = 0
  Multiplicity = 1
  Basis Set: CC-PVTZ
  Basis Set:
  @DF-RHF Final Energy:  -343.53828706073404
    Total Energy =                       -343.5382870607343193
    Molecular point group: c1
  Basis Set: CC-PVTZ
  Basis Set:
  Basis Set: CC-PVTZ
  Basis Set:
  @DF-RHF Final Energy:  -343.53725564003730
    Total Energy =                       -343.5372556400375288
  Basis Set: CC-PVTZ
  Basis Set:
  Basis Set: CC-PVTZ
  Basis Set:
  @DF-RHF Final Energy:  -343.53858050805934
    Total Energy =                       -343.5385805080592831
  Basis Set: CC-PVTZ
  Basis Set:
  Basis Set: CC-PVTZ
  Basis Set:
  @DF-RHF Final Energy:  -343.53906345090758
    Total Energy =                       -343.5390634509072925
  Basis Set: CC-PVTZ
  Basis Set:
  Basis Set: CC-PVTZ
  Basis Set:
  @DF-RHF Final Energy:  -343.53907173994384
    Total Energy =                       -343.5390717399435516
  Basis Set: CC-PVTZ
  Basis Set:
  Charge       = 0
  Multiplicity = 1
  Basis Set: CC-PVTZ
  Basis Set:

    Orbital Energies (a.u.)
    -----------------------

    Doubly Occupied:

       1A    -20.562123     2A    -11.331925     3A    -11.250693
       4A    -11.246950     5A    -11.245435     6A    -11.243560
       7A    -11.242546     8A    -11.241538     9A     -1.416474
      10A     -1.175288    11A     -1.049732    12A     -1.033873
      13A     -0.890681    14A     -0.845580    15A     -0.797653
      16A     -0.725683    17A     -0.681457    18A     -0.657368
      19A     -0.642939    20A     -0.621030    21A     -0.604587
      22A     -0.542840    23A     -0.532019    24A     -0.516556
      25A     -0.506537    26A     -0.426320    27A     -0.352556
      28A     -0.351856

  @DF-RHF Final Energy:  -343.53907239698628

   => Energetics <=

    Nuclear Repulsion Energy =            323.1518259420626009
    One-Electron Energy =               -1105.9102075732412231
    Two-Electron Energy =                 439.2193092341921670
    DFT Exchange-Correlation Energy =       0.0000000000000000
    Empirical Dispersion Energy =           0.0000000000000000
    PCM Polarization Energy =               0.0000000000000000
    EFP Energy =                            0.0000000000000000
    Total Energy =                       -343.5390723969864553
    Molecular point group: c1
  Basis Set: CC-PVTZ
  Basis Set:

  -Total Gradient:
     Atom            X                  Y                   Z
    ------   -----------------  -----------------  -----------------
       1        0.000001183888    -0.000000481805     0.000014917852
       2       -0.000006183640    -0.000046110183    -0.000174128014
       3       -0.000150192604     0.000054529943     0.000080307517
       4        0.000168164324     0.000015151601     0.000105975337
       5        0.000011625426    -0.000008549299    -0.000006558530
       6        0.000141123888    -0.000059676038     0.000070325273
       7       -0.000008182173    -0.000000472575    -0.000005103742
       8        0.000765959991     0.004257846775    -0.001262098289
       9       -0.000005567915     0.000001285126     0.000013068243
      10       -0.001256932094    -0.006063909008     0.000017839343
      11        0.000005409607    -0.000011591533     0.000004639557
      12        0.000390496935     0.001706764412     0.006680502886
      13       -0.000126236010    -0.000113222296    -0.000007644894
      14        0.000069330372     0.000268434879    -0.005532042539

  **** Optimization is complete! (in 6 steps) ****
    Final optimized geometry and variables:
    Molecular point group: c1

    Geometry (in Angstrom), charge = 0, multiplicity = 1:

    H            3.300160151350    -0.455231347921    -0.013366693962
    C            2.243183537377    -0.270634386339    -0.000635177024
    C            1.643777167493     0.236415516533     1.137745362518
    C            1.481670796568    -0.533784511242    -1.123004471470
    H            2.233643830826     0.444349700682     2.009542480787
    C            0.285759993866     0.485744274347     1.149869319701
    H            1.946171845915    -0.918937274962    -2.010218685436
    C            0.118874293533    -0.303863456753    -1.105924033777
    H           -0.174656276953     0.896725696809     2.029312812855
    C           -0.483992790225     0.191637984525     0.036706896914
    H           -0.476499373995    -0.519203746683    -1.972223095855
    C           -1.946558625559     0.508254374687     0.026074010943
    O           -2.799640357477    -0.299739415041    -0.097766793767
    H           -2.197623433490     1.573375800106     0.069858320549

  Mulliken Charges: (a.u.)
   Center  Symbol    Alpha    Beta     Spin     Total
       1     H     0.42065  0.42065  0.00000  0.15870
       2     C     3.08243  3.08243  0.00000 -0.16487
       3     C     3.06429  3.06429  0.00000 -0.12858
       4     C     3.06367  3.06367  0.00000 -0.12734
       5     H     0.42076  0.42076  0.00000  0.15849
       6     C     3.09854  3.09854  0.00000 -0.19708
       7     H     0.42081  0.42081  0.00000  0.15837
       8     C     3.09824  3.09824  0.00000 -0.19648
       9     H     0.42407  0.42407  0.00000  0.15186
      10     C     2.94258  2.94258  0.00000  0.11484
      11     H     0.41768  0.41768  0.00000  0.16463
      12     C     2.92868  2.92868  0.00000  0.14264
      13     O     4.15894  4.15894  0.00000 -0.31788
      14     H     0.45865  0.45865  0.00000  0.08270

   Total alpha = 28.00000, Total beta = 28.00000, Total charge =  0.00000

*** Psi4 exiting successfully. Buy a developer a beer!
