                              Psi4 1.0.54 Driver

  ==> Input File <==

--------------------------------------------------------------------------
set {
	reference rhf
	basis cc-pvtz
}

set_num_threads( 4 )
memory 2 gb

molecule MOL {
0 1

O	 1.737298	 1.485855	 -0.414217
C	 1.384229	 0.674448	 -1.200346
C	 0.068490	 -0.060076	 -1.169611
O	 2.119877	 0.299254	 -2.234014
C	 -0.824290	 0.329213	 -0.000115
H	 -0.424147	 0.124529	 -2.118653
H	 0.293877	 -1.121421	 -1.155808
C	 -2.146151	 -0.432825	 -0.000068
H	 -1.014196	 1.395974	 -0.035199
H	 -0.295223	 0.148814	 0.928774
C	 -3.366283	 0.483552	 0.000557
H	 -2.189286	 -1.084450	 -0.869996
H	 -2.188867	 -1.085083	 0.869399
C	 -4.687436	 -0.278003	 0.000108
H	 -3.325150	 1.134819	 -0.867957
H	 -3.325087	 1.133730	 0.869885
H	 -4.773783	 -0.912098	 -0.876078
H	 -5.531922	 0.401392	 0.000363
H	 -4.773901	 -0.912898	 0.875703
C	 3.384866	 0.910758	 -2.386300
H	 3.280041	 1.978767	 -2.507047
H	 3.820396	 0.477088	 -3.271789
H	 4.009833	 0.712846	 -1.528126

	symmetry c1
}
set optking {
	frozen_dihedral = ("
		9 5 8 12
	")
}

ee,wfn = optimize('scf', return_wfn=True)
oeprop( wfn, 'DIPOLE', 'QUADRUPOLE', 'MULLIKEN_CHARGES')
f=open( 'psi4out.xyz', 'w' )
f.write( "23  " )
f.write( str(ee) + "\n" )
f.write( MOL.save_string_xyz() )
f.close()
--------------------------------------------------------------------------

    Molecular point group: c1
  Charge       = 0
  Multiplicity = 1
  Basis Set: CC-PVTZ
  Basis Set:
  @DF-RHF Final Energy:  -423.12531518663729
    Total Energy =                       -423.1253151866370672
    Molecular point group: c1
  Basis Set: CC-PVTZ
  Basis Set:
  Basis Set: CC-PVTZ
  Basis Set:
  @DF-RHF Final Energy:  -423.12555390483141
    Total Energy =                       -423.1255539048314631
  Basis Set: CC-PVTZ
  Basis Set:
  Basis Set: CC-PVTZ
  Basis Set:
  @DF-RHF Final Energy:  -423.12561189257326
    Total Energy =                       -423.1256118925738292
  Basis Set: CC-PVTZ
  Basis Set:
  Basis Set: CC-PVTZ
  Basis Set:
  @DF-RHF Final Energy:  -423.12544560349460
    Total Energy =                       -423.1254456034941995
  Basis Set: CC-PVTZ
  Basis Set:
  Basis Set: CC-PVTZ
  Basis Set:
  @DF-RHF Final Energy:  -423.12561647522045
    Total Energy =                       -423.1256164752205677
  Basis Set: CC-PVTZ
  Basis Set:
  Charge       = 0
  Multiplicity = 1
  Basis Set: CC-PVTZ
  Basis Set:

    Orbital Energies (a.u.)
    -----------------------

    Doubly Occupied:

       1A    -20.596257     2A    -20.534171     3A    -11.364365
       4A    -11.278460     5A    -11.234294     6A    -11.216845
       7A    -11.215852     8A    -11.215202     9A    -11.207936
      10A     -1.472135    11A     -1.365735    12A     -1.092501
      13A     -1.044694    14A     -0.987277    15A     -0.932245
      16A     -0.845940    17A     -0.795952    18A     -0.769444
      19A     -0.701879    20A     -0.685646    21A     -0.676157
      22A     -0.640474    23A     -0.618154    24A     -0.600314
      25A     -0.573625    26A     -0.560462    27A     -0.555861
      28A     -0.529171    29A     -0.522912    30A     -0.501566
      31A     -0.492428    32A     -0.470886    33A     -0.465058
      34A     -0.462301    35A     -0.453793    36A     -0.438081

  @DF-RHF Final Energy:  -423.12561666028591

   => Energetics <=

    Nuclear Repulsion Energy =            453.8230877526932545
    One-Electron Energy =               -1475.6612571042596755
    Two-Electron Energy =                 598.7125526912802798
    DFT Exchange-Correlation Energy =       0.0000000000000000
    Empirical Dispersion Energy =           0.0000000000000000
    PCM Polarization Energy =               0.0000000000000000
    EFP Energy =                            0.0000000000000000
    Total Energy =                       -423.1256166602861413
    Molecular point group: c1
  Basis Set: CC-PVTZ
  Basis Set:

  -Total Gradient:
     Atom            X                  Y                   Z
    ------   -----------------  -----------------  -----------------
       1        0.000010680355     0.000004706412     0.000009759558
       2       -0.000022051384    -0.000001119897     0.000000875221
       3        0.000005364816     0.000003150404    -0.000009856566
       4        0.000008476021     0.000001523544    -0.000004150322
       5        0.000097066426    -0.000250714807    -0.001185153634
       6       -0.000005378733    -0.000005424991     0.000008137303
       7       -0.000004968067    -0.000000159251     0.000004846342
       8       -0.000530084607     0.001016638259    -0.000452537096
       9       -0.000014716870     0.000030002762     0.001080704366
      10        0.000005532010    -0.000003349927    -0.000009770656
      11       -0.000004169314     0.000002499171    -0.000015709782
      12        0.000454394287    -0.000787116949     0.000567370630
      13       -0.000007263734     0.000005119780    -0.000000338979
      14       -0.000011426482    -0.000008917459     0.000014997157
      15        0.000009378192    -0.000009474842    -0.000001096209
      16        0.000008436005     0.000000561870    -0.000005825996
      17        0.000001485654     0.000005084987     0.000005288725
      18       -0.000008891101    -0.000001017188     0.000003629590
      19       -0.000004561478    -0.000003753682    -0.000005065229
      20        0.000007566217     0.000004014023    -0.000001227070
      21        0.000002169182    -0.000002486880    -0.000001032515
      22        0.000001799861    -0.000000194307    -0.000001115930
      23        0.000001162761     0.000000428970    -0.000002728907

  **** Optimization is complete! (in 6 steps) ****
    Final optimized geometry and variables:
    Molecular point group: c1

    Geometry (in Angstrom), charge = 0, multiplicity = 1:

    O            1.964420217823     1.101642402764     0.422516973371
    C            1.617039479827     0.287805900737    -0.363738980413
    C            0.301134823316    -0.446899307364    -0.340205525147
    O            2.360091517750    -0.090062713230    -1.391240471928
    C           -0.600034916855    -0.056995519487     0.823510735135
    H           -0.186580280841    -0.263151717310    -1.292070614867
    H            0.525854910991    -1.508286255155    -0.323839735211
    C           -1.940045135071    -0.819996519015     0.826000257513
    H           -0.779036143629     1.010634195206     0.790154766691
    H           -0.068018311029    -0.229754418903     1.750181079584
    C           -3.163320414636     0.093339162152     0.843866083580
    H           -1.999528172474    -1.473401035582    -0.040158110192
    H           -1.982406323527    -1.478309835039     1.688032059948
    C           -4.482419973162    -0.670575258326     0.861512964324
    H           -3.134405072898     0.745965681029    -0.024771653218
    H           -3.109787312068     0.743214922517     1.712755398464
    H           -4.579538847662    -1.305024185064    -0.013389977414
    H           -5.328415408837     0.006907354357     0.873754451609
    H           -4.554936071233    -1.305828281472     1.738071216138
    C            3.625746194833     0.521606669827    -1.536603730838
    H            3.521341722983     1.589230732832    -1.661193058136
    H            4.067628919781     0.085624413561    -2.417825796677
    H            4.244994299295     0.326536616925    -0.673632076434

  Mulliken Charges: (a.u.)
   Center  Symbol    Alpha    Beta     Spin     Total
       1     O     4.19676  4.19676  0.00000 -0.39353
       2     C     2.80921  2.80921  0.00000  0.38158
       3     C     3.09853  3.09853  0.00000 -0.19706
       4     O     4.14698  4.14698  0.00000 -0.29396
       5     C     3.09213  3.09213  0.00000 -0.18425
       6     H     0.43950  0.43950  0.00000  0.12100
       7     H     0.43843  0.43843  0.00000  0.12313
       8     C     3.09521  3.09521  0.00000 -0.19043
       9     H     0.44596  0.44596  0.00000  0.10807
      10     H     0.44203  0.44203  0.00000  0.11594
      11     C     3.08282  3.08282  0.00000 -0.16563
      12     H     0.45646  0.45646  0.00000  0.08709
      13     H     0.44925  0.44925  0.00000  0.10151
      14     C     3.15061  3.15061  0.00000 -0.30123
      15     H     0.45465  0.45465  0.00000  0.09070
      16     H     0.45152  0.45152  0.00000  0.09696
      17     H     0.45538  0.45538  0.00000  0.08924
      18     H     0.44801  0.44801  0.00000  0.10397
      19     H     0.45478  0.45478  0.00000  0.09043
      20     C     3.03781  3.03781  0.00000 -0.07562
      21     H     0.45433  0.45433  0.00000  0.09135
      22     H     0.44530  0.44530  0.00000  0.10940
      23     H     0.45434  0.45434  0.00000  0.09133

   Total alpha = 36.00000, Total beta = 36.00000, Total charge = -0.00000

*** Psi4 exiting successfully. Buy a developer a beer!
