                              Psi4 1.0.54 Driver

  ==> Input File <==

--------------------------------------------------------------------------
set {
	reference rhf
	basis cc-pvtz
}

set_num_threads( 4 )
memory 2 gb

molecule MOL {
0 1

H	 2.844822	 -0.414496	 -0.134276
O	 2.008969	 -0.856138	 -0.140463
C	 1.050374	 0.054877	 0.000135
C	 -0.318151	 -0.570512	 0.000144
O	 1.288897	 1.207813	 0.108823
C	 -1.454884	 0.441630	 -0.000560
H	 -0.371613	 -1.223646	 -0.864985
H	 -0.371920	 -1.222758	 0.865929
C	 -2.822577	 -0.232186	 0.000063
H	 -1.359760	 1.084704	 -0.867077
H	 -1.359641	 1.085996	 0.864983
H	 -2.954352	 -0.858985	 -0.875745
H	 -3.615886	 0.505352	 0.000019
H	 -2.953878	 -0.858359	 0.876394

	symmetry c1
}
set optking {
	frozen_dihedral = ("
		2 3 4 7
	")
}

ee,wfn = optimize('scf', return_wfn=True)
oeprop( wfn, 'DIPOLE', 'QUADRUPOLE', 'MULLIKEN_CHARGES')
f=open( 'psi4out.xyz', 'w' )
f.write( "14  " )
f.write( str(ee) + "\n" )
f.write( MOL.save_string_xyz() )
f.close()
--------------------------------------------------------------------------

    Molecular point group: c1
  Charge       = 0
  Multiplicity = 1
  Basis Set: CC-PVTZ
  Basis Set:
  @DF-RHF Final Energy:  -306.00099927952300
    Total Energy =                       -306.0009992795230005
    Molecular point group: c1
  Basis Set: CC-PVTZ
  Basis Set:
  Basis Set: CC-PVTZ
  Basis Set:
  @DF-RHF Final Energy:  -306.00100209324023
    Total Energy =                       -306.0010020932400607
  Basis Set: CC-PVTZ
  Basis Set:
  Basis Set: CC-PVTZ
  Basis Set:
  @DF-RHF Final Energy:  -306.00098097993595
    Total Energy =                       -306.0009809799360028
  Basis Set: CC-PVTZ
  Basis Set:
  Basis Set: CC-PVTZ
  Basis Set:
  @DF-RHF Final Energy:  -306.00101546972405
    Total Energy =                       -306.0010154697240523
  Basis Set: CC-PVTZ
  Basis Set:
  Charge       = 0
  Multiplicity = 1
  Basis Set: CC-PVTZ
  Basis Set:

    Orbital Energies (a.u.)
    -----------------------

    Doubly Occupied:

       1A    -20.604543     2A    -20.540979     3A    -11.374026
       4A    -11.239853     5A    -11.224002     6A    -11.215464
       7A     -1.478096     8A     -1.369586     9A     -1.084500
      10A     -0.981036    11A     -0.859275    12A     -0.793150
      13A     -0.704276    14A     -0.691920    15A     -0.669711
      16A     -0.618117    17A     -0.596894    18A     -0.574747
      19A     -0.546031    20A     -0.507201    21A     -0.492427
      22A     -0.485041    23A     -0.482222    24A     -0.447647

  @DF-RHF Final Energy:  -306.00101559593782

   => Energetics <=

    Nuclear Repulsion Energy =            240.4473282122354760
    One-Electron Energy =                -893.7351967756577551
    Two-Electron Energy =                 347.2868529674846059
    DFT Exchange-Correlation Energy =       0.0000000000000000
    Empirical Dispersion Energy =           0.0000000000000000
    PCM Polarization Energy =               0.0000000000000000
    EFP Energy =                            0.0000000000000000
    Total Energy =                       -306.0010155959377016
    Molecular point group: c1
  Basis Set: CC-PVTZ
  Basis Set:

  -Total Gradient:
     Atom            X                  Y                   Z
    ------   -----------------  -----------------  -----------------
       1        0.000003745000    -0.000002200954    -0.000001096678
       2       -0.000010173217     0.000043837340    -0.000301219952
       3        0.000036510491    -0.000108119263     0.000443494987
       4       -0.000159677725     0.000349995596    -0.000345296772
       5        0.000007246299    -0.000005241330    -0.000001088376
       6       -0.000002186790    -0.000000343300     0.000007993817
       7        0.000126388355    -0.000274942751     0.000201465276
       8       -0.000002094207    -0.000000636317     0.000000922279
       9       -0.000000618338     0.000000582597    -0.000006133675
      10        0.000000043536    -0.000002286653     0.000001168646
      11        0.000001443387    -0.000000674093    -0.000000363013
      12       -0.000001412798    -0.000001290283     0.000000813303
      13       -0.000000692273    -0.000000244758    -0.000001281776
      14        0.000001478283     0.000001564166     0.000000621933

  **** Optimization is complete! (in 5 steps) ****
    Final optimized geometry and variables:
    Molecular point group: c1

    Geometry (in Angstrom), charge = 0, multiplicity = 1:

    H            2.845911097372    -0.415151879465    -0.114212163170
    O            2.009961938580    -0.856304959997    -0.133377520767
    C            1.050485069241     0.054634482660     0.001441603907
    C           -0.318017909437    -0.570783601371     0.000063760858
    O            1.288445075403     1.207521529682     0.112083041201
    C           -1.454919142507     0.441104870133     0.008712086984
    H           -0.375827635592    -1.228285279672    -0.860543059387
    H           -0.366384320907    -1.219786647260     0.869521913035
    C           -2.822461967594    -0.232864390863     0.020036438703
    H           -1.367530213718     1.083847789072    -0.859340725020
    H           -1.352042352246     1.085590383130     0.872821597824
    H           -2.960646936226    -0.861284022089    -0.853600993178
    H           -3.615814446812     0.504619795163     0.024570316960
    H           -2.947094994141    -0.857396551323     0.898514066054

  Mulliken Charges: (a.u.)
   Center  Symbol    Alpha    Beta     Spin     Total
       1     H     0.38222  0.38222  0.00000  0.23557
       2     O     4.16004  4.16004  0.00000 -0.32008
       3     C     2.80554  2.80554  0.00000  0.38892
       4     C     3.10506  3.10506  0.00000 -0.21011
       5     O     4.19111  4.19111  0.00000 -0.38222
       6     C     3.07948  3.07948  0.00000 -0.15896
       7     H     0.43809  0.43809  0.00000  0.12382
       8     H     0.43984  0.43984  0.00000  0.12033
       9     C     3.15028  3.15028  0.00000 -0.30055
      10     H     0.44737  0.44737  0.00000  0.10527
      11     H     0.44495  0.44495  0.00000  0.11010
      12     H     0.45555  0.45555  0.00000  0.08890
      13     H     0.44510  0.44510  0.00000  0.10979
      14     H     0.45539  0.45539  0.00000  0.08922

   Total alpha = 24.00000, Total beta = 24.00000, Total charge = -0.00000

*** Psi4 exiting successfully. Buy a developer a beer!
