  ==> Input File <==

--------------------------------------------------------------------------
set {
	reference rhf
	basis 6-31G*
}

set_num_threads( 4 )
memory 2 gb

molecule MOL {
0 1

H	 -1.267186	 -1.324766	 0.356909
O	 -1.422729	 -0.573567	 -0.196946
C	 -0.731407	 0.539437	 0.309156
C	 0.680193	 0.672443	 -0.251532
H	 -1.319765	 1.404033	 0.030086
H	 -0.700012	 0.506517	 1.397677
C	 1.599139	 -0.492137	 0.118598
H	 0.616402	 0.758534	 -1.332349
H	 1.107032	 1.602637	 0.117369
H	 1.239738	 -1.428634	 -0.297334
H	 2.601428	 -0.335055	 -0.265730
H	 1.674954	 -0.608418	 1.197020

	symmetry c1
}
set optking {
	frozen_dihedral = ("
		1 2 3 4
	")
}

ee = optimize('scf')
oeprop('DIPOLE', 'QUADRUPOLE', 'MULLIKEN_CHARGES')
f=open( 'psi4out.xyz', 'w' )
f.write( "12  " )
f.write( str(ee) + "\n" )
f.write( MOL.save_string_xyz() )
f.close()
--------------------------------------------------------------------------

    Molecular point group: c1
  Charge       = 0
  Multiplicity = 1
  Basis Set: 6-31G*
  Basis Set:
  @DF-RHF Final Energy:  -193.10956860802756
    Total Energy =                       -193.1095686080275584
    Molecular point group: c1
  Basis Set: 6-31G*
  Basis Set:
  Basis Set: 6-31G*
  Basis Set:
  @DF-RHF Final Energy:  -193.10960782416171
    Total Energy =                       -193.1096078241616567
  Basis Set: 6-31G*
  Basis Set:
  Basis Set: 6-31G*
  Basis Set:
  @DF-RHF Final Energy:  -193.10963317317362
    Total Energy =                       -193.1096331731737621
  Basis Set: 6-31G*
  Basis Set:
  Basis Set: 6-31G*
  Basis Set:
  @DF-RHF Final Energy:  -193.10963542783810
    Total Energy =                       -193.1096354278381000
  Basis Set: 6-31G*
  Basis Set:
  Charge       = 0
  Multiplicity = 1
  Basis Set: 6-31G*
  Basis Set:

    Orbital Energies (a.u.)
    -----------------------

    Doubly Occupied:

       1A    -20.553201     2A    -11.268344     3A    -11.216246
       4A    -11.213528     5A     -1.359661     6A     -1.049305
       7A     -0.925270     8A     -0.805888     9A     -0.700724
      10A     -0.635324    11A     -0.597764    12A     -0.587371
      13A     -0.530658    14A     -0.511858    15A     -0.491098
      16A     -0.468419    17A     -0.428763

  @DF-RHF Final Energy:  -193.10963583136689

   => Energetics <=

    Nuclear Repulsion Energy =            133.0788842780355878
    One-Electron Energy =                -525.6901989896493887
    Two-Electron Energy =                 199.5016788802469421
    DFT Exchange-Correlation Energy =       0.0000000000000000
    Empirical Dispersion Energy =           0.0000000000000000
    PCM Polarization Energy =               0.0000000000000000
    EFP Energy =                            0.0000000000000000
    Total Energy =                       -193.1096358313668304
    Molecular point group: c1
  Basis Set: 6-31G*
  Basis Set:

  -Total Gradient:
     Atom            X                  Y                   Z
    ------   -----------------  -----------------  -----------------
       1       -0.000922491000     0.000268897932     0.000654386178
       2        0.001002835468    -0.000100852604    -0.001012602683
       3        0.000164662384    -0.000570693536     0.000900793075
       4       -0.000231090289     0.000444611447    -0.000546175141
       5       -0.000016417392    -0.000025882746    -0.000003022199
       6       -0.000006009633    -0.000011210490     0.000003614947
       7       -0.000004129501    -0.000017003935    -0.000006395816
       8        0.000004833285     0.000002946834    -0.000005357854
       9        0.000001346381     0.000006561442    -0.000004905249
      10        0.000003718926     0.000000325192     0.000006715636
      11       -0.000013758193     0.000001009631     0.000004003435
      12        0.000016499565     0.000001290832     0.000008945671

  **** Optimization is complete! (in 5 steps) ****
    Final optimized geometry and variables:
    Molecular point group: c1

    Geometry (in Angstrom), charge = 0, multiplicity = 1:

    H           -1.250978021360    -1.332685054913     0.338510478911
    O           -1.407856066067    -0.578165607364    -0.209187604931
    C           -0.730159744055     0.540056724106     0.309408899122
    C            0.680597846654     0.674978148370    -0.250438368367
    H           -1.316795942838     1.408079439199     0.034336873813
    H           -0.702768069938     0.500943480999     1.397035285150
    C            1.594876117981    -0.492194581760     0.119680538354
    H            0.613821554086     0.758587394978    -1.331196263823
    H            1.107575642043     1.606731942313     0.115084132137
    H            1.213184616357    -1.427348619837    -0.276953017622
    H            2.592602636933    -0.350569948201    -0.282505981599
    H            1.687263322258    -0.594566388448     1.198479912950

  Mulliken Charges: (a.u.)
   Center  Symbol    Alpha    Beta     Spin     Total
       1     H     0.27989  0.27989  0.00000  0.44022
       2     O     4.37047  4.37047  0.00000 -0.74093
       3     C     2.99948  2.99948  0.00000  0.00105
       4     C     3.15714  3.15714  0.00000 -0.31428
       5     H     0.41560  0.41560  0.00000  0.16880
       6     H     0.43206  0.43206  0.00000  0.13587
       7     C     3.24840  3.24840  0.00000 -0.49681
       8     H     0.41418  0.41418  0.00000  0.17163
       9     H     0.42451  0.42451  0.00000  0.15098
      10     H     0.41804  0.41804  0.00000  0.16392
      11     H     0.41553  0.41553  0.00000  0.16895
      12     H     0.42470  0.42470  0.00000  0.15059

   Total alpha = 17.00000, Total beta = 17.00000, Total charge = -0.00000
