  ==> Input File <==

--------------------------------------------------------------------------
set {
	reference rhf
	basis 6-31G*
}

set_num_threads( 4 )
memory 2 gb

molecule MOL {
0 1

H	 -3.049198	 -0.349700	 2.055460
C	 -3.223630	 -0.452866	 0.977243
C	 -2.724589	 0.695840	 0.138169
O	 -3.770664	 -1.417369	 0.550349
C	 -1.252525	 1.031212	 0.415312
H	 -2.888565	 0.453699	 -0.905473
H	 -3.340764	 1.560699	 0.381073
C	 -0.283014	 -0.070186	 -0.020887
H	 -1.006732	 1.953836	 -0.102023
H	 -1.122270	 1.235700	 1.476903
C	 1.180775	 0.282413	 0.250794
H	 -0.418901	 -0.263829	 -1.082906
H	 -0.528073	 -1.000445	 0.488136
C	 2.148627	 -0.814315	 -0.201312
H	 1.416755	 1.217268	 -0.251293
H	 1.316114	 0.463973	 1.316206
C	 3.580890	 -0.659131	 0.322722
H	 2.166869	 -0.852443	 -1.289387
H	 1.762857	 -1.776509	 0.128956
C	 4.324889	 0.564933	 -0.213704
H	 4.142010	 -1.551473	 0.056605
H	 3.564836	 -0.624694	 1.410140
H	 4.342616	 0.565491	 -1.300421
H	 3.866655	 1.493402	 0.110242
H	 5.353900	 0.572371	 0.132816

	symmetry c1
}
set optking {
	frozen_dihedral = ("
		8 11 14 18
	")
}

ee = optimize('scf')
oeprop('DIPOLE', 'QUADRUPOLE', 'MULLIKEN_CHARGES')
f=open( 'psi4out.xyz', 'w' )
f.write( "25  " )
f.write( str(ee) + "\n" )
f.write( MOL.save_string_xyz() )
f.close()
--------------------------------------------------------------------------

    Molecular point group: c1
  Charge       = 0
  Multiplicity = 1
  Basis Set: 6-31G*
  Basis Set:
  @DF-RHF Final Energy:  -387.12173673716910
    Total Energy =                       -387.1217367371691580
    Molecular point group: c1
  Basis Set: 6-31G*
  Basis Set:
  Basis Set: 6-31G*
  Basis Set:
  @DF-RHF Final Energy:  -387.12128024166134
    Total Energy =                       -387.1212802416615659
  Basis Set: 6-31G*
  Basis Set:
  Basis Set: 6-31G*
  Basis Set:
  @DF-RHF Final Energy:  -387.12113789851543
    Total Energy =                       -387.1211378985144620
  Basis Set: 6-31G*
  Basis Set:
  Basis Set: 6-31G*
  Basis Set:
  @DF-RHF Final Energy:  -387.12172501092789
    Total Energy =                       -387.1217250109277757
  Basis Set: 6-31G*
  Basis Set:
  Basis Set: 6-31G*
  Basis Set:
  @DF-RHF Final Energy:  -387.12177751848566
    Total Energy =                       -387.1217775184857146
  Basis Set: 6-31G*
  Basis Set:
  Basis Set: 6-31G*
  Basis Set:
  @DF-RHF Final Energy:  -387.12180250849667
    Total Energy =                       -387.1218025084965575
  Basis Set: 6-31G*
  Basis Set:
  Basis Set: 6-31G*
  Basis Set:
  @DF-RHF Final Energy:  -387.12180579092939
    Total Energy =                       -387.1218057909291019
  Basis Set: 6-31G*
  Basis Set:
  Charge       = 0
  Multiplicity = 1
  Basis Set: 6-31G*
  Basis Set:

    Orbital Energies (a.u.)
    -----------------------

    Doubly Occupied:

       1A    -20.562066     2A    -11.326211     3A    -11.235371
       4A    -11.234702     5A    -11.224024     6A    -11.219972
       7A    -11.217906     8A    -11.216955     9A    -11.210714
      10A     -1.402000    11A     -1.103984    12A     -1.069816
      13A     -1.013229    14A     -0.942225    15A     -0.875445
      16A     -0.820947    17A     -0.788202    18A     -0.780823
      19A     -0.664794    20A     -0.661567    21A     -0.633815
      22A     -0.625423    23A     -0.601049    24A     -0.594730
      25A     -0.575360    26A     -0.550402    27A     -0.535123
      28A     -0.525082    29A     -0.509009    30A     -0.494578
      31A     -0.491762    32A     -0.479768    33A     -0.463730
      34A     -0.459524    35A     -0.441099    36A     -0.409607

  @DF-RHF Final Energy:  -387.12180535757113

   => Energetics <=

    Nuclear Repulsion Energy =            439.2074074272346706
    One-Electron Energy =               -1394.7364000930972452
    Two-Electron Energy =                 568.4071873082914408
    DFT Exchange-Correlation Energy =       0.0000000000000000
    Empirical Dispersion Energy =           0.0000000000000000
    PCM Polarization Energy =               0.0000000000000000
    EFP Energy =                            0.0000000000000000
    Total Energy =                       -387.1218053575711338
    Molecular point group: c1
  Basis Set: 6-31G*
  Basis Set:

  -Total Gradient:
     Atom            X                  Y                   Z
    ------   -----------------  -----------------  -----------------
       1       -0.000034181399    -0.000000615186     0.000011959633
       2        0.000084370005    -0.000005174458     0.000006520965
       3       -0.000017358472     0.000023278919    -0.000029169524
       4       -0.000033430205     0.000009573455     0.000010538891
       5       -0.000007145939    -0.000028010400     0.000070896018
       6        0.000008689394    -0.000018585258     0.000004124654
       7        0.000007884696     0.000026020693    -0.000027340760
       8       -0.000054165271    -0.000486099553     0.000997088670
       9       -0.000033049092     0.000002789175     0.000006244431
      10       -0.000002023626    -0.000016418849     0.000003487825
      11        0.000382464346     0.000965326326    -0.001485618032
      12        0.000021080490    -0.000013955002     0.000006307983
      13       -0.000001678066     0.000000654011     0.000002692295
      14       -0.001496112870    -0.001500190000     0.000481827817
      15       -0.000005999668     0.000030904848    -0.000002848336
      16        0.000005689724    -0.000017307779    -0.000017902354
      17        0.000005428842    -0.000027881886    -0.000025698808
      18        0.001200992066     0.001057831984     0.000012692562
      19       -0.000005826277    -0.000026507066    -0.000007613237
      20       -0.000008336079     0.000026639559     0.000001210471
      21       -0.000010960343    -0.000003444494    -0.000004301613
      22       -0.000010912914    -0.000010122939    -0.000011714771
      23        0.000012238285     0.000000354704    -0.000004373179
      24       -0.000007250784     0.000003601905    -0.000007381036
      25       -0.000000406835     0.000007337295     0.000008369438

  **** Optimization is complete! (in 8 steps) ****
    Final optimized geometry and variables:
    Molecular point group: c1

    Geometry (in Angstrom), charge = 0, multiplicity = 1:

    H           -3.064348184716    -0.203149801132     1.817734786442
    C           -3.230386608410    -0.330873581055     0.740720979723
    C           -2.719311227014     0.795730832363    -0.120901303599
    O           -3.784151356284    -1.299901341028     0.333056709061
    C           -1.245773535019     1.126002985409     0.155089432726
    H           -2.880616341993     0.531963753301    -1.159755783942
    H           -3.330009343412     1.670154676067     0.100323681010
    C           -0.281332390683     0.014597897012    -0.266665271996
    H           -0.993840806883     2.041766537650    -0.371697727913
    H           -1.116301902509     1.341259134226     1.214537602138
    C            1.183743657320     0.360227347953     0.007256804894
    H           -0.415655242128    -0.188797623228    -1.327293144571
    H           -0.532503214585    -0.909167021075     0.250887332866
    C            2.149660696485    -0.736468242133    -0.453105656754
    H            1.427902666528     1.300310068327    -0.480823503139
    H            1.313414339432     0.527620878424     1.075773130730
    C            3.585633200113    -0.571590728799     0.057894811457
    H            2.166649670405    -0.765120421064    -1.541275560374
    H            1.773743906603    -1.702198469887    -0.123155524166
    C            4.296458483739     0.684750796802    -0.448384788842
    H            4.160501493057    -1.444204592284    -0.242120593514
    H            3.581600623586    -0.570441633899     1.146005481904
    H            4.306992825535     0.716476656516    -1.534681756697
    H            3.816604676719     1.591831755575    -0.095535937945
    H            5.327124511871     0.708617069854    -0.108203282568

  Mulliken Charges: (a.u.)
   Center  Symbol    Alpha    Beta     Spin     Total
       1     H     0.43260  0.43260  0.00000  0.13479
       2     C     2.83085  2.83085  0.00000  0.33830
       3     C     3.20818  3.20818  0.00000 -0.41635
       4     O     4.23774  4.23774  0.00000 -0.47548
       5     C     3.16670  3.16670  0.00000 -0.33341
       6     H     0.39967  0.39967  0.00000  0.20067
       7     H     0.40661  0.40661  0.00000  0.18679
       8     C     3.15489  3.15489  0.00000 -0.30978
       9     H     0.41287  0.41287  0.00000  0.17425
      10     H     0.41965  0.41965  0.00000  0.16070
      11     C     3.15444  3.15444  0.00000 -0.30889
      12     H     0.41810  0.41810  0.00000  0.16380
      13     H     0.41824  0.41824  0.00000  0.16353
      14     C     3.15314  3.15314  0.00000 -0.30629
      15     H     0.42044  0.42044  0.00000  0.15912
      16     H     0.42396  0.42396  0.00000  0.15208
      17     C     3.15283  3.15283  0.00000 -0.30565
      18     H     0.42279  0.42279  0.00000  0.15442
      19     H     0.42018  0.42018  0.00000  0.15964
      20     C     3.24159  3.24159  0.00000 -0.48318
      21     H     0.42015  0.42015  0.00000  0.15970
      22     H     0.42328  0.42328  0.00000  0.15343
      23     H     0.42203  0.42203  0.00000  0.15593
      24     H     0.42041  0.42041  0.00000  0.15918
      25     H     0.41865  0.41865  0.00000  0.16270

   Total alpha = 36.00000, Total beta = 36.00000, Total charge =  0.00000
