  ==> Input File <==

--------------------------------------------------------------------------
set {
	reference rhf
	basis cc-pvtz
}

set_num_threads( 4 )
memory 2 gb

molecule MOL {
0 1

H	 1.838548	 0.067641	 1.061161
C	 1.046105	 -0.484969	 0.603789
C	 1.039524	 -1.865069	 0.599964
C	 0.000000	 0.179985	 0.000046
H	 1.843877	 -2.400822	 1.064182
C	 -0.000002	 -2.552036	 -0.000007
N	 0.000000	 1.644631	 0.000076
C	 -1.046105	 -0.484944	 -0.603725
H	 -0.000000	 -3.625035	 -0.000032
C	 -1.039525	 -1.865044	 -0.599954
O	 1.050559	 2.194174	 -0.000073
O	 -1.050559	 2.194174	 -0.000074
H	 -1.838552	 0.067684	 -1.061068
H	 -1.843877	 -2.400779	 -1.064197

	symmetry c1
}
set optking {
	frozen_dihedral = ("
		2 4 7 11
	")
}

ee = optimize('scf')
oeprop('DIPOLE', 'QUADRUPOLE', 'MULLIKEN_CHARGES')
f=open( 'psi4out.xyz', 'w' )
f.write( "14  " )
f.write( str(ee) + "\n" )
f.write( MOL.save_string_xyz() )
f.close()
--------------------------------------------------------------------------

    Molecular point group: c1
  Charge       = 0
  Multiplicity = 1
  Basis Set: CC-PVTZ
  Basis Set:
  @DF-RHF Final Energy:  -434.32830400398205
    Total Energy =                       -434.3283040039818843
    Molecular point group: c1
  Basis Set: CC-PVTZ
  Basis Set:
  Basis Set: CC-PVTZ
  Basis Set:
  @DF-RHF Final Energy:  -434.32081180989962
    Total Energy =                       -434.3208118098993964
  Basis Set: CC-PVTZ
  Basis Set:
  Basis Set: CC-PVTZ
  Basis Set:
  @DF-RHF Final Energy:  -434.32828427146012
    Total Energy =                       -434.3282842714600065
  Basis Set: CC-PVTZ
  Basis Set:
  Basis Set: CC-PVTZ
  Basis Set:
  @DF-RHF Final Energy:  -434.32849520216558
    Total Energy =                       -434.3284952021657546
  Basis Set: CC-PVTZ
  Basis Set:
  Basis Set: CC-PVTZ
  Basis Set:
  @DF-RHF Final Energy:  -434.32849626904982
    Total Energy =                       -434.3284962690495377
  Basis Set: CC-PVTZ
  Basis Set:
  Charge       = 0
  Multiplicity = 1
  Basis Set: CC-PVTZ
  Basis Set:

    Orbital Energies (a.u.)
    -----------------------

    Doubly Occupied:

       1A    -20.593060     2A    -20.592983     3A    -15.847493
       4A    -11.303400     5A    -11.267724     6A    -11.267583
       7A    -11.263784     8A    -11.258902     9A    -11.258724
      10A     -1.641638    11A     -1.424351    12A     -1.205322
      13A     -1.096345    14A     -1.055746    15A     -0.959550
      16A     -0.869341    17A     -0.829363    18A     -0.788208
      19A     -0.740452    20A     -0.735519    21A     -0.713533
      22A     -0.657958    23A     -0.651736    24A     -0.626417
      25A     -0.557229    26A     -0.543835    27A     -0.532158
      28A     -0.494473    29A     -0.490817    30A     -0.456950
      31A     -0.376195    32A     -0.369845

  @DF-RHF Final Energy:  -434.32849865428108

   => Energetics <=

    Nuclear Repulsion Energy =            418.1679098361818774
    One-Electron Energy =               -1420.0515492297304263
    Two-Electron Energy =                 567.5551407392674719
    DFT Exchange-Correlation Energy =       0.0000000000000000
    Empirical Dispersion Energy =           0.0000000000000000
    PCM Polarization Energy =               0.0000000000000000
    EFP Energy =                            0.0000000000000000
    Total Energy =                       -434.3284986542810202
    Molecular point group: c1
  Basis Set: CC-PVTZ
  Basis Set:

  -Total Gradient:
     Atom            X                  Y                   Z
    ------   -----------------  -----------------  -----------------
       1        0.000001984761    -0.000001798208    -0.000002543354
       2       -0.001506138603    -0.000063854120     0.002540553736
       3        0.000015000963     0.000013838642    -0.000009584872
       4        0.002178476846     0.000097581958    -0.004924747130
       5       -0.000000435209     0.000000314698     0.000002375019
       6       -0.000012239601    -0.000001977564    -0.000010587844
       7       -0.000725598306    -0.000100692033     0.005769578746
       8        0.000017489405     0.000009641390    -0.000009539054
       9        0.000001300358     0.000000785514     0.000001349500
      10       -0.000001593338    -0.000013849749     0.000019413866
      11        0.000059941151     0.000051169698    -0.003373351325
      12       -0.000027080203     0.000008233756    -0.000000000652
      13       -0.000001033994    -0.000002470056     0.000000183493
      14       -0.000000074232     0.000003076080    -0.000003100129

  **** Optimization is complete! (in 6 steps) ****
    Final optimized geometry and variables:
    Molecular point group: c1

    Geometry (in Angstrom), charge = 0, multiplicity = 1:

    H            1.849037803565     0.072238932872     1.043466740410
    C            1.051799438365    -0.481969357136     0.594282136148
    C            1.037846561496    -1.862237808654     0.602897253586
    C            0.009090412005     0.180019520899    -0.015163256287
    H            1.835468126873    -2.398585663440     1.077939166631
    C           -0.000623271129    -2.548429347036     0.000349693137
    N           -0.000833557110     1.641922610801     0.007200780355
    C           -1.048073286463    -0.480984922160    -0.600437753279
    H           -0.003106409106    -3.621318473174     0.003732431484
    C           -1.038198721085    -1.861239169263    -0.602956379962
    O            1.048308336344     2.194249387666     0.030783969805
    O           -1.055828644763     2.182283207336    -0.022290052502
    H           -1.849374865851     0.073406552620    -1.041769419363
    H           -1.842080513361    -2.397153300838    -1.067843270217

  Mulliken Charges: (a.u.)
   Center  Symbol    Alpha    Beta     Spin     Total
       1     H     0.40309  0.40309  0.00000  0.19382
       2     C     3.08195  3.08195  0.00000 -0.16391
       3     C     3.07151  3.07151  0.00000 -0.14302
       4     C     2.95876  2.95876  0.00000  0.08248
       5     H     0.41701  0.41701  0.00000  0.16598
       6     C     3.06638  3.06638  0.00000 -0.13275
       7     N     3.26436  3.26436  0.00000  0.47129
       8     C     3.08122  3.08122  0.00000 -0.16244
       9     H     0.41723  0.41723  0.00000  0.16555
      10     C     3.07101  3.07101  0.00000 -0.14202
      11     O     4.17356  4.17356  0.00000 -0.34712
      12     O     4.17366  4.17366  0.00000 -0.34732
      13     H     0.40325  0.40325  0.00000  0.19351
      14     H     0.41702  0.41702  0.00000  0.16595

   Total alpha = 32.00000, Total beta = 32.00000, Total charge = -0.00000
