  ==> Input File <==

--------------------------------------------------------------------------
set {
	reference rhf
	basis 6-31G*
}

set_num_threads( 1 )
memory 2 gb

molecule MOL {
0 1

H	 3.729471	 -0.928294	 -0.070608
O	 2.826016	 -1.159218	 0.122261
C	 2.077727	 -0.067559	 -0.035091
C	 0.624473	 -0.343591	 0.253101
O	 2.542965	 0.974826	 -0.363729
C	 -0.265902	 0.883932	 0.072916
H	 0.324016	 -1.163849	 -0.390541
H	 0.565024	 -0.726111	 1.268924
C	 -1.728698	 0.646073	 0.462102
H	 -0.209144	 1.219470	 -0.958188
H	 0.135059	 1.692851	 0.673903
C	 -2.010206	 -0.707282	 1.120995
H	 -2.334201	 0.725760	 -0.437774
H	 -2.063654	 1.444913	 1.122265
C	 -3.497995	 -0.930459	 1.391467
H	 -1.636783	 -1.502614	 0.479086
H	 -1.465857	 -0.789128	 2.058208
H	 -3.672237	 -1.894200	 1.859608
H	 -4.072520	 -0.901003	 0.470119
H	 -3.895193	 -0.165150	 2.052354

	symmetry c1
}
set optking {
	frozen_dihedral = ("
		16 12 9 6,
		7 4 6 10,
		5 3 4 7,
		1 2 3 5
	")
}

ee = energy('scf')
oeprop('DIPOLE', 'QUADRUPOLE', 'MULLIKEN_CHARGES')
f=open( 'psi4out.xyz', 'w' )
f.write( "20  " )
f.write( str(ee) + "\n" )
f.write( MOL.save_string_xyz() )
f.close()
--------------------------------------------------------------------------

    Molecular point group: c1

    Geometry (in Angstrom), charge = 0, multiplicity = 1:

       Center              X                  Y                   Z               Mass
    ------------   -----------------  -----------------  -----------------  -----------------
           H          3.612667832009    -0.823312040128    -0.445463054356     1.007825032070
           O          2.709212832009    -1.054236040128    -0.252594054356    15.994914619560
           C          1.960923832009     0.037422959872    -0.409946054356    12.000000000000
           C          0.507669832009    -0.238609040128    -0.121754054356    12.000000000000
           O          2.426161832009     1.079807959872    -0.738584054356    15.994914619560
           C         -0.382705167991     0.988913959872    -0.301939054356    12.000000000000
           H          0.207212832009    -1.058867040128    -0.765396054356     1.007825032070
           H          0.448220832009    -0.621129040128     0.894068945644     1.007825032070
           C         -1.845501167991     0.751054959872     0.087246945644    12.000000000000
           H         -0.325947167991     1.324451959872    -1.333043054356     1.007825032070
           H          0.018255832009     1.797832959872     0.299047945644     1.007825032070
           C         -2.127009167991    -0.602300040128     0.746139945644    12.000000000000
           H         -2.451004167991     0.830741959872    -0.812629054356     1.007825032070
           H         -2.180457167991     1.549894959872     0.747409945644     1.007825032070
           C         -3.614798167991    -0.825477040128     1.016611945644    12.000000000000
           H         -1.753586167991    -1.397632040128     0.104230945644     1.007825032070
           H         -1.582660167991    -0.684146040128     1.683352945644     1.007825032070
           H         -3.789040167991    -1.789218040128     1.484752945644     1.007825032070
           H         -4.189323167991    -0.796021040128     0.095263945644     1.007825032070
           H         -4.011996167991    -0.060168040128     1.677498945644     1.007825032070

  Charge       = 0
  Multiplicity = 1
  Basis Set: 6-31G*
  Basis Set:

    Orbital Energies (a.u.)
    -----------------------

    Doubly Occupied:

       1A    -20.611883     2A    -20.550579     3A    -11.379955
       4A    -11.239237     5A    -11.221381     6A    -11.221321
       7A    -11.218815     8A    -11.212395     9A     -1.473808
      10A     -1.364787    11A     -1.098723    12A     -1.037768
      13A     -0.961836    14A     -0.869208    15A     -0.825445
      16A     -0.764391    17A     -0.698946    18A     -0.688862
      19A     -0.671295    20A     -0.636960    21A     -0.596982
      22A     -0.591859    23A     -0.582348    24A     -0.548958
      25A     -0.542519    26A     -0.519028    27A     -0.500890
      28A     -0.478048    29A     -0.471541    30A     -0.458589
      31A     -0.452319    32A     -0.442784

  @DF-RHF Final Energy:  -383.93832343270566

   => Energetics <=

    Nuclear Repulsion Energy =            379.5638267078975900
    One-Electron Energy =               -1275.1373376159654072
    Two-Electron Energy =                 511.6351874753621587
    DFT Exchange-Correlation Energy =       0.0000000000000000
    Empirical Dispersion Energy =           0.0000000000000000
    PCM Polarization Energy =               0.0000000000000000
    EFP Energy =                            0.0000000000000000
    Total Energy =                       -383.9383234327057153

  Mulliken Charges: (a.u.)
   Center  Symbol    Alpha    Beta     Spin     Total
       1     H     0.26786  0.26786  0.00000  0.46427
       2     O     4.35156  4.35156  0.00000 -0.70313
       3     C     2.62077  2.62077  0.00000  0.75845
       4     C     3.21898  3.21898  0.00000 -0.43796
       5     O     4.27924  4.27924  0.00000 -0.55848
       6     C     3.15590  3.15590  0.00000 -0.31180
       7     H     0.39753  0.39753  0.00000  0.20493
       8     H     0.39628  0.39628  0.00000  0.20744
       9     C     3.15612  3.15612  0.00000 -0.31225
      10     H     0.40917  0.40917  0.00000  0.18165
      11     H     0.40798  0.40798  0.00000  0.18404
      12     C     3.15984  3.15984  0.00000 -0.31968
      13     H     0.41968  0.41968  0.00000  0.16064
      14     H     0.41774  0.41774  0.00000  0.16452
      15     C     3.23740  3.23740  0.00000 -0.47479
      16     H     0.42159  0.42159  0.00000  0.15683
      17     H     0.42179  0.42179  0.00000  0.15641
      18     H     0.41865  0.41865  0.00000  0.16270
      19     H     0.42099  0.42099  0.00000  0.15802
      20     H     0.42091  0.42091  0.00000  0.15819

   Total alpha = 32.00000, Total beta = 32.00000, Total charge = -0.00000
