                              Psi4 1.0.54 Driver

  ==> Input File <==

--------------------------------------------------------------------------
set {
	reference rhf
	basis cc-pvtz
}

set_num_threads( 4 )
memory 2 gb

molecule MOL {
0 1

H	 2.002517	 0.012975	 0.445350
C	 1.165109	 0.014290	 -0.236894
O	 0.000000	 0.000000	 0.518769
H	 1.223976	 0.903056	 -0.861783
H	 1.234799	 -0.861712	 -0.878469
C	 -1.165153	 0.000000	 -0.236961
H	 -1.229451	 0.882440	 -0.870223
H	 -2.002557	 0.000000	 0.445289
H	 -1.229451	 -0.882440	 -0.870223

	symmetry c1
}
set optking {
	frozen_dihedral = ("
		2 3 6 7
	")
}

ee,wfn = optimize('scf', return_wfn=True)
oeprop( wfn, 'DIPOLE', 'QUADRUPOLE', 'MULLIKEN_CHARGES')
f=open( 'psi4out.xyz', 'w' )
f.write( "9  " )
f.write( str(ee) + "\n" )
f.write( MOL.save_string_xyz() )
f.close()
--------------------------------------------------------------------------

    Molecular point group: c1
  Charge       = 0
  Multiplicity = 1
  Basis Set: CC-PVTZ
  Basis Set:
  @DF-RHF Final Energy:  -154.12719489778914
    Total Energy =                       -154.1271948977891384
    Molecular point group: c1
  Basis Set: CC-PVTZ
  Basis Set:
  Charge       = 0
  Multiplicity = 1
  Basis Set: CC-PVTZ
  Basis Set:

    Orbital Energies (a.u.)
    -----------------------

    Doubly Occupied:

       1A    -20.550439     2A    -11.263280     3A    -11.263257
       4A     -1.382858     5A     -0.975871     6A     -0.872767
       7A     -0.664188     8A     -0.655875     9A     -0.647096
      10A     -0.551520    11A     -0.529945    12A     -0.477018
      13A     -0.420460

  @DF-RHF Final Energy:  -154.12719510377855

   => Energetics <=

    Nuclear Repulsion Energy =             84.8591031864415299
    One-Electron Energy =                -377.4634525003955901
    Two-Electron Energy =                 138.4771542101754562
    DFT Exchange-Correlation Energy =       0.0000000000000000
    Empirical Dispersion Energy =           0.0000000000000000
    PCM Polarization Energy =               0.0000000000000000
    EFP Energy =                            0.0000000000000000
    Total Energy =                       -154.1271951037786039
    Molecular point group: c1
  Basis Set: CC-PVTZ
  Basis Set:

  -Total Gradient:
     Atom            X                  Y                   Z
    ------   -----------------  -----------------  -----------------
       1        0.000027949937     0.000002444048    -0.000006983988
       2        0.000068206632     0.000061663936     0.000000950521
       3        0.000015885404    -0.000118627075    -0.000035109902
       4       -0.000012091524    -0.000003638608     0.000006353183
       5       -0.000002466918     0.000005837758    -0.000000519949
       6       -0.000127011998     0.000094478872     0.000094959483
       7        0.000053057049    -0.000052804293    -0.000064572983
       8       -0.000044357506     0.000000280940    -0.000008111472
       9        0.000020828924     0.000010364421     0.000013035107

  **** Optimization is complete! (in 2 steps) ****
    Final optimized geometry and variables:
    Molecular point group: c1

    Geometry (in Angstrom), charge = 0, multiplicity = 1:

    H            2.002905888153     0.008038326489     0.446020046090
    C            1.165350353615     0.009652861377    -0.236357945440
    O           -0.000191989651    -0.004953682874     0.518666059978
    H            1.224302325975     0.898709405002    -0.860994696408
    H            1.235386814519    -0.865967075087    -0.878635948302
    C           -1.165202570731    -0.005131163568    -0.237322065704
    H           -1.229582493100     0.877429968757    -0.870584376593
    H           -2.003447349617    -0.006347604245     0.444210675123
    H           -1.228277796331    -0.887083560082    -0.871595714867

  Mulliken Charges: (a.u.)
   Center  Symbol    Alpha    Beta     Spin     Total
       1     H     0.44827  0.44827  0.00000  0.10345
       2     C     3.02196  3.02196  0.00000 -0.04392
       3     O     4.16719  4.16719  0.00000 -0.33439
       4     H     0.47304  0.47304  0.00000  0.05391
       5     H     0.47313  0.47313  0.00000  0.05374
       6     C     3.02195  3.02195  0.00000 -0.04389
       7     H     0.47321  0.47321  0.00000  0.05358
       8     H     0.44827  0.44827  0.00000  0.10346
       9     H     0.47298  0.47298  0.00000  0.05405

   Total alpha = 13.00000, Total beta = 13.00000, Total charge =  0.00000

*** Psi4 exiting successfully. Buy a developer a beer!
