                              Psi4 1.0.54 Driver

  ==> Input File <==

--------------------------------------------------------------------------
set {
	reference rhf
	basis cc-pvtz
}

set_num_threads( 4 )
memory 2 gb

molecule MOL {
0 1

H	 -3.367359	 2.222229	 -1.363430
O	 -2.663475	 1.645181	 -1.595288
C	 -1.861197	 1.387150	 -0.473599
C	 -0.740019	 0.455270	 -0.886736
H	 -1.447280	 2.313360	 -0.080432
H	 -2.450185	 0.929520	 0.318548
C	 0.196029	 0.106276	 0.266738
H	 -0.181610	 0.924643	 -1.690533
H	 -1.178158	 -0.448383	 -1.298271
C	 1.330220	 -0.826136	 -0.155230
H	 0.605580	 1.021796	 0.682437
H	 -0.372861	 -0.365164	 1.065293
C	 2.719700	 -0.407669	 0.328325
H	 1.339388	 -0.911200	 -1.239363
H	 1.119001	 -1.821953	 0.224128
C	 3.241564	 0.893452	 -0.276737
H	 3.418299	 -1.204729	 0.093035
H	 2.711776	 -0.323368	 1.411960
H	 3.254204	 0.841071	 -1.360784
H	 2.634460	 1.745075	 0.005842
H	 4.254264	 1.092401	 0.054971

	symmetry c1
}
set optking {
	frozen_dihedral = ("
		4 7 10 14
	")
}

ee,wfn = optimize('scf', return_wfn=True)
oeprop( wfn, 'DIPOLE', 'QUADRUPOLE', 'MULLIKEN_CHARGES')
f=open( 'psi4out.xyz', 'w' )
f.write( "21  " )
f.write( str(ee) + "\n" )
f.write( MOL.save_string_xyz() )
f.close()
--------------------------------------------------------------------------

    Molecular point group: c1
  Charge       = 0
  Multiplicity = 1
  Basis Set: CC-PVTZ
  Basis Set:
  @DF-RHF Final Energy:  -310.32796013276459
    Total Energy =                       -310.3279601327650425
    Molecular point group: c1
  Basis Set: CC-PVTZ
  Basis Set:
  Basis Set: CC-PVTZ
  Basis Set:
  @DF-RHF Final Energy:  -310.32770867036714
    Total Energy =                       -310.3277086703670875
  Basis Set: CC-PVTZ
  Basis Set:
  Basis Set: CC-PVTZ
  Basis Set:
  @DF-RHF Final Energy:  -310.32835697393790
    Total Energy =                       -310.3283569739376730
  Basis Set: CC-PVTZ
  Basis Set:
  Basis Set: CC-PVTZ
  Basis Set:
  @DF-RHF Final Energy:  -310.32828530829551
    Total Energy =                       -310.3282853082956763
  Basis Set: CC-PVTZ
  Basis Set:
  Basis Set: CC-PVTZ
  Basis Set:
  @DF-RHF Final Energy:  -310.32840247520397
    Total Energy =                       -310.3284024752039159
  Basis Set: CC-PVTZ
  Basis Set:
  Charge       = 0
  Multiplicity = 1
  Basis Set: CC-PVTZ
  Basis Set:

    Orbital Energies (a.u.)
    -----------------------

    Doubly Occupied:

       1A    -20.545355     2A    -11.264794     3A    -11.213348
       4A    -11.213129     5A    -11.210928     6A    -11.209279
       7A    -11.205876     8A     -1.363176     9A     -1.085747
      10A     -1.034093    11A     -0.954616    12A     -0.876420
      13A     -0.807211    14A     -0.781105    15A     -0.696146
      16A     -0.661424    17A     -0.620201    18A     -0.611747
      19A     -0.588425    20A     -0.559662    21A     -0.551204
      22A     -0.520760    23A     -0.502369    24A     -0.492315
      25A     -0.481754    26A     -0.460282    27A     -0.451371
      28A     -0.443585    29A     -0.437557

  @DF-RHF Final Energy:  -310.32840284342336

   => Energetics <=

    Nuclear Repulsion Energy =            314.9975661727394822
    One-Electron Energy =               -1044.9641735704651637
    Two-Electron Energy =                 419.6382045543022627
    DFT Exchange-Correlation Energy =       0.0000000000000000
    Empirical Dispersion Energy =           0.0000000000000000
    PCM Polarization Energy =               0.0000000000000000
    EFP Energy =                            0.0000000000000000
    Total Energy =                       -310.3284028434234756
    Molecular point group: c1
  Basis Set: CC-PVTZ
  Basis Set:

  -Total Gradient:
     Atom            X                  Y                   Z
    ------   -----------------  -----------------  -----------------
       1       -0.000026366480     0.000016007223    -0.000003262002
       2       -0.000008286099    -0.000013376919    -0.000008147419
       3        0.000006573302    -0.000016790753    -0.000001236439
       4        0.000984030601     0.001397281159    -0.000387769345
       5        0.000010149314     0.000005913968     0.000003028657
       6       -0.000023059608    -0.000002380834     0.000019696981
       7       -0.001644980947    -0.002372388787     0.000538273497
       8        0.000003790692     0.000021937706    -0.000003496983
       9        0.000008136587    -0.000019446745    -0.000014016655
      10        0.002098422076     0.002832364951    -0.000281602506
      11        0.000025361045     0.000030582716    -0.000004154067
      12        0.000014744213    -0.000003325733     0.000003297392
      13        0.000020048433    -0.000002387620    -0.000020779594
      14       -0.001422813655    -0.001849188417     0.000138675942
      15        0.000003154055    -0.000020606062     0.000008906094
      16       -0.000019241285    -0.000009365335     0.000028144405
      17        0.000012957756    -0.000033309407     0.000006932718
      18       -0.000023083577     0.000003057610    -0.000003968282
      19       -0.000010682911    -0.000010677470    -0.000039981702
      20       -0.000041732086     0.000053402892     0.000010618935
      21        0.000032878574    -0.000007304142     0.000010840375

  **** Optimization is complete! (in 6 steps) ****
    Final optimized geometry and variables:
    Molecular point group: c1

    Geometry (in Angstrom), charge = 0, multiplicity = 1:

    H           -3.697670854750     1.620494881150    -0.932476969083
    O           -2.967058279457     1.080051581376    -1.169685265662
    C           -2.168034013193     0.826753960212    -0.044568283223
    C           -1.003194418543    -0.045409631258    -0.466124038686
    H           -1.798670444057     1.759079011453     0.377870277700
    H           -2.746383125809     0.324119386909     0.727909487285
    C           -0.058872218268    -0.374042291821     0.686960366787
    H           -0.457775061751     0.462796075439    -1.254824879102
    H           -1.397022284452    -0.959581268212    -0.899779727889
    C            1.106801495619    -1.298443595676     0.281958263616
    H            0.332269301908     0.555542570343     1.088998566116
    H           -0.618462555334    -0.832655748260     1.496344675879
    C            2.481434849745    -0.855189534501     0.784571837509
    H            1.133962156219    -1.402020334775    -0.798995159815
    H            0.908760503828    -2.296994765319     0.657936791414
    C            3.026557875179     0.390276661669     0.090353757090
    H            3.185304203862    -1.669230457983     0.640892534426
    H            2.432525564018    -0.682831164865     1.856680330803
    H            3.138695535264     0.220028638834    -0.975381860367
    H            2.373723403282     1.246052190416     0.219100087253
    H            3.999145202679     0.660306414486     0.485868511645

  Mulliken Charges: (a.u.)
   Center  Symbol    Alpha    Beta     Spin     Total
       1     H     0.39738  0.39738  0.00000  0.20524
       2     O     4.19486  4.19486  0.00000 -0.38971
       3     C     2.96375  2.96375  0.00000  0.07249
       4     C     3.08417  3.08417  0.00000 -0.16835
       5     H     0.47506  0.47506  0.00000  0.04988
       6     H     0.47482  0.47482  0.00000  0.05035
       7     C     3.11251  3.11251  0.00000 -0.22503
       8     H     0.45045  0.45045  0.00000  0.09910
       9     H     0.45020  0.45020  0.00000  0.09961
      10     C     3.09693  3.09693  0.00000 -0.19386
      11     H     0.45313  0.45313  0.00000  0.09374
      12     H     0.44744  0.44744  0.00000  0.10513
      13     C     3.08915  3.08915  0.00000 -0.17829
      14     H     0.45314  0.45314  0.00000  0.09373
      15     H     0.44686  0.44686  0.00000  0.10628
      16     C     3.14987  3.14987  0.00000 -0.29974
      17     H     0.44882  0.44882  0.00000  0.10237
      18     H     0.45469  0.45469  0.00000  0.09062
      19     H     0.45411  0.45411  0.00000  0.09179
      20     H     0.45527  0.45527  0.00000  0.08946
      21     H     0.44739  0.44739  0.00000  0.10521

   Total alpha = 29.00000, Total beta = 29.00000, Total charge =  0.00000

*** Psi4 exiting successfully. Buy a developer a beer!
