  ==> Input File <==

--------------------------------------------------------------------------
set {
	reference rhf
	basis 6-31G*
}

set_num_threads( 4 )
memory 2 gb

molecule MOL {
0 1

H	 1.064089	 0.069849	 1.843055
C	 0.605803	 -0.484033	 1.049282
C	 0.601806	 -1.867295	 1.042359
C	 0.000000	 0.183220	 0.000000
H	 1.066948	 -2.404452	 1.848008
C	 0.000000	 -2.555744	 0.000000
N	 0.000000	 1.642018	 0.000000
C	 -0.605803	 -0.484034	 -1.049282
H	 0.000000	 -3.630640	 0.000000
C	 -0.601806	 -1.867295	 -1.042359
O	 1.057097	 2.196749	 0.000000
O	 -1.057097	 2.196749	 0.000000
H	 -1.064089	 0.069849	 -1.843055
H	 -1.066948	 -2.404452	 -1.848008

	symmetry c1
}
set optking {
	frozen_dihedral = ("
		2 4 7 11
	")
}

ee = optimize('scf')
oeprop('DIPOLE', 'QUADRUPOLE', 'MULLIKEN_CHARGES')
f=open( 'psi4out.xyz', 'w' )
f.write( "14  " )
f.write( str(ee) + "\n" )
f.write( MOL.save_string_xyz() )
f.close()
--------------------------------------------------------------------------

    Molecular point group: c1
  Charge       = 0
  Multiplicity = 1
  Basis Set: 6-31G*
  Basis Set:
  @DF-RHF Final Energy:  -434.16613392607530
    Total Energy =                       -434.1661339260748491
    Molecular point group: c1
  Basis Set: 6-31G*
  Basis Set:
  Basis Set: 6-31G*
  Basis Set:
  @DF-RHF Final Energy:  -434.16083967408247
    Total Energy =                       -434.1608396740824674
  Basis Set: 6-31G*
  Basis Set:
  Basis Set: 6-31G*
  Basis Set:
  @DF-RHF Final Energy:  -434.16656105278349
    Total Energy =                       -434.1665610527830950
  Basis Set: 6-31G*
  Basis Set:
  Basis Set: 6-31G*
  Basis Set:
  @DF-RHF Final Energy:  -434.16675596433237
    Total Energy =                       -434.1667559643326513
  Basis Set: 6-31G*
  Basis Set:
  Basis Set: 6-31G*
  Basis Set:
  @DF-RHF Final Energy:  -434.16675885344654
    Total Energy =                       -434.1667588534464812
  Basis Set: 6-31G*
  Basis Set:
  Charge       = 0
  Multiplicity = 1
  Basis Set: 6-31G*
  Basis Set:

    Orbital Energies (a.u.)
    -----------------------

    Doubly Occupied:

       1A    -20.605490     2A    -20.605429     3A    -15.855441
       4A    -11.307717     5A    -11.271537     6A    -11.271141
       7A    -11.264441     8A    -11.262945     9A    -11.262437
      10A     -1.636882    11A     -1.420788    12A     -1.203039
      13A     -1.095158    14A     -1.054092    15A     -0.957560
      16A     -0.870554    17A     -0.826727    18A     -0.781349
      19A     -0.733594    20A     -0.730171    21A     -0.714438
      22A     -0.649282    23A     -0.648979    24A     -0.624178
      25A     -0.558111    26A     -0.544505    27A     -0.531812
      28A     -0.493119    29A     -0.485013    30A     -0.451335
      31A     -0.369379    32A     -0.366545

  @DF-RHF Final Energy:  -434.16675944414726

   => Energetics <=

    Nuclear Repulsion Energy =            416.6188622805558452
    One-Electron Energy =               -1416.6648711723466931
    Two-Electron Energy =                 565.8792494476433603
    DFT Exchange-Correlation Energy =       0.0000000000000000
    Empirical Dispersion Energy =           0.0000000000000000
    PCM Polarization Energy =               0.0000000000000000
    EFP Energy =                            0.0000000000000000
    Total Energy =                       -434.1667594441474876
    Molecular point group: c1
  Basis Set: 6-31G*
  Basis Set:

  -Total Gradient:
     Atom            X                  Y                   Z
    ------   -----------------  -----------------  -----------------
       1        0.000005705436     0.000013099079     0.000011688818
       2       -0.004989206491    -0.000197402141     0.002654931647
       3       -0.000037320918     0.000034703453     0.000025422623
       4        0.007185262037     0.000271800763    -0.006351525710
       5        0.000004733150    -0.000001300957    -0.000006583552
       6       -0.000010531433    -0.000001982466    -0.000033832567
       7       -0.002498258545    -0.000261650493     0.010280788644
       8        0.000087140252     0.000039480370     0.000031239689
       9       -0.000000827622    -0.000002539549     0.000004410040
      10        0.000056209832    -0.000022315247     0.000009756441
      11        0.000218026066     0.000116041305    -0.006607525887
      12       -0.000010930057    -0.000005045287    -0.000005085210
      13       -0.000005719946     0.000010194768    -0.000018018481
      14       -0.000004281760     0.000006916392     0.000004333506

  **** Optimization is complete! (in 6 steps) ****
    Final optimized geometry and variables:
    Molecular point group: c1

    Geometry (in Angstrom), charge = 0, multiplicity = 1:

    H            1.095321450569     0.072971406267     1.832048040108
    C            0.622984434366    -0.480387498377     1.042825994542
    C            0.598289907247    -1.864721835460     1.045175829528
    C            0.033187852412     0.182033175090    -0.013322345660
    H            1.047706198933    -2.403349447944     1.858757958244
    C           -0.003118721034    -2.550689368568     0.001485997498
    N           -0.002917938212     1.640153724562     0.011708371858
    C           -0.606037019822    -0.474944544101    -1.044291482631
    H           -0.012644128965    -3.625372841029     0.004045696787
    C           -0.599539489652    -1.859055641282    -1.042002270077
    O            1.043721175402     2.211396928006     0.053798295992
    O           -1.073641508873     2.161150818533    -0.058041591648
    H           -1.089228082071     0.081993163651    -1.823970364449
    H           -1.070694572024    -2.394079497301    -1.845621712312

  Mulliken Charges: (a.u.)
   Center  Symbol    Alpha    Beta     Spin     Total
       1     H     0.37404  0.37404  0.00000  0.25192
       2     C     3.08749  3.08749  0.00000 -0.17498
       3     C     3.10477  3.10477  0.00000 -0.20954
       4     C     2.90207  2.90207  0.00000  0.19585
       5     H     0.38852  0.38852  0.00000  0.22295
       6     C     3.09118  3.09118  0.00000 -0.18237
       7     N     3.25757  3.25757  0.00000  0.48485
       8     C     3.08616  3.08616  0.00000 -0.17232
       9     H     0.38979  0.38979  0.00000  0.22041
      10     C     3.10540  3.10540  0.00000 -0.21080
      11     O     4.22464  4.22464  0.00000 -0.44927
      12     O     4.22605  4.22605  0.00000 -0.45210
      13     H     0.37383  0.37383  0.00000  0.25234
      14     H     0.38847  0.38847  0.00000  0.22305

   Total alpha = 32.00000, Total beta = 32.00000, Total charge =  0.00000
