                              Psi4 1.0.54 Driver

  ==> Input File <==

--------------------------------------------------------------------------
set {
	reference rhf
	basis cc-pvtz
}

set_num_threads( 4 )
memory 2 gb

molecule MOL {
0 1

H	 -2.698799	 -0.000846	 0.036018
C	 -1.694291	 -0.000483	 0.434279
O	 -0.828718	 -0.000608	 -0.655022
H	 -1.576855	 0.881100	 1.056504
H	 -1.576401	 -0.881658	 1.057001
C	 0.557892	 0.000078	 -0.420099
C	 1.078569	 -1.364653	 0.016566
C	 1.349693	 0.574761	 -1.589304
H	 0.666678	 0.678141	 0.417167
H	 0.471404	 -1.759780	 0.821727
H	 2.097975	 -1.272182	 0.372947
H	 1.080848	 -2.081731	 -0.796070
H	 0.930612	 1.524640	 -1.897760
H	 2.378998	 0.737641	 -1.291353
H	 1.359069	 -0.090803	 -2.444569

	symmetry c1
}
set optking {
	frozen_dihedral = ("
		9 6 3 2
	")
}

ee,wfn = optimize('scf', return_wfn=True)
oeprop( wfn, 'DIPOLE', 'QUADRUPOLE', 'MULLIKEN_CHARGES')
f=open( 'psi4out.xyz', 'w' )
f.write( "15  " )
f.write( str(ee) + "\n" )
f.write( MOL.save_string_xyz() )
f.close()
--------------------------------------------------------------------------

    Molecular point group: c1
  Charge       = 0
  Multiplicity = 1
  Basis Set: CC-PVTZ
  Basis Set:
  @DF-RHF Final Energy:  -232.22595088028538
    Total Energy =                       -232.2259508802852679
    Molecular point group: c1
  Basis Set: CC-PVTZ
  Basis Set:
  Basis Set: CC-PVTZ
  Basis Set:
  @DF-RHF Final Energy:  -231.18278456823498
    Total Energy =                       -231.1827845682350642
  Basis Set: CC-PVTZ
  Basis Set:
  Basis Set: CC-PVTZ
  Basis Set:
  @DF-RHF Final Energy:  -231.36359130021370
    Total Energy =                       -231.3635913002138409
  Basis Set: CC-PVTZ
  Basis Set:
  Basis Set: CC-PVTZ
  Basis Set:
  @DF-RHF Final Energy:  -231.71090137891215
    Total Energy =                       -231.7109013789121832
  Basis Set: CC-PVTZ
  Basis Set:
  @DF-RHF Final Energy:  -231.99558603849133
    Total Energy =                       -231.9955860384914104
  @DF-RHF Final Energy:  -232.16861146039889
    Total Energy =                       -232.1686114603988358
  @DF-RHF Final Energy:  -232.21906343754634
    Total Energy =                       -232.2190634375463674
  @DF-RHF Final Energy:  -232.22957090664505
    Total Energy =                       -232.2295709066449945
  @DF-RHF Final Energy:  -232.22993846797556
    Total Energy =                       -232.2299384679756713
  Basis Set: CC-PVTZ
  Basis Set:
  @DF-RHF Final Energy:  -232.23001309600460
    Total Energy =                       -232.2300130960044271
  Basis Set: CC-PVTZ
  Basis Set:
  Basis Set: CC-PVTZ
  Basis Set:
  @DF-RHF Final Energy:  -232.23002021649913
    Total Energy =                       -232.2300202164992697
  Basis Set: CC-PVTZ
  Basis Set:
  Basis Set: CC-PVTZ
  Basis Set:
  @DF-RHF Final Energy:  -232.23002151588281
    Total Energy =                       -232.2300215158828109
  Basis Set: CC-PVTZ
  Basis Set:
  Charge       = 0
  Multiplicity = 1
  Basis Set: CC-PVTZ
  Basis Set:

    Orbital Energies (a.u.)
    -----------------------

    Doubly Occupied:

       1A    -20.544179     2A    -11.272786     3A    -11.260873
       4A    -11.207270     5A    -11.204607     6A     -1.378365
       7A     -1.053778     8A     -0.941434     9A     -0.916467
      10A     -0.794153    11A     -0.674196    12A     -0.640391
      13A     -0.639015    14A     -0.588091    15A     -0.550493
      16A     -0.541956    17A     -0.531016    18A     -0.499011
      19A     -0.490908    20A     -0.456411    21A     -0.410797

  @DF-RHF Final Energy:  -232.23002170772494

   => Energetics <=

    Nuclear Repulsion Energy =            197.5844327924270658
    One-Electron Energy =                -706.4365194282818265
    Two-Electron Energy =                 276.6220649281297597
    DFT Exchange-Correlation Energy =       0.0000000000000000
    Empirical Dispersion Energy =           0.0000000000000000
    PCM Polarization Energy =               0.0000000000000000
    EFP Energy =                            0.0000000000000000
    Total Energy =                       -232.2300217077250295
    Molecular point group: c1
  Basis Set: CC-PVTZ
  Basis Set:

  -Total Gradient:
     Atom            X                  Y                   Z
    ------   -----------------  -----------------  -----------------
       1        0.000003478127     0.000000160919     0.000002425365
       2        0.000134760849     0.000093041666     0.000043239173
       3       -0.000233812667    -0.000168187404    -0.000069372443
       4       -0.000003349351    -0.000005119880    -0.000009499686
       5        0.000007209973     0.000008894156    -0.000003532963
       6        0.000292522546     0.000130320726    -0.000050866746
       7       -0.000022831953     0.000028119520     0.000028658321
       8       -0.000028972707     0.000020884600     0.000032776971
       9       -0.000155212456    -0.000124840873     0.000045603940
      10       -0.000000751605     0.000014751518     0.000003260518
      11        0.000021722842     0.000003116479    -0.000001249397
      12       -0.000005878160    -0.000002355620    -0.000023619173
      13        0.000006748814     0.000005865076    -0.000003483486
      14       -0.000005954522    -0.000000246094     0.000003730311
      15       -0.000009679730    -0.000004404789     0.000001929297

  **** Optimization is complete! (in 13 steps) ****
    Final optimized geometry and variables:
    Molecular point group: c1

    Geometry (in Angstrom), charge = 0, multiplicity = 1:

    H           -1.967512412569     1.841879700904     0.740447630414
    C           -1.354887846358     0.986220485843     0.985966802500
    O           -0.485684823530     0.775160412873    -0.076954327282
    H           -0.813437386811     1.199509238994     1.905096712389
    H           -2.009137023312     0.137368305711     1.162181824199
    C            0.464094336037    -0.245299686051     0.084618767084
    C           -0.141068213617    -1.619697632870    -0.174727728851
    C            1.607633067603     0.058199100671    -0.866234037764
    H            0.840678420610    -0.215595500966     1.106633069153
    H           -0.950338459511    -1.837487954940     0.510850743235
    H            0.609697886870    -2.392433280428    -0.053961901103
    H           -0.529097536720    -1.672472374509    -1.185488148926
    H            2.030306131712     1.030770465591    -0.649453770887
    H            2.389476718709    -0.687243990693    -0.777780145909
    H            1.251923513237     0.063825599423    -1.889930541134

  Mulliken Charges: (a.u.)
   Center  Symbol    Alpha    Beta     Spin     Total
       1     H     0.44605  0.44605  0.00000  0.10789
       2     C     3.03556  3.03556  0.00000 -0.07112
       3     O     4.18350  4.18350  0.00000 -0.36701
       4     H     0.47146  0.47146  0.00000  0.05708
       5     H     0.47133  0.47133  0.00000  0.05733
       6     C     2.91986  2.91986  0.00000  0.16028
       7     C     3.14809  3.14809  0.00000 -0.29619
       8     C     3.14050  3.14050  0.00000 -0.28100
       9     H     0.46867  0.46867  0.00000  0.06266
      10     H     0.45180  0.45180  0.00000  0.09639
      11     H     0.45247  0.45247  0.00000  0.09507
      12     H     0.45182  0.45182  0.00000  0.09637
      13     H     0.44792  0.44792  0.00000  0.10416
      14     H     0.45859  0.45859  0.00000  0.08283
      15     H     0.45238  0.45238  0.00000  0.09524

   Total alpha = 21.00000, Total beta = 21.00000, Total charge = -0.00000

*** Psi4 exiting successfully. Buy a developer a beer!
