                              Psi4 1.0.54 Driver

  ==> Input File <==

--------------------------------------------------------------------------
set {
	reference rhf
	basis cc-pvtz
}

set_num_threads( 4 )
memory 2 gb

molecule MOL {
0 1

H	 -2.012661	 0.217101	 -0.214078
N	 -1.173824	 -0.310545	 -0.096857
C	 -0.022588	 0.563366	 0.065815
H	 -1.298758	 -0.888307	 0.708249
C	 1.270420	 -0.230572	 -0.014245
H	 -0.045354	 1.293678	 -0.735129
H	 -0.043155	 1.123061	 1.001180
H	 1.336273	 -0.754933	 -0.959364
H	 2.130728	 0.422015	 0.082222
H	 1.323344	 -0.967006	 0.781773

	symmetry c1
}
set optking {
	frozen_dihedral = ("
		1 2 3 6
	")
}

ee,wfn = optimize('scf', return_wfn=True)
oeprop( wfn, 'DIPOLE', 'QUADRUPOLE', 'MULLIKEN_CHARGES')
f=open( 'psi4out.xyz', 'w' )
f.write( "10  " )
f.write( str(ee) + "\n" )
f.write( MOL.save_string_xyz() )
f.close()
--------------------------------------------------------------------------

    Molecular point group: c1
  Charge       = 0
  Multiplicity = 1
  Basis Set: CC-PVTZ
  Basis Set:
  @DF-RHF Final Energy:  -134.30464072958111
    Total Energy =                       -134.3046407295810809
    Molecular point group: c1
  Basis Set: CC-PVTZ
  Basis Set:
  Basis Set: CC-PVTZ
  Basis Set:
  @DF-RHF Final Energy:  -134.30465936294826
    Total Energy =                       -134.3046593629482004
  Basis Set: CC-PVTZ
  Basis Set:
  Charge       = 0
  Multiplicity = 1
  Basis Set: CC-PVTZ
  Basis Set:

    Orbital Energies (a.u.)
    -----------------------

    Doubly Occupied:

       1A    -15.526684     2A    -11.241007     3A    -11.203972
       4A     -1.177524     5A     -0.988232     6A     -0.823763
       7A     -0.665965     8A     -0.630525     9A     -0.580992
      10A     -0.516054    11A     -0.511519    12A     -0.486392
      13A     -0.384116

  @DF-RHF Final Energy:  -134.30466193431681

   => Energetics <=

    Nuclear Repulsion Energy =             83.4221963163283533
    One-Electron Energy =                -345.9802287604140929
    Two-Electron Energy =                 128.2533705097689563
    DFT Exchange-Correlation Energy =       0.0000000000000000
    Empirical Dispersion Energy =           0.0000000000000000
    PCM Polarization Energy =               0.0000000000000000
    EFP Energy =                            0.0000000000000000
    Total Energy =                       -134.3046619343167549
    Molecular point group: c1
  Basis Set: CC-PVTZ
  Basis Set:

  -Total Gradient:
     Atom            X                  Y                   Z
    ------   -----------------  -----------------  -----------------
       1        0.000117600637     0.000062813546    -0.001060181188
       2       -0.000336883263     0.000047225154     0.001365076510
       3        0.000823159829    -0.000593388134    -0.000829547618
       4        0.000009608274    -0.000027491744     0.000033971321
       5        0.000012663381    -0.000074162337    -0.000022586629
       6       -0.000566941007     0.000540364195     0.000596689206
       7       -0.000046629537     0.000017588127    -0.000057941361
       8        0.000005659406    -0.000025231867    -0.000007911794
       9        0.000000733027     0.000036264722     0.000001316551
      10       -0.000018970747     0.000016018338    -0.000018884998

  **** Optimization is complete! (in 3 steps) ****
    Final optimized geometry and variables:
    Molecular point group: c1

    Geometry (in Angstrom), charge = 0, multiplicity = 1:

    H           -2.013594483007     0.217319469019    -0.204520684724
    N           -1.174460288860    -0.310109314496    -0.092555610039
    C           -0.019988325197     0.560600558967     0.063965660949
    H           -1.292786735996    -0.901327127873     0.703091679060
    C            1.272741447737    -0.234059840129    -0.012423576784
    H           -0.046526963082     1.291005721109    -0.736505231941
    H           -0.040293125787     1.125550748728     0.996257017333
    H            1.341105230046    -0.758134994700    -0.957420618867
    H            2.133535281472     0.417674472146     0.088563224122
    H            1.320606612970    -0.971385248813     0.782831914047

  Mulliken Charges: (a.u.)
   Center  Symbol    Alpha    Beta     Spin     Total
       1     H     0.42850  0.42850  0.00000  0.14300
       2     N     3.69141  3.69141  0.00000 -0.38282
       3     C     3.02067  3.02067  0.00000 -0.04135
       4     H     0.42983  0.42983  0.00000  0.14033
       5     C     3.13657  3.13657  0.00000 -0.27314
       6     H     0.45753  0.45753  0.00000  0.08494
       7     H     0.46904  0.46904  0.00000  0.06192
       8     H     0.45019  0.45019  0.00000  0.09962
       9     H     0.45658  0.45658  0.00000  0.08685
      10     H     0.45967  0.45967  0.00000  0.08066

   Total alpha = 13.00000, Total beta = 13.00000, Total charge = -0.00000

*** Psi4 exiting successfully. Buy a developer a beer!
