  ==> Input File <==

--------------------------------------------------------------------------
set {
	reference rhf
	basis 6-31G*
}

set_num_threads( 1 )
memory 2 gb

molecule MOL {
0 1

H	 -3.301617	 0.570527	 0.000000
C	 -2.250981	 0.344174	 0.000000
C	 -1.813665	 -0.976045	 0.000000
C	 -1.315303	 1.358057	 0.000000
H	 -2.528860	 -1.779366	 0.000000
C	 -0.467298	 -1.270142	 0.000000
H	 -1.635074	 2.385107	 0.000000
C	 0.047081	 1.078114	 0.000000
H	 -0.115948	 -2.285222	 0.000000
C	 0.472063	 -0.241155	 0.000000
H	 0.749976	 1.888426	 0.000000
O	 1.765256	 -0.628444	 0.000000
C	 2.604306	 -0.246200	 -1.051170
H	 2.253200	 -0.635131	 -2.001322
H	 3.573791	 -0.668267	 -0.832610
H	 2.692957	 0.833256	 -1.116346

	symmetry c1
}
set optking {
	frozen_dihedral = ("
		10 12 13 14
	")
}

ee = energy('scf')
oeprop('DIPOLE', 'QUADRUPOLE', 'MULLIKEN_CHARGES')
f=open( 'psi4out.xyz', 'w' )
f.write( "16  " )
f.write( str(ee) + "\n" )
f.write( MOL.save_string_xyz() )
f.close()
--------------------------------------------------------------------------

    Molecular point group: c1

    Geometry (in Angstrom), charge = 0, multiplicity = 1:

       Center              X                  Y                   Z               Mass
    ------------   -----------------  -----------------  -----------------  -----------------
           H         -3.276178620988     0.655468076209     0.153577741178     1.007825032070
           C         -2.225542620988     0.429115076209     0.153577741178    12.000000000000
           C         -1.788226620988    -0.891103923791     0.153577741178    12.000000000000
           C         -1.289864620988     1.442998076209     0.153577741178    12.000000000000
           H         -2.503421620988    -1.694424923791     0.153577741178     1.007825032070
           C         -0.441859620988    -1.185200923791     0.153577741178    12.000000000000
           H         -1.609635620988     2.470048076209     0.153577741178     1.007825032070
           C          0.072519379012     1.163055076209     0.153577741178    12.000000000000
           H         -0.090509620988    -2.200280923791     0.153577741178     1.007825032070
           C          0.497501379012    -0.156213923791     0.153577741178    12.000000000000
           H          0.775414379012     1.973367076209     0.153577741178     1.007825032070
           O          1.790694379012    -0.543502923791     0.153577741178    15.994914619560
           C          2.629744379012    -0.161258923791    -0.897592258822    12.000000000000
           H          2.278638379012    -0.550189923791    -1.847744258822     1.007825032070
           H          3.599229379012    -0.583325923791    -0.679032258822     1.007825032070
           H          2.718395379012     0.918197076209    -0.962768258822     1.007825032070

  Charge       = 0
  Multiplicity = 1
  Basis Set: 6-31G*
  Basis Set:

    Orbital Energies (a.u.)
    -----------------------

    Doubly Occupied:

       1A    -20.573459     2A    -11.288596     3A    -11.277176
       4A    -11.232875     5A    -11.231069     6A    -11.226113
       7A    -11.223606     8A    -11.220795     9A     -1.406864
      10A     -1.146300    11A     -1.018923    12A     -1.014372
      13A     -0.936268    14A     -0.831798    15A     -0.805690
      16A     -0.716132    17A     -0.667238    18A     -0.663949
      19A     -0.642035    20A     -0.613373    21A     -0.593715
      22A     -0.582778    23A     -0.529624    24A     -0.508014
      25A     -0.505057    26A     -0.480265    27A     -0.440536
      28A     -0.334288    29A     -0.314606

  @DF-RHF Final Energy:  -344.57914734204718

   => Energetics <=

    Nuclear Repulsion Energy =            347.7342863956351380
    One-Electron Energy =               -1156.5756830608247583
    Two-Electron Energy =                 464.2622493231415888
    DFT Exchange-Correlation Energy =       0.0000000000000000
    Empirical Dispersion Energy =           0.0000000000000000
    PCM Polarization Energy =               0.0000000000000000
    EFP Energy =                            0.0000000000000000
    Total Energy =                       -344.5791473420480884

  Mulliken Charges: (a.u.)
   Center  Symbol    Alpha    Beta     Spin     Total
       1     H     0.39998  0.39998  0.00000  0.20003
       2     C     3.10727  3.10727  0.00000 -0.21454
       3     C     3.09556  3.09556  0.00000 -0.19112
       4     C     3.09519  3.09519  0.00000 -0.19038
       5     H     0.39923  0.39923  0.00000  0.20153
       6     C     3.12149  3.12149  0.00000 -0.24297
       7     H     0.39940  0.39940  0.00000  0.20119
       8     C     3.12807  3.12807  0.00000 -0.25615
       9     H     0.39377  0.39377  0.00000  0.21246
      10     C     2.79471  2.79471  0.00000  0.41058
      11     H     0.39711  0.39711  0.00000  0.20579
      12     O     4.33096  4.33096  0.00000 -0.66191
      13     C     3.08193  3.08193  0.00000 -0.16385
      14     H     0.42154  0.42154  0.00000  0.15693
      15     H     0.40938  0.40938  0.00000  0.18124
      16     H     0.42442  0.42442  0.00000  0.15117

   Total alpha = 29.00000, Total beta = 29.00000, Total charge =  0.00000
