  ==> Input File <==

--------------------------------------------------------------------------
set {
	reference rhf
	basis 6-31G*
}

set_num_threads( 1 )
memory 2 gb

molecule MOL {
0 1

O	 -1.093133	 -4.362690	 -0.585361
C	 -0.486769	 -3.884080	 -1.495136
C	 -0.058928	 -2.427255	 -1.464805
C	 -0.087234	 -4.703905	 -2.701632
C	 1.191810	 -2.241436	 -0.590580
H	 -0.879353	 -1.852141	 -1.049533
H	 0.133668	 -2.064403	 -2.470425
C	 1.631333	 -0.777471	 -0.511575
H	 0.973651	 -2.628481	 0.398352
H	 2.009588	 -2.839925	 -0.989072
C	 2.915987	 -0.544314	 0.291766
H	 0.826165	 -0.184738	 -0.081343
H	 1.780981	 -0.401223	 -1.521471
C	 3.373361	 0.914346	 0.347591
H	 3.708709	 -1.142521	 -0.150311
H	 2.780642	 -0.921148	 1.303579
H	 3.506512	 1.320010	 -0.651625
H	 4.322697	 0.999599	 0.867103
H	 2.660624	 1.545032	 0.868198
H	 -0.613515	 -4.340810	 -3.580526
H	 -0.333153	 -5.744232	 -2.540296
H	 0.975765	 -4.602439	 -2.900483

	symmetry c1
}
set optking {
	frozen_dihedral = ("
		6 3 2 1,
		6 3 5 8,
		3 5 8 12
	")
}

ee = energy('scf')
oeprop('DIPOLE', 'QUADRUPOLE', 'MULLIKEN_CHARGES')
f=open( 'psi4out.xyz', 'w' )
f.write( "22  " )
f.write( str(ee) + "\n" )
f.write( MOL.save_string_xyz() )
f.close()
--------------------------------------------------------------------------

    Molecular point group: c1

    Geometry (in Angstrom), charge = 0, multiplicity = 1:

       Center              X                  Y                   Z               Mass
    ------------   -----------------  -----------------  -----------------  -----------------
           O         -2.024684032735    -2.112238942262     0.251161043724    15.994914619560
           C         -1.418320032735    -1.633628942262    -0.658613956276    12.000000000000
           C         -0.990479032735    -0.176803942262    -0.628282956276    12.000000000000
           C         -1.018785032735    -2.453453942262    -1.865109956276    12.000000000000
           C          0.260258967265     0.009015057738     0.245942043724    12.000000000000
           H         -1.810904032735     0.398310057738    -0.213010956276     1.007825032070
           H         -0.797883032735     0.186048057738    -1.633902956276     1.007825032070
           C          0.699781967265     1.472980057738     0.324947043724    12.000000000000
           H          0.042099967265    -0.378029942262     1.234874043724     1.007825032070
           H          1.078036967265    -0.589473942262    -0.152549956276     1.007825032070
           C          1.984435967265     1.706137057738     1.128288043724    12.000000000000
           H         -0.105386032735     2.065713057738     0.755179043724     1.007825032070
           H          0.849429967265     1.849228057738    -0.684948956276     1.007825032070
           C          2.441809967265     3.164797057738     1.184113043724    12.000000000000
           H          2.777157967265     1.107930057738     0.686211043724     1.007825032070
           H          1.849090967265     1.329303057738     2.140101043724     1.007825032070
           H          2.574960967265     3.570461057738     0.184897043724     1.007825032070
           H          3.391145967265     3.250050057738     1.703625043724     1.007825032070
           H          1.729072967265     3.795483057738     1.704720043724     1.007825032070
           H         -1.545066032735    -2.090358942262    -2.744003956276     1.007825032070
           H         -1.264704032735    -3.493780942262    -1.703773956276     1.007825032070
           H          0.044213967265    -2.351987942262    -2.063960956276     1.007825032070

  Charge       = 0
  Multiplicity = 1
  Basis Set: 6-31G*
  Basis Set:

    Orbital Energies (a.u.)
    -----------------------

    Doubly Occupied:

       1A    -20.547523     2A    -11.324713     3A    -11.230338
       4A    -11.229457     5A    -11.228348     6A    -11.222499
       7A    -11.220839     8A    -11.213214     9A     -1.393261
      10A     -1.095070    11A     -1.045273    12A     -1.001235
      13A     -0.939306    14A     -0.846736    15A     -0.797793
      16A     -0.732522    17A     -0.666009    18A     -0.646692
      19A     -0.631082    20A     -0.608168    21A     -0.592241
      22A     -0.583892    23A     -0.562200    24A     -0.551938
      25A     -0.531257    26A     -0.516380    27A     -0.497415
      28A     -0.485381    29A     -0.473096    30A     -0.469015
      31A     -0.460249    32A     -0.396558

  @DF-RHF Final Energy:  -348.09948990276501

   => Energetics <=

    Nuclear Repulsion Energy =            368.0319275707959719
    One-Electron Energy =               -1200.7835425275779926
    Two-Electron Energy =                 484.6521250540173469
    DFT Exchange-Correlation Energy =       0.0000000000000000
    Empirical Dispersion Energy =           0.0000000000000000
    PCM Polarization Energy =               0.0000000000000000
    EFP Energy =                            0.0000000000000000
    Total Energy =                       -348.0994899027647307

  Mulliken Charges: (a.u.)
   Center  Symbol    Alpha    Beta     Spin     Total
       1     O     4.26230  4.26230  0.00000 -0.52459
       2     C     2.73716  2.73716  0.00000  0.52567
       3     C     3.20020  3.20020  0.00000 -0.40040
       4     C     3.28958  3.28958  0.00000 -0.57916
       5     C     3.16200  3.16200  0.00000 -0.32400
       6     H     0.40106  0.40106  0.00000  0.19789
       7     H     0.41680  0.41680  0.00000  0.16639
       8     C     3.15075  3.15075  0.00000 -0.30150
       9     H     0.40527  0.40527  0.00000  0.18946
      10     H     0.42100  0.42100  0.00000  0.15801
      11     C     3.15215  3.15215  0.00000 -0.30429
      12     H     0.42049  0.42049  0.00000  0.15903
      13     H     0.42420  0.42420  0.00000  0.15161
      14     C     3.23982  3.23982  0.00000 -0.47964
      15     H     0.42333  0.42333  0.00000  0.15334
      16     H     0.42057  0.42057  0.00000  0.15886
      17     H     0.42183  0.42183  0.00000  0.15633
      18     H     0.41787  0.41787  0.00000  0.16426
      19     H     0.42004  0.42004  0.00000  0.15991
      20     H     0.40689  0.40689  0.00000  0.18622
      21     H     0.39702  0.39702  0.00000  0.20597
      22     H     0.40968  0.40968  0.00000  0.18064

   Total alpha = 32.00000, Total beta = 32.00000, Total charge = -0.00000
