  ==> Input File <==

--------------------------------------------------------------------------
set {
	reference rhf
	basis 6-31G*
}

set_num_threads( 1 )
memory 2 gb

molecule MOL {
0 1

H	 3.463771	 0.168298	 -0.756243
C	 2.752674	 -0.045734	 0.033351
C	 1.322923	 0.120767	 -0.479465
H	 2.934561	 -1.059086	 0.377456
H	 2.958358	 0.631174	 0.856809
C	 0.306652	 -0.176050	 0.621399
H	 1.144658	 -0.551717	 -1.312180
H	 1.166477	 1.131798	 -0.836680
N	 -1.068537	 -0.011044	 0.085269
H	 0.372515	 -1.192590	 0.973735
H	 0.391664	 0.520566	 1.441230
O	 -1.929890	 -0.683816	 0.561526
O	 -1.210393	 0.763964	 -0.810981

	symmetry c1
}
set optking {
	frozen_dihedral = ("
		7 3 6 9
	")
}

ee = energy('scf')
oeprop('DIPOLE', 'QUADRUPOLE', 'MULLIKEN_CHARGES')
f=open( 'psi4out.xyz', 'w' )
f.write( "13  " )
f.write( str(ee) + "\n" )
f.write( MOL.save_string_xyz() )
f.close()
--------------------------------------------------------------------------

    Molecular point group: c1

    Geometry (in Angstrom), charge = 0, multiplicity = 1:

       Center              X                  Y                   Z               Mass
    ------------   -----------------  -----------------  -----------------  -----------------
           H          3.464614237302     0.173230205811    -0.756887446992     1.007825032070
           C          2.753517237302    -0.040801794189     0.032706553008    12.000000000000
           C          1.323766237302     0.125699205811    -0.480109446992    12.000000000000
           H          2.935404237302    -1.054153794189     0.376811553008     1.007825032070
           H          2.959201237302     0.636106205811     0.856164553008     1.007825032070
           C          0.307495237302    -0.171117794189     0.620754553008    12.000000000000
           H          1.145501237302    -0.546784794189    -1.312824446992     1.007825032070
           H          1.167320237302     1.136730205811    -0.837324446992     1.007825032070
           N         -1.067693762698    -0.006111794189     0.084624553008    14.003074004780
           H          0.373358237302    -1.187657794189     0.973090553008     1.007825032070
           H          0.392507237302     0.525498205811     1.440585553008     1.007825032070
           O         -1.929046762698    -0.678883794189     0.560881553008    15.994914619560
           O         -1.209549762698     0.768896205811    -0.811625446992    15.994914619560

  Charge       = 0
  Multiplicity = 1
  Basis Set: 6-31G*
  Basis Set:

    Orbital Energies (a.u.)
    -----------------------

    Doubly Occupied:

       1A    -20.602056     2A    -20.601635     3A    -15.848628
       4A    -11.300155     5A    -11.248461     6A    -11.235602
       7A     -1.632074     8A     -1.417894     9A     -1.133678
      10A     -1.026135    11A     -0.882870    12A     -0.825261
      13A     -0.762081    14A     -0.747013    15A     -0.726337
      16A     -0.659743    17A     -0.604533    18A     -0.581740
      19A     -0.549519    20A     -0.519222    21A     -0.510590
      22A     -0.483671    23A     -0.473300    24A     -0.449499

  @DF-RHF Final Energy:  -321.73369826523765

   => Energetics <=

    Nuclear Repulsion Energy =            248.1334413621949295
    One-Electron Energy =                -930.0909418510879050
    Two-Electron Energy =                 360.2238022236547295
    DFT Exchange-Correlation Energy =       0.0000000000000000
    Empirical Dispersion Energy =           0.0000000000000000
    PCM Polarization Energy =               0.0000000000000000
    EFP Energy =                            0.0000000000000000
    Total Energy =                       -321.7336982652382176

  Mulliken Charges: (a.u.)
   Center  Symbol    Alpha    Beta     Spin     Total
       1     H     0.40811  0.40811  0.00000  0.18377
       2     C     3.24874  3.24874  0.00000 -0.49749
       3     C     3.16834  3.16834  0.00000 -0.33668
       4     H     0.41719  0.41719  0.00000  0.16562
       5     H     0.41709  0.41709  0.00000  0.16581
       6     C     3.09113  3.09113  0.00000 -0.18225
       7     H     0.40593  0.40593  0.00000  0.18813
       8     H     0.39415  0.39415  0.00000  0.21171
       9     N     3.22121  3.22121  0.00000  0.55757
      10     H     0.38547  0.38547  0.00000  0.22906
      11     H     0.38540  0.38540  0.00000  0.22921
      12     O     4.22918  4.22918  0.00000 -0.45836
      13     O     4.22805  4.22805  0.00000 -0.45610

   Total alpha = 24.00000, Total beta = 24.00000, Total charge = -0.00000
