                              Psi4 1.0.54 Driver

  ==> Input File <==

--------------------------------------------------------------------------
set {
	reference rhf
	basis cc-pvtz
}

set_num_threads( 4 )
memory 2 gb

molecule MOL {
0 1

H	 -2.362939	 -1.309000	 -0.383250
C	 -1.359344	 -1.272457	 0.020748
C	 -0.684082	 0.000127	 -0.464918
H	 -0.825835	 -2.151141	 -0.318537
H	 -1.416276	 -1.292399	 1.099455
C	 -1.359089	 1.272668	 0.021259
N	 0.742439	 -0.000109	 0.007333
H	 -0.596914	 0.000345	 -1.538146
H	 -2.362696	 1.309620	 -0.382686
H	 -0.825392	 2.151374	 -0.317674
H	 -1.415983	 1.292181	 1.099973
O	 1.005865	 0.676092	 0.943818
O	 1.514688	 -0.676615	 -0.586183

	symmetry c1
}
set optking {
	frozen_dihedral = ("
		12 7 3 8
	")
}

ee,wfn = optimize('scf', return_wfn=True)
oeprop( wfn, 'DIPOLE', 'QUADRUPOLE', 'MULLIKEN_CHARGES')
f=open( 'psi4out.xyz', 'w' )
f.write( "13  " )
f.write( str(ee) + "\n" )
f.write( MOL.save_string_xyz() )
f.close()
--------------------------------------------------------------------------

    Molecular point group: c1
  Charge       = 0
  Multiplicity = 1
  Basis Set: CC-PVTZ
  Basis Set:
  @DF-RHF Final Energy:  -321.86316652972113
    Total Energy =                       -321.8631665297211839
    Molecular point group: c1
  Basis Set: CC-PVTZ
  Basis Set:
  Basis Set: CC-PVTZ
  Basis Set:
  @DF-RHF Final Energy:  -321.86242702962738
    Total Energy =                       -321.8624270296273835
  Basis Set: CC-PVTZ
  Basis Set:
  Basis Set: CC-PVTZ
  Basis Set:
  @DF-RHF Final Energy:  -321.86356031778337
    Total Energy =                       -321.8635603177834241
  Basis Set: CC-PVTZ
  Basis Set:
  Basis Set: CC-PVTZ
  Basis Set:
  @DF-RHF Final Energy:  -321.86363706935123
    Total Energy =                       -321.8636370693511708
  Basis Set: CC-PVTZ
  Basis Set:
  Basis Set: CC-PVTZ
  Basis Set:
  @DF-RHF Final Energy:  -321.86383586776850
    Total Energy =                       -321.8638358677687279
  Basis Set: CC-PVTZ
  Basis Set:
  Basis Set: CC-PVTZ
  Basis Set:
  @DF-RHF Final Energy:  -321.86386905080411
    Total Energy =                       -321.8638690508040554
  Basis Set: CC-PVTZ
  Basis Set:
  Basis Set: CC-PVTZ
  Basis Set:
  @DF-RHF Final Energy:  -321.86386679531915
    Total Energy =                       -321.8638667953192680
  Basis Set: CC-PVTZ
  Basis Set:
  Charge       = 0
  Multiplicity = 1
  Basis Set: CC-PVTZ
  Basis Set:

    Orbital Energies (a.u.)
    -----------------------

    Doubly Occupied:

       1A    -20.590871     2A    -20.586540     3A    -15.833089
       4A    -11.305172     5A    -11.244743     6A    -11.238315
       7A     -1.634109     8A     -1.418282     9A     -1.141781
      10A     -0.971911    11A     -0.957509    12A     -0.815935
      13A     -0.757817    14A     -0.731026    15A     -0.725630
      16A     -0.646677    17A     -0.593565    18A     -0.587743
      19A     -0.571229    20A     -0.528388    21A     -0.521761
      22A     -0.484875    23A     -0.471450    24A     -0.451532

  @DF-RHF Final Energy:  -321.86387131862006

   => Energetics <=

    Nuclear Repulsion Energy =            257.3777743894582386
    One-Electron Energy =                -948.8633895524901618
    Two-Electron Energy =                 369.6217438444117533
    DFT Exchange-Correlation Energy =       0.0000000000000000
    Empirical Dispersion Energy =           0.0000000000000000
    PCM Polarization Energy =               0.0000000000000000
    EFP Energy =                            0.0000000000000000
    Total Energy =                       -321.8638713186202267
    Molecular point group: c1
  Basis Set: CC-PVTZ
  Basis Set:

  -Total Gradient:
     Atom            X                  Y                   Z
    ------   -----------------  -----------------  -----------------
       1        0.000007688700    -0.000006543838     0.000001651247
       2       -0.000001691305    -0.000001271138     0.000006581001
       3        0.000004456136    -0.000892761724    -0.000183025891
       4       -0.000010155663     0.000001484249     0.000008164501
       5       -0.000000163053    -0.000001101032    -0.000030852174
       6       -0.000009602704     0.000018540116    -0.000007620126
       7       -0.000333648265    -0.000818338932     0.000893659335
       8        0.000088294632     0.000995549520    -0.000004459905
       9        0.000001633364     0.000010719416     0.000003162933
      10       -0.000003648856     0.000000452658     0.000001880016
      11        0.000003692686    -0.000008737316    -0.000008823196
      12        0.000218818008     0.000744260941    -0.000648417655
      13        0.000034326319    -0.000042252920    -0.000031900086

  **** Optimization is complete! (in 7 steps) ****
    Final optimized geometry and variables:
    Molecular point group: c1

    Geometry (in Angstrom), charge = 0, multiplicity = 1:

    H           -2.454054720926    -1.135561562079    -0.221227947139
    C           -1.421328131467    -1.167447926343     0.100033668273
    C           -0.702484391562     0.069671377850    -0.423205363394
    H           -0.967860457851    -2.070188298428    -0.281980218705
    H           -1.401753684455    -1.191391229719     1.182537823628
    C           -1.300443529983     1.373723702301     0.065635813875
    N            0.744921921587    -0.048323701713    -0.024486112784
    H           -0.663799274512     0.047796670295    -1.500947583524
    H           -2.306827130735     1.452548132077    -0.327032103459
    H           -0.730811596013     2.224172960239    -0.281926672354
    H           -1.344309465363     1.409476533338     1.144093195502
    O            1.138636719757     0.603799272276     0.881722160392
    O            1.400077717635    -0.814947919234    -0.649020907428

  Mulliken Charges: (a.u.)
   Center  Symbol    Alpha    Beta     Spin     Total
       1     H     0.44866  0.44866  0.00000  0.10269
       2     C     3.14337  3.14337  0.00000 -0.28673
       3     C     3.00746  3.00746  0.00000 -0.01491
       4     H     0.43411  0.43411  0.00000  0.13178
       5     H     0.44440  0.44440  0.00000  0.11119
       6     C     3.14325  3.14325  0.00000 -0.28649
       7     N     3.27432  3.27432  0.00000  0.45135
       8     H     0.42716  0.42716  0.00000  0.14569
       9     H     0.45019  0.45019  0.00000  0.09962
      10     H     0.43958  0.43958  0.00000  0.12084
      11     H     0.44035  0.44035  0.00000  0.11930
      12     O     4.17154  4.17154  0.00000 -0.34308
      13     O     4.17563  4.17563  0.00000 -0.35126

   Total alpha = 24.00000, Total beta = 24.00000, Total charge =  0.00000

*** Psi4 exiting successfully. Buy a developer a beer!
