  ==> Input File <==

--------------------------------------------------------------------------
set {
	reference rhf
	basis 6-31G*
}

set_num_threads( 4 )
memory 2 gb

molecule MOL {
0 1

H	 -2.742300	 -0.734861	 -0.629368
O	 -2.315789	 -0.143634	 -0.024262
C	 -0.945151	 -0.064130	 -0.333158
H	 -0.813375	 -0.223047	 -1.403232
C	 -0.232801	 -1.184051	 0.407206
C	 -0.355424	 1.302939	 0.054523
H	 -0.318824	 -0.992899	 1.473524
H	 -0.742411	 -2.122033	 0.217954
C	 1.248522	 -1.270719	 -0.013048
H	 -0.546144	 2.018388	 -0.742941
H	 -0.890929	 1.656788	 0.930149
C	 1.156425	 1.235120	 0.355905
H	 1.825384	 -1.683246	 0.809111
H	 1.357782	 -1.965923	 -0.840362
C	 1.828244	 0.099899	 -0.419275
H	 1.626109	 2.185622	 0.123525
H	 1.309438	 1.071213	 1.419539
H	 2.901447	 0.112642	 -0.255830
H	 1.681817	 0.263413	 -1.484607

	symmetry c1
}
set optking {
	frozen_dihedral = ("
		1 2 3 4
	")
}

ee = optimize('scf')
oeprop('DIPOLE', 'QUADRUPOLE', 'MULLIKEN_CHARGES')
f=open( 'psi4out.xyz', 'w' )
f.write( "19  " )
f.write( str(ee) + "\n" )
f.write( MOL.save_string_xyz() )
f.close()
--------------------------------------------------------------------------

    Molecular point group: c1
  Charge       = 0
  Multiplicity = 1
  Basis Set: 6-31G*
  Basis Set:
  @DF-RHF Final Energy:  -309.04651797587826
    Total Energy =                       -309.0465179758780323
    Molecular point group: c1
  Basis Set: 6-31G*
  Basis Set:
  Basis Set: 6-31G*
  Basis Set:
  @DF-RHF Final Energy:  -309.04776935832371
    Total Energy =                       -309.0477693583237624
  Basis Set: 6-31G*
  Basis Set:
  Basis Set: 6-31G*
  Basis Set:
  @DF-RHF Final Energy:  -309.04799393941391
    Total Energy =                       -309.0479939394138000
  Basis Set: 6-31G*
  Basis Set:
  Basis Set: 6-31G*
  Basis Set:
  @DF-RHF Final Energy:  -309.04799888533677
    Total Energy =                       -309.0479988853365967
  Basis Set: 6-31G*
  Basis Set:
  Charge       = 0
  Multiplicity = 1
  Basis Set: 6-31G*
  Basis Set:

    Orbital Energies (a.u.)
    -----------------------

    Doubly Occupied:

       1A    -20.549909     2A    -11.269921     3A    -11.216143
       4A    -11.215049     5A    -11.213705     6A    -11.209416
       7A    -11.208188     8A     -1.358361     9A     -1.107587
      10A     -1.000276    11A     -0.987914    12A     -0.843968
      13A     -0.830503    14A     -0.731030    15A     -0.710925
      16A     -0.653478    17A     -0.619949    18A     -0.600422
      19A     -0.562814    20A     -0.543363    21A     -0.534731
      22A     -0.517906    23A     -0.497222    24A     -0.485797
      25A     -0.464489    26A     -0.448804    27A     -0.429932
      28A     -0.406501

  @DF-RHF Final Energy:  -309.04799953077600

   => Energetics <=

    Nuclear Repulsion Energy =            331.2130851204335613
    One-Electron Energy =               -1076.0855660369952602
    Two-Electron Energy =                 435.8244813857860436
    DFT Exchange-Correlation Energy =       0.0000000000000000
    Empirical Dispersion Energy =           0.0000000000000000
    PCM Polarization Energy =               0.0000000000000000
    EFP Energy =                            0.0000000000000000
    Total Energy =                       -309.0479995307756553
    Molecular point group: c1
  Basis Set: 6-31G*
  Basis Set:

  -Total Gradient:
     Atom            X                  Y                   Z
    ------   -----------------  -----------------  -----------------
       1       -0.000271658763     0.001526271748    -0.001229873970
       2        0.000337838677    -0.002326516055     0.001559987321
       3       -0.000114902132     0.002514238836    -0.000554974394
       4        0.000041588436    -0.001682983091     0.000291713369
       5       -0.000029899562     0.000007720359    -0.000027652143
       6        0.000023215072     0.000001903615    -0.000025286806
       7       -0.000000637718     0.000000105369    -0.000007014784
       8       -0.000005540784    -0.000002114113    -0.000001363290
       9        0.000023374628     0.000010608248    -0.000000519083
      10       -0.000004198308     0.000014540244    -0.000002012338
      11       -0.000014668346    -0.000037907420    -0.000007694387
      12        0.000004347713     0.000011304505    -0.000013896470
      13        0.000021194959    -0.000002734437     0.000009490625
      14        0.000005846813     0.000005524334     0.000010271120
      15       -0.000009822902    -0.000024226111     0.000002814247
      16       -0.000003167737    -0.000001742223     0.000000967519
      17       -0.000003296739    -0.000000496795     0.000000769512
      18        0.000001633923    -0.000020171676    -0.000005942084
      19       -0.000001247218     0.000006674665     0.000000216036

  **** Optimization is complete! (in 5 steps) ****
    Final optimized geometry and variables:
    Molecular point group: c1

    Geometry (in Angstrom), charge = 0, multiplicity = 1:

    H           -2.793283227029    -0.621405557981    -0.611566789489
    O           -2.320794182396    -0.060127248951    -0.014572947969
    C           -0.946510536791    -0.075006773269    -0.330622093217
    H           -0.828095737025    -0.246668804542    -1.399650682551
    C           -0.216363370553    -1.191937629305     0.408308650503
    C           -0.366637431417     1.293989645889     0.041608589245
    H           -0.302762226485    -1.002345527470     1.474729618698
    H           -0.712005858402    -2.141160334027     0.224758935859
    C            1.265316053569    -1.266785677579    -0.014321068463
    H           -0.559389100530     1.992963738356    -0.766791626770
    H           -0.917747061526     1.656168781017     0.902862210989
    C            1.140640181459     1.235595599064     0.360713128773
    H            1.847180856854    -1.677976032081     0.805061729083
    H            1.380076804275    -1.957614777729    -0.844877886025
    C            1.831131411195     0.111708314049    -0.414482680283
    H            1.604150469766     2.191726640309     0.138828453160
    H            1.285532040333     1.067133494126     1.425043058438
    H            2.903495285707     0.135555205793    -0.246834485742
    H            1.686888346544     0.277146333075    -1.479962801623

  Mulliken Charges: (a.u.)
   Center  Symbol    Alpha    Beta     Spin     Total
       1     H     0.28165  0.28165  0.00000  0.43670
       2     O     4.37902  4.37902  0.00000 -0.75804
       3     C     2.91298  2.91298  0.00000  0.17405
       4     H     0.43070  0.43070  0.00000  0.13860
       5     C     3.16759  3.16759  0.00000 -0.33518
       6     C     3.16203  3.16203  0.00000 -0.32407
       7     H     0.41541  0.41541  0.00000  0.16917
       8     H     0.42130  0.42130  0.00000  0.15740
       9     C     3.16106  3.16106  0.00000 -0.32212
      10     H     0.41843  0.41843  0.00000  0.16313
      11     H     0.40758  0.40758  0.00000  0.18484
      12     C     3.16524  3.16524  0.00000 -0.33048
      13     H     0.41763  0.41763  0.00000  0.16473
      14     H     0.42024  0.42024  0.00000  0.15952
      15     C     3.16372  3.16372  0.00000 -0.32745
      16     H     0.41675  0.41675  0.00000  0.16651
      17     H     0.41957  0.41957  0.00000  0.16086
      18     H     0.41676  0.41676  0.00000  0.16649
      19     H     0.42234  0.42234  0.00000  0.15533

   Total alpha = 28.00000, Total beta = 28.00000, Total charge =  0.00000
