                              Psi4 1.0.54 Driver

  ==> Input File <==

--------------------------------------------------------------------------
set {
	reference rhf
	basis cc-pvtz
}

set_num_threads( 4 )
memory 2 gb

molecule MOL {
0 1

H	 2.557636	 -2.015311	 -1.612154
O	 2.123798	 -1.805435	 -0.798869
C	 1.354806	 -0.738092	 -0.996008
C	 0.626018	 -0.337582	 0.258241
O	 1.283279	 -0.200955	 -2.046822
C	 -0.267326	 0.883135	 0.076490
H	 0.067969	 -1.206516	 0.585951
H	 1.378668	 -0.163092	 1.020806
C	 -1.726822	 0.642622	 0.463839
H	 -0.210803	 1.217591	 -0.953497
H	 0.129920	 1.693110	 0.675679
C	 -2.480891	 -0.340606	 -0.429852
H	 -2.243098	 1.597649	 0.438609
H	 -1.776542	 0.301208	 1.495542
C	 -3.955933	 -0.460128	 -0.060472
H	 -2.393755	 -0.020485	 -1.464726
H	 -2.024244	 -1.323637	 -0.374360
H	 -4.467673	 -1.160944	 -0.709827
H	 -4.458917	 0.497287	 -0.144505
H	 -4.076458	 -0.806900	 0.960497

	symmetry c1
}
set optking {
	frozen_dihedral = ("
		7 4 6 10
	")
}

ee,wfn = optimize('scf', return_wfn=True)
oeprop( wfn, 'DIPOLE', 'QUADRUPOLE', 'MULLIKEN_CHARGES')
f=open( 'psi4out.xyz', 'w' )
f.write( "20  " )
f.write( str(ee) + "\n" )
f.write( MOL.save_string_xyz() )
f.close()
--------------------------------------------------------------------------

    Molecular point group: c1
  Charge       = 0
  Multiplicity = 1
  Basis Set: CC-PVTZ
  Basis Set:
  @DF-RHF Final Energy:  -384.09032598426376
    Total Energy =                       -384.0903259842636999
    Molecular point group: c1
  Basis Set: CC-PVTZ
  Basis Set:
  Basis Set: CC-PVTZ
  Basis Set:
  @DF-RHF Final Energy:  -384.09067980593704
    Total Energy =                       -384.0906798059372704
  Basis Set: CC-PVTZ
  Basis Set:
  Basis Set: CC-PVTZ
  Basis Set:
  @DF-RHF Final Energy:  -384.09072107171232
    Total Energy =                       -384.0907210717125508
  Basis Set: CC-PVTZ
  Basis Set:
  Basis Set: CC-PVTZ
  Basis Set:
  @DF-RHF Final Energy:  -384.09069131037023
    Total Energy =                       -384.0906913103702891
  Basis Set: CC-PVTZ
  Basis Set:
  Basis Set: CC-PVTZ
  Basis Set:
  @DF-RHF Final Energy:  -384.09082764316781
    Total Energy =                       -384.0908276431676995
  Basis Set: CC-PVTZ
  Basis Set:
  Basis Set: CC-PVTZ
  Basis Set:
  @DF-RHF Final Energy:  -384.09082526396355
    Total Energy =                       -384.0908252639633247
  Basis Set: CC-PVTZ
  Basis Set:
  Basis Set: CC-PVTZ
  Basis Set:
  @DF-RHF Final Energy:  -384.09083706622329
    Total Energy =                       -384.0908370662236848
  Basis Set: CC-PVTZ
  Basis Set:
  Charge       = 0
  Multiplicity = 1
  Basis Set: CC-PVTZ
  Basis Set:

    Orbital Energies (a.u.)
    -----------------------

    Doubly Occupied:

       1A    -20.604158     2A    -20.541245     3A    -11.374260
       4A    -11.238897     5A    -11.219420     6A    -11.217119
       7A    -11.215141     8A    -11.208327     9A     -1.478140
      10A     -1.369460    11A     -1.094929    12A     -1.039552
      13A     -0.961907    14A     -0.870492    15A     -0.814743
      16A     -0.778146    17A     -0.704686    18A     -0.694933
      19A     -0.664091    20A     -0.634239    21A     -0.606528
      22A     -0.594182    23A     -0.577010    24A     -0.556509
      25A     -0.532119    26A     -0.514458    27A     -0.495863
      28A     -0.484997    29A     -0.469352    30A     -0.466116
      31A     -0.453994    32A     -0.448575

  @DF-RHF Final Energy:  -384.09083770196997

   => Energetics <=

    Nuclear Repulsion Energy =            382.1683846813894547
    One-Electron Energy =               -1280.6712775201644945
    Two-Electron Energy =                 514.4120551368050656
    DFT Exchange-Correlation Energy =       0.0000000000000000
    Empirical Dispersion Energy =           0.0000000000000000
    PCM Polarization Energy =               0.0000000000000000
    EFP Energy =                            0.0000000000000000
    Total Energy =                       -384.0908377019700310
    Molecular point group: c1
  Basis Set: CC-PVTZ
  Basis Set:

  -Total Gradient:
     Atom            X                  Y                   Z
    ------   -----------------  -----------------  -----------------
       1        0.000011360185    -0.000010639648     0.000014471183
       2       -0.000006426797     0.000005444777    -0.000102469848
       3       -0.000010525008     0.000042378084    -0.000003343859
       4       -0.000082425430    -0.000037729160     0.000011238476
       5        0.000059382229    -0.000071046019     0.000072962706
       6        0.000008725195     0.000005138767    -0.000003547613
       7        0.000025923838     0.000019271876    -0.000000994426
       8        0.000027086636     0.000015587032    -0.000000093999
       9        0.000005735754     0.000001763469     0.000023345970
      10       -0.000010425001     0.000018615421     0.000012203785
      11       -0.000014324641     0.000000688114    -0.000010820177
      12       -0.000008890992     0.000003235448    -0.000003614552
      13       -0.000014802874    -0.000016089953    -0.000006507933
      14        0.000001538673     0.000011225381     0.000004007766
      15       -0.000000456569     0.000008972906    -0.000004355274
      16       -0.000021963463    -0.000022755394     0.000017915940
      17       -0.000024517862     0.000031914660     0.000007848061
      18        0.000009621394     0.000011197324     0.000006678960
      19        0.000029455132    -0.000036302659     0.000005110869
      20        0.000015929606     0.000019129573    -0.000040036034

  **** Optimization is complete! (in 8 steps) ****
    Final optimized geometry and variables:
    Molecular point group: c1

    Geometry (in Angstrom), charge = 0, multiplicity = 1:

    H            2.909196590012    -1.822624122488    -0.988796758764
    O            2.471433568185    -1.539907050187    -0.200106577365
    C            1.707092645702    -0.492167725628    -0.496177212283
    C            0.971633238973     0.010109657916     0.719490534987
    O            1.645925559580    -0.052138980290    -1.591830546402
    C            0.089945767990     1.245130589937     0.481706274888
    H            0.398861798942    -0.830676193531     1.093377708304
    H            1.724911448273     0.198069247607     1.475387741806
    C           -1.375005110532     1.053203280951     0.879239153265
    H            0.145740205651     1.524799173658    -0.561362929999
    H            0.497064790168     2.076603399829     1.044472177884
    C           -2.151799123723     0.101930143741    -0.028753542596
    H           -1.864060097506     2.022816098137     0.864146605450
    H           -1.431970529781     0.702900784799     1.907713248933
    C           -3.608497081620    -0.061688022325     0.392316628145
    H           -2.108480393842     0.472716023186    -1.048374927951
    H           -1.676212624066    -0.874260960480    -0.043021713825
    H           -4.136459582899    -0.733263018850    -0.274654524792
    H           -4.127841352472     0.890686563309     0.381720677713
    H           -3.683516179040    -0.466082048499     1.396354313710

  Mulliken Charges: (a.u.)
   Center  Symbol    Alpha    Beta     Spin     Total
       1     H     0.38255  0.38255  0.00000  0.23490
       2     O     4.16038  4.16038  0.00000 -0.32076
       3     C     2.79782  2.79782  0.00000  0.40436
       4     C     3.12889  3.12889  0.00000 -0.25779
       5     O     4.19166  4.19166  0.00000 -0.38332
       6     C     3.10369  3.10369  0.00000 -0.20738
       7     H     0.43432  0.43432  0.00000  0.13135
       8     H     0.42589  0.42589  0.00000  0.14822
       9     C     3.09782  3.09782  0.00000 -0.19564
      10     H     0.43579  0.43579  0.00000  0.12843
      11     H     0.44274  0.44274  0.00000  0.11452
      12     C     3.08487  3.08487  0.00000 -0.16974
      13     H     0.44745  0.44745  0.00000  0.10510
      14     H     0.45445  0.45445  0.00000  0.09109
      15     C     3.15004  3.15004  0.00000 -0.30008
      16     H     0.44819  0.44819  0.00000  0.10363
      17     H     0.45601  0.45601  0.00000  0.08797
      18     H     0.44746  0.44746  0.00000  0.10507
      19     H     0.45420  0.45420  0.00000  0.09160
      20     H     0.45577  0.45577  0.00000  0.08846

   Total alpha = 32.00000, Total beta = 32.00000, Total charge = -0.00000

*** Psi4 exiting successfully. Buy a developer a beer!
