  ==> Input File <==

--------------------------------------------------------------------------
set {
	reference rhf
	basis 6-31G*
}

set_num_threads( 1 )
memory 2 gb

molecule MOL {
0 1

H	 2.176868	 -0.646004	 -0.217325
O	 1.337496	 -0.537251	 0.205931
C	 0.702312	 0.627605	 -0.264544
C	 -0.714990	 0.596302	 0.266387
H	 0.682322	 0.642550	 -1.350929
H	 1.215941	 1.520383	 0.085680
O	 -1.405996	 -0.526611	 -0.195820
H	 -1.257453	 1.468809	 -0.075599
H	 -0.688972	 0.618407	 1.353696
H	 -1.034634	 -1.289257	 0.229005

	symmetry c1
}
set optking {
	frozen_dihedral = ("
		5 3 4 7
	")
}

ee = energy('scf')
oeprop('DIPOLE', 'QUADRUPOLE', 'MULLIKEN_CHARGES')
f=open( 'psi4out.xyz', 'w' )
f.write( "10  " )
f.write( str(ee) + "\n" )
f.write( MOL.save_string_xyz() )
f.close()
--------------------------------------------------------------------------

    Molecular point group: c1

    Geometry (in Angstrom), charge = 0, multiplicity = 1:

       Center              X                  Y                   Z               Mass
    ------------   -----------------  -----------------  -----------------  -----------------
           H          2.179207813644    -0.646060486102    -0.220686884934     1.007825032070
           O          1.339835813644    -0.537307486102     0.202569115066    15.994914619560
           C          0.704651813644     0.627548513898    -0.267905884934    12.000000000000
           C         -0.712650186356     0.596245513898     0.263025115066    12.000000000000
           H          0.684661813644     0.642493513898    -1.354290884934     1.007825032070
           H          1.218280813644     1.520326513898     0.082318115066     1.007825032070
           O         -1.403656186356    -0.526667486102    -0.199181884934    15.994914619560
           H         -1.255113186356     1.468752513898    -0.078960884934     1.007825032070
           H         -0.686632186356     0.618350513898     1.350334115066     1.007825032070
           H         -1.032294186356    -1.289313486102     0.225643115066     1.007825032070

  Charge       = 0
  Multiplicity = 1
  Basis Set: 6-31G*
  Basis Set:

    Orbital Energies (a.u.)
    -----------------------

    Doubly Occupied:

       1A    -20.565129     2A    -20.549386     3A    -11.273242
       4A    -11.268366     5A     -1.378863     6A     -1.350296
       7A     -1.000938     8A     -0.840308     9A     -0.726235
      10A     -0.684730    11A     -0.639817    12A     -0.602051
      13A     -0.576026    14A     -0.524731    15A     -0.492489
      16A     -0.450381    17A     -0.432336

  @DF-RHF Final Energy:  -228.92482211421034

   => Energetics <=

    Nuclear Repulsion Energy =            134.4644455329336949
    One-Electron Energy =                -580.0679685077227532
    Two-Electron Energy =                 216.6787008605786582
    DFT Exchange-Correlation Energy =       0.0000000000000000
    Empirical Dispersion Energy =           0.0000000000000000
    PCM Polarization Energy =               0.0000000000000000
    EFP Energy =                            0.0000000000000000
    Total Energy =                       -228.9248221142103716

  Mulliken Charges: (a.u.)
   Center  Symbol    Alpha    Beta     Spin     Total
       1     H     0.27711  0.27711  0.00000  0.44578
       2     O     4.37742  4.37742  0.00000 -0.75484
       3     C     3.00563  3.00563  0.00000 -0.01125
       4     C     3.00278  3.00278  0.00000 -0.00556
       5     H     0.42316  0.42316  0.00000  0.15368
       6     H     0.43034  0.43034  0.00000  0.13932
       7     O     4.36933  4.36933  0.00000 -0.73866
       8     H     0.41655  0.41655  0.00000  0.16691
       9     H     0.42384  0.42384  0.00000  0.15231
      10     H     0.27385  0.27385  0.00000  0.45230

   Total alpha = 17.00000, Total beta = 17.00000, Total charge = -0.00000
