  ==> Input File <==

--------------------------------------------------------------------------
set {
	reference rhf
	basis cc-pvtz
}

set_num_threads( 4 )
memory 2 gb

molecule MOL {
0 1

H	 -0.939693	 0.000281	 1.681345
O	 -0.046262	 -0.000157	 1.387678
C	 -0.000837	 0.000006	 -0.025491
C	 0.016360	 1.439391	 -0.536396
C	 1.239235	 -0.756784	 -0.497334
C	 -1.269660	 -0.714398	 -0.470353
H	 0.014777	 1.471916	 -1.619786
H	 0.904478	 1.959869	 -0.190822
H	 -0.851245	 1.976466	 -0.174078
H	 1.282380	 -0.804703	 -1.579290
H	 2.144199	 -0.266510	 -0.151290
H	 1.233208	 -1.766946	 -0.107461
H	 -1.325946	 -0.765008	 -1.551352
H	 -2.143002	 -0.190352	 -0.103119
H	 -1.289949	 -1.722433	 -0.075805

	symmetry c1
}
set optking {
	frozen_dihedral = ("
		4 3 2 1
	")
}

ee = optimize('scf')
oeprop('DIPOLE', 'QUADRUPOLE', 'MULLIKEN_CHARGES')
f=open( 'psi4out.xyz', 'w' )
f.write( "15  " )
f.write( str(ee) + "\n" )
f.write( MOL.save_string_xyz() )
f.close()
--------------------------------------------------------------------------

    Molecular point group: c1
  Charge       = 0
  Multiplicity = 1
  Basis Set: CC-PVTZ
  Basis Set:
  @DF-RHF Final Energy:  -232.24370292129578
    Total Energy =                       -232.2437029212956645
    Molecular point group: c1
  Basis Set: CC-PVTZ
  Basis Set:
  Basis Set: CC-PVTZ
  Basis Set:
  @DF-RHF Final Energy:  -232.24539658270146
    Total Energy =                       -232.2453965827016873
  Basis Set: CC-PVTZ
  Basis Set:
  Basis Set: CC-PVTZ
  Basis Set:
  @DF-RHF Final Energy:  -232.24581202131262
    Total Energy =                       -232.2458120213126449
  Basis Set: CC-PVTZ
  Basis Set:
  Charge       = 0
  Multiplicity = 1
  Basis Set: CC-PVTZ
  Basis Set:

    Orbital Energies (a.u.)
    -----------------------

    Doubly Occupied:

       1A    -20.541269     2A    -11.280888     3A    -11.214183
       4A    -11.205124     5A    -11.203363     6A     -1.363963
       7A     -1.065439     8A     -0.945103     9A     -0.937590
      10A     -0.778537    11A     -0.672328    12A     -0.624299
      13A     -0.622761    14A     -0.576468    15A     -0.557490
      16A     -0.533480    17A     -0.517006    18A     -0.511341
      19A     -0.503811    20A     -0.458534    21A     -0.427678

  @DF-RHF Final Energy:  -232.24581205496483

   => Energetics <=

    Nuclear Repulsion Energy =            200.6359274807589657
    One-Electron Energy =                -712.6821705961726821
    Two-Electron Energy =                 279.8004310604487159
    DFT Exchange-Correlation Energy =       0.0000000000000000
    Empirical Dispersion Energy =           0.0000000000000000
    PCM Polarization Energy =               0.0000000000000000
    EFP Energy =                            0.0000000000000000
    Total Energy =                       -232.2458120549650289
    Molecular point group: c1
  Basis Set: CC-PVTZ
  Basis Set:

  -Total Gradient:
     Atom            X                  Y                   Z
    ------   -----------------  -----------------  -----------------
       1       -0.000092693624    -0.001907803580     0.000084844897
       2        0.000576483985     0.002316378500    -0.000364014776
       3       -0.001508665412    -0.000243390259    -0.000084703779
       4        0.001189208154    -0.000029854507     0.000109551647
       5        0.000035407053    -0.000005848420     0.000240993339
       6       -0.000062677464    -0.000091571758    -0.000074867088
       7       -0.000185936311    -0.000043977783     0.000047661018
       8        0.000041611837    -0.000182397022    -0.000006011821
       9        0.000013221271     0.000179061642     0.000040440579
      10       -0.000051705527    -0.000124466843    -0.000026031254
      11       -0.000105849148     0.000045958318    -0.000028155573
      12        0.000160336709     0.000000687449     0.000059770725
      13        0.000091170118     0.000088162157     0.000065627038
      14       -0.000126505907     0.000029597039    -0.000053038086
      15        0.000026594267    -0.000030534934    -0.000012066862

  **** Optimization is complete! (in 4 steps) ****
    Final optimized geometry and variables:
    Molecular point group: c1

    Geometry (in Angstrom), charge = 0, multiplicity = 1:

    H           -0.817925575420     0.048099727822     1.749967872053
    O            0.048812305369     0.015877186719     1.389087254265
    C           -0.003566263374     0.002468432837    -0.025456046587
    C            0.025467188588     1.442443892609    -0.533579156784
    C            1.244402818330    -0.746106102762    -0.477771797546
    C           -1.264403871863    -0.717894768296    -0.494729581836
    H            0.012121725830     1.478905925033    -1.617192054529
    H            0.919813169111     1.940621026492    -0.181904295331
    H           -0.832846549425     1.995525244098    -0.167075120468
    H            1.307207888454    -0.780882510501    -1.559345848111
    H            2.130469610547    -0.253429530889    -0.097836078263
    H            1.234484982565    -1.760046019326    -0.098033210771
    H           -1.304282653215    -0.765870564178    -1.575984767691
    H           -2.156207034793    -0.198193382602    -0.155737703694
    H           -1.290143718703    -1.729428348563    -0.106937840527

  Mulliken Charges: (a.u.)
   Center  Symbol    Alpha    Beta     Spin     Total
       1     H     0.39399  0.39399  0.00000  0.21202
       2     O     4.21318  4.21318  0.00000 -0.42636
       3     C     2.87883  2.87883  0.00000  0.24235
       4     C     3.14431  3.14431  0.00000 -0.28861
       5     C     3.14140  3.14140  0.00000 -0.28279
       6     C     3.15710  3.15710  0.00000 -0.31421
       7     H     0.45804  0.45804  0.00000  0.08392
       8     H     0.44824  0.44824  0.00000  0.10351
       9     H     0.45484  0.45484  0.00000  0.09033
      10     H     0.45927  0.45927  0.00000  0.08145
      11     H     0.44743  0.44743  0.00000  0.10513
      12     H     0.45075  0.45075  0.00000  0.09851
      13     H     0.45242  0.45242  0.00000  0.09516
      14     H     0.45470  0.45470  0.00000  0.09060
      15     H     0.44550  0.44550  0.00000  0.10900

   Total alpha = 21.00000, Total beta = 21.00000, Total charge =  0.00000
