                              Psi4 1.0.54 Driver

  ==> Input File <==

--------------------------------------------------------------------------
set {
	reference rhf
	basis cc-pvtz
}

set_num_threads( 4 )
memory 2 gb

molecule MOL {
0 1

H	 3.752474	 -0.852435	 0.325341
O	 2.842651	 -1.105787	 0.366951
C	 2.095451	 -0.017365	 0.204279
C	 0.626018	 -0.337582	 0.258241
O	 2.571354	 1.052398	 0.040072
C	 -0.267326	 0.883135	 0.076490
H	 0.443271	 -1.093038	 -0.496575
H	 0.441163	 -0.820609	 1.212677
C	 -1.726822	 0.642622	 0.463839
H	 -0.210803	 1.217591	 -0.953497
H	 0.129920	 1.693110	 0.675679
C	 -2.480891	 -0.340606	 -0.429852
H	 -2.243098	 1.597649	 0.438609
H	 -1.776542	 0.301208	 1.495542
C	 -3.955933	 -0.460128	 -0.060472
H	 -2.393755	 -0.020485	 -1.464726
H	 -2.024244	 -1.323637	 -0.374360
H	 -4.467673	 -1.160944	 -0.709827
H	 -4.458917	 0.497287	 -0.144505
H	 -4.076458	 -0.806900	 0.960497

	symmetry c1
}
set optking {
	frozen_dihedral = ("
		7 4 6 10
	")
}

ee,wfn = optimize('scf', return_wfn=True)
oeprop( wfn, 'DIPOLE', 'QUADRUPOLE', 'MULLIKEN_CHARGES')
f=open( 'psi4out.xyz', 'w' )
f.write( "20  " )
f.write( str(ee) + "\n" )
f.write( MOL.save_string_xyz() )
f.close()
--------------------------------------------------------------------------

    Molecular point group: c1
  Charge       = 0
  Multiplicity = 1
  Basis Set: CC-PVTZ
  Basis Set:
  @DF-RHF Final Energy:  -384.09467839309599
    Total Energy =                       -384.0946783930955917
    Molecular point group: c1
  Basis Set: CC-PVTZ
  Basis Set:
  Basis Set: CC-PVTZ
  Basis Set:
  @DF-RHF Final Energy:  -384.09463374417845
    Total Energy =                       -384.0946337441782248
  Basis Set: CC-PVTZ
  Basis Set:
  Basis Set: CC-PVTZ
  Basis Set:
  @DF-RHF Final Energy:  -384.09473862478455
    Total Energy =                       -384.0947386247848385
  Basis Set: CC-PVTZ
  Basis Set:
  Basis Set: CC-PVTZ
  Basis Set:
  @DF-RHF Final Energy:  -384.09472040245026
    Total Energy =                       -384.0947204024504344
  Basis Set: CC-PVTZ
  Basis Set:
  Basis Set: CC-PVTZ
  Basis Set:
  @DF-RHF Final Energy:  -384.09473328148238
    Total Energy =                       -384.0947332814824335
  Basis Set: CC-PVTZ
  Basis Set:
  Basis Set: CC-PVTZ
  Basis Set:
  @DF-RHF Final Energy:  -384.09474673362087
    Total Energy =                       -384.0947467336202408
  Basis Set: CC-PVTZ
  Basis Set:
  Charge       = 0
  Multiplicity = 1
  Basis Set: CC-PVTZ
  Basis Set:

    Orbital Energies (a.u.)
    -----------------------

    Doubly Occupied:

       1A    -20.603818     2A    -20.540513     3A    -11.373385
       4A    -11.238899     5A    -11.220861     6A    -11.218706
       7A    -11.218046     8A    -11.210553     9A     -1.477440
      10A     -1.368935    11A     -1.097587    12A     -1.042017
      13A     -0.962572    14A     -0.870181    15A     -0.818002
      16A     -0.777553    17A     -0.703729    18A     -0.692677
      19A     -0.667315    20A     -0.637496    21A     -0.604530
      22A     -0.596240    23A     -0.576843    24A     -0.555514
      25A     -0.543499    26A     -0.513281    27A     -0.496513
      28A     -0.484586    29A     -0.470469    30A     -0.468352
      31A     -0.458521    32A     -0.446513

  @DF-RHF Final Energy:  -384.09474684777433

   => Energetics <=

    Nuclear Repulsion Energy =            376.5889742082604243
    One-Electron Energy =               -1269.4571450846949574
    Two-Electron Energy =                 508.7734240286598038
    DFT Exchange-Correlation Energy =       0.0000000000000000
    Empirical Dispersion Energy =           0.0000000000000000
    PCM Polarization Energy =               0.0000000000000000
    EFP Energy =                            0.0000000000000000
    Total Energy =                       -384.0947468477747293
    Molecular point group: c1
  Basis Set: CC-PVTZ
  Basis Set:

  -Total Gradient:
     Atom            X                  Y                   Z
    ------   -----------------  -----------------  -----------------
       1        0.000005969920    -0.000002367940     0.000002102611
       2        0.000008884917     0.000002262402    -0.000006417319
       3       -0.000018387891    -0.000000668217    -0.000001173566
       4       -0.001711659009    -0.001069893216     0.001092831450
       5        0.000010749759    -0.000001002371     0.000008379097
       6        0.001806238738     0.001331578280     0.000222223902
       7        0.001123007377     0.000669397768    -0.000940012609
       8        0.000002467507     0.000003077524     0.000008870540
       9        0.000004408606    -0.000000252870    -0.000003444468
      10       -0.001230064833    -0.000936008189    -0.000376691118
      11       -0.000000800803    -0.000000431336    -0.000001669327
      12       -0.000003357177     0.000006038438    -0.000008705838
      13       -0.000000946652     0.000000867574    -0.000000688053
      14        0.000003647801     0.000000078758     0.000002450233
      15        0.000000517664    -0.000002270396     0.000004368535
      16        0.000000816816     0.000000078475    -0.000003831120
      17        0.000000498885     0.000001114268     0.000001011972
      18       -0.000000501767    -0.000002400147    -0.000000084345
      19        0.000000238942     0.000000472019    -0.000001611208
      20       -0.000001728790     0.000000329178     0.000002090634

  **** Optimization is complete! (in 7 steps) ****
    Final optimized geometry and variables:
    Molecular point group: c1

    Geometry (in Angstrom), charge = 0, multiplicity = 1:

    H            3.728875079423    -0.902283637528     0.178852329680
    O            2.816749935496    -1.144171212835     0.235677280507
    C            2.080390741934    -0.046941110067     0.081830174993
    C            0.607645891097    -0.351535052189     0.158451619518
    O            2.566942381289     1.016270064279    -0.093490334558
    C           -0.275523518969     0.878684672621    -0.018502679868
    H            0.414862651160    -1.101741767027    -0.599384871702
    H            0.432179799295    -0.833103904725     1.115055695393
    C           -1.740382637178     0.638414755267     0.349494052178
    H           -0.216626946080     1.214383386181    -1.048368308046
    H            0.118191312385     1.682318542820     0.589707543030
    C           -2.472778405749    -0.365161543653    -0.539415928937
    H           -2.261287961775     1.590075949422     0.300379508242
    H           -1.803951488086     0.313453238005     1.385728910509
    C           -3.951001221981    -0.496722053377    -0.187215131298
    H           -2.375952515821    -0.059143027073    -1.577862508600
    H           -2.004569531044    -1.341599029235    -0.463760722336
    H           -4.445677727781    -1.214879572927    -0.830841375415
    H           -4.464496906633     0.452799945637    -0.294275001610
    H           -4.080748593830    -0.827351330730     0.837978607654

  Mulliken Charges: (a.u.)
   Center  Symbol    Alpha    Beta     Spin     Total
       1     H     0.38234  0.38234  0.00000  0.23532
       2     O     4.16026  4.16026  0.00000 -0.32051
       3     C     2.80438  2.80438  0.00000  0.39123
       4     C     3.11345  3.11345  0.00000 -0.22690
       5     O     4.19081  4.19081  0.00000 -0.38163
       6     C     3.09362  3.09362  0.00000 -0.18724
       7     H     0.43604  0.43604  0.00000  0.12793
       8     H     0.43720  0.43720  0.00000  0.12560
       9     C     3.09941  3.09941  0.00000 -0.19883
      10     H     0.44754  0.44754  0.00000  0.10492
      11     H     0.43664  0.43664  0.00000  0.12673
      12     C     3.08663  3.08663  0.00000 -0.17325
      13     H     0.44573  0.44573  0.00000  0.10855
      14     H     0.45370  0.45370  0.00000  0.09259
      15     C     3.14958  3.14958  0.00000 -0.29915
      16     H     0.45296  0.45296  0.00000  0.09407
      17     H     0.45355  0.45355  0.00000  0.09290
      18     H     0.44779  0.44779  0.00000  0.10441
      19     H     0.45357  0.45357  0.00000  0.09287
      20     H     0.45480  0.45480  0.00000  0.09039

   Total alpha = 32.00000, Total beta = 32.00000, Total charge = -0.00000

*** Psi4 exiting successfully. Buy a developer a beer!
