  ==> Input File <==

--------------------------------------------------------------------------
set {
	reference rhf
	basis 6-31G*
}

set_num_threads( 4 )
memory 2 gb

molecule MOL {
0 1

H	 -0.367348	 2.047014	 -0.308205
C	 0.352277	 1.337084	 0.083769
N	 -0.000016	 0.000074	 -0.335546
H	 1.328359	 1.600444	 -0.307950
H	 0.381933	 1.450534	 1.172486
C	 0.789173	 -0.437255	 -1.464347
C	 0.055361	 -0.941532	 0.759200
H	 0.449443	 -1.412300	 -1.794834
H	 0.667157	 0.255880	 -2.289053
H	 1.857882	 -0.509486	 -1.237352
H	 -0.602330	 -0.616682	 1.557504
H	 -0.282629	 -1.915628	 0.424033
H	 1.061826	 -1.056263	 1.174885

	symmetry c1
}
set optking {
	frozen_dihedral = ("
		6 3 2 1
	")
}

ee = optimize('scf')
oeprop('DIPOLE', 'QUADRUPOLE', 'MULLIKEN_CHARGES')
f=open( 'psi4out.xyz', 'w' )
f.write( "13  " )
f.write( str(ee) + "\n" )
f.write( MOL.save_string_xyz() )
f.close()
--------------------------------------------------------------------------

    Molecular point group: c1
  Charge       = 0
  Multiplicity = 1
  Basis Set: 6-31G*
  Basis Set:
  @DF-RHF Final Energy:  -173.26255744647111
    Total Energy =                       -173.2625574464709928
    Molecular point group: c1
  Basis Set: 6-31G*
  Basis Set:
  Basis Set: 6-31G*
  Basis Set:
  @DF-RHF Final Energy:  -173.26344308638798
    Total Energy =                       -173.2634430863879516
  Basis Set: 6-31G*
  Basis Set:
  Basis Set: 6-31G*
  Basis Set:
  @DF-RHF Final Energy:  -173.26358821179642
    Total Energy =                       -173.2635882117963888
  Basis Set: 6-31G*
  Basis Set:
  Basis Set: 6-31G*
  Basis Set:
  @DF-RHF Final Energy:  -173.26359304172368
    Total Energy =                       -173.2635930417237091
  Basis Set: 6-31G*
  Basis Set:
  Charge       = 0
  Multiplicity = 1
  Basis Set: 6-31G*
  Basis Set:

    Orbital Energies (a.u.)
    -----------------------

    Doubly Occupied:

       1A    -15.541606     2A    -11.235418     3A    -11.235269
       4A    -11.235253     5A     -1.220696     6A     -0.951190
       7A     -0.949926     8A     -0.807241     9A     -0.638614
      10A     -0.628810    11A     -0.626014    12A     -0.551818
      13A     -0.545373    14A     -0.513918    15A     -0.500179
      16A     -0.497489    17A     -0.343525

  @DF-RHF Final Energy:  -173.26359366396929

   => Energetics <=

    Nuclear Repulsion Energy =            138.9378536736255114
    One-Electron Energy =                -508.3582167859887022
    Two-Electron Energy =                 196.1567694483938737
    DFT Exchange-Correlation Energy =       0.0000000000000000
    Empirical Dispersion Energy =           0.0000000000000000
    PCM Polarization Energy =               0.0000000000000000
    EFP Energy =                            0.0000000000000000
    Total Energy =                       -173.2635936639693170
    Molecular point group: c1
  Basis Set: 6-31G*
  Basis Set:

  -Total Gradient:
     Atom            X                  Y                   Z
    ------   -----------------  -----------------  -----------------
       1       -0.002464913533    -0.000475286543     0.003756666143
       2        0.003995899771     0.000077511424    -0.003992744185
       3       -0.003830327355     0.001584902555    -0.001908391090
       4       -0.000010326794    -0.000004361284    -0.000002864519
       5        0.000003335616     0.000015242757     0.000026611264
       6        0.002306651168    -0.001191906885     0.002169717620
       7       -0.000048733641     0.000046239692    -0.000067964212
       8        0.000006345362    -0.000006345848    -0.000006539626
       9        0.000014384693    -0.000005915617    -0.000020163160
      10        0.000014957707    -0.000004453114     0.000002233666
      11        0.000003677613    -0.000013320098     0.000018554821
      12        0.000001749072    -0.000021482032     0.000020857367
      13        0.000007300320    -0.000000825007     0.000004025912

  **** Optimization is complete! (in 5 steps) ****
    Final optimized geometry and variables:
    Molecular point group: c1

    Geometry (in Angstrom), charge = 0, multiplicity = 1:

    H           -0.686406360480     2.082017946050    -0.081918282278
    C            0.034194702145     1.367354678513     0.303829154394
    N           -0.317813509132     0.012184537817    -0.096669031188
    H            1.032048273470     1.656035805839    -0.021865718426
    H            0.010094765937     1.459079027352     1.384023413945
    C            0.458578442493    -0.439906275291    -1.229351805543
    C           -0.254354366230    -0.935731638688     0.995037189194
    H            0.098064506981    -1.406464637953    -1.563020559376
    H            0.349154508962     0.256253225115    -2.053727960773
    H            1.525812218633    -0.532748130285    -1.004498370562
    H           -0.911899190460    -0.621478305394     1.797077501004
    H           -0.592731562077    -1.907264659746     0.652597944184
    H            0.752863505436    -1.056099441637     1.406787716178

  Mulliken Charges: (a.u.)
   Center  Symbol    Alpha    Beta     Spin     Total
       1     H     0.41518  0.41518  0.00000  0.16963
       2     C     3.14468  3.14468  0.00000 -0.28935
       3     N     3.76814  3.76814  0.00000 -0.53628
       4     H     0.42694  0.42694  0.00000  0.14611
       5     H     0.42050  0.42050  0.00000  0.15899
       6     C     3.14350  3.14350  0.00000 -0.28699
       7     C     3.14273  3.14273  0.00000 -0.28545
       8     H     0.41740  0.41740  0.00000  0.16520
       9     H     0.41624  0.41624  0.00000  0.16752
      10     H     0.43512  0.43512  0.00000  0.12976
      11     H     0.41630  0.41630  0.00000  0.16741
      12     H     0.41778  0.41778  0.00000  0.16444
      13     H     0.43550  0.43550  0.00000  0.12900

   Total alpha = 17.00000, Total beta = 17.00000, Total charge = -0.00000
