  ==> Input File <==

--------------------------------------------------------------------------
set {
	reference rhf
	basis 6-31G*
}

set_num_threads( 1 )
memory 2 gb

molecule MOL {
0 1

H	 1.882143	 1.698390	 -0.272305
O	 0.994429	 1.354065	 -0.286099
C	 1.050492	 0.053836	 0.000068
C	 -0.318135	 -0.576402	 0.000164
O	 2.077063	 -0.501151	 0.221741
C	 -1.454360	 0.441875	 -0.000474
H	 -0.374042	 -1.230163	 -0.866135
H	 -0.374274	 -1.229227	 0.867154
C	 -2.826123	 -0.230780	 0.000056
H	 -1.357605	 1.085198	 -0.868380
H	 -1.357504	 1.086451	 0.866496
H	 -2.959731	 -0.858053	 -0.876869
H	 -3.619374	 0.509403	 -0.000080
H	 -2.959371	 -0.857318	 0.877556

	symmetry c1
}
set optking {
	frozen_dihedral = ("
		7 4 6 10,
		1 2 3 5
	")
}

ee = energy('scf')
oeprop('DIPOLE', 'QUADRUPOLE', 'MULLIKEN_CHARGES')
f=open( 'psi4out.xyz', 'w' )
f.write( "14  " )
f.write( str(ee) + "\n" )
f.write( MOL.save_string_xyz() )
f.close()
--------------------------------------------------------------------------

    Molecular point group: c1

    Geometry (in Angstrom), charge = 0, multiplicity = 1:

       Center              X                  Y                   Z               Mass
    ------------   -----------------  -----------------  -----------------  -----------------
           H          1.935020929604     1.583561626710    -0.257469196641     1.007825032070
           O          1.047306929604     1.239236626710    -0.271263196641    15.994914619560
           C          1.103369929604    -0.060992373290     0.014903803359    12.000000000000
           C         -0.265257070396    -0.691230373290     0.014999803359    12.000000000000
           O          2.129940929604    -0.615979373290     0.236576803359    15.994914619560
           C         -1.401482070396     0.327046626710     0.014361803359    12.000000000000
           H         -0.321164070396    -1.344991373290    -0.851299196641     1.007825032070
           H         -0.321396070396    -1.344055373290     0.881989803359     1.007825032070
           C         -2.773245070396    -0.345608373290     0.014891803359    12.000000000000
           H         -1.304727070396     0.970369626710    -0.853544196641     1.007825032070
           H         -1.304626070396     0.971622626710     0.881331803359     1.007825032070
           H         -2.906853070396    -0.972881373290    -0.862033196641     1.007825032070
           H         -3.566496070396     0.394574626710     0.014755803359     1.007825032070
           H         -2.906493070396    -0.972146373290     0.892391803359     1.007825032070

  Charge       = 0
  Multiplicity = 1
  Basis Set: 6-31G*
  Basis Set:

    Orbital Energies (a.u.)
    -----------------------

    Doubly Occupied:

       1A    -20.614480     2A    -20.548984     3A    -11.381967
       4A    -11.241100     5A    -11.227440     6A    -11.218072
       7A     -1.475576     8A     -1.365334     9A     -1.086242
      10A     -0.977956    11A     -0.843965    12A     -0.819535
      13A     -0.699983    14A     -0.679400    15A     -0.666498
      16A     -0.614490    17A     -0.589088    18A     -0.565730
      19A     -0.548717    20A     -0.525089    21A     -0.496790
      22A     -0.490961    23A     -0.467328    24A     -0.436684

  @DF-RHF Final Energy:  -305.87701289495885

   => Energetics <=

    Nuclear Repulsion Energy =            241.6679808569730596
    One-Electron Energy =                -895.9270179572424695
    Two-Electron Energy =                 348.3820242053106995
    DFT Exchange-Correlation Energy =       0.0000000000000000
    Empirical Dispersion Energy =           0.0000000000000000
    PCM Polarization Energy =               0.0000000000000000
    EFP Energy =                            0.0000000000000000
    Total Energy =                       -305.8770128949587388

  Mulliken Charges: (a.u.)
   Center  Symbol    Alpha    Beta     Spin     Total
       1     H     0.26738  0.26738  0.00000  0.46525
       2     O     4.34944  4.34944  0.00000 -0.69888
       3     C     2.61984  2.61984  0.00000  0.76033
       4     C     3.21494  3.21494  0.00000 -0.42988
       5     O     4.28173  4.28173  0.00000 -0.56347
       6     C     3.15344  3.15344  0.00000 -0.30688
       7     H     0.39679  0.39679  0.00000  0.20641
       8     H     0.39634  0.39634  0.00000  0.20733
       9     C     3.24281  3.24281  0.00000 -0.48563
      10     H     0.40789  0.40789  0.00000  0.18423
      11     H     0.41361  0.41361  0.00000  0.17278
      12     H     0.42045  0.42045  0.00000  0.15911
      13     H     0.41505  0.41505  0.00000  0.16989
      14     H     0.42029  0.42029  0.00000  0.15941

   Total alpha = 24.00000, Total beta = 24.00000, Total charge = -0.00000
