  ==> Input File <==

--------------------------------------------------------------------------
set {
	reference rhf
	basis 6-31G*
}

set_num_threads( 1 )
memory 2 gb

molecule MOL {
0 1

H	 -2.798360	 -0.862255	 -0.071053
N	 -1.863561	 -0.715187	 0.256814
C	 -1.344686	 0.554728	 -0.219830
H	 -1.300452	 -1.461917	 -0.101532
C	 -1.216595	 1.526794	 0.934213
H	 -0.374362	 0.475526	 -0.711966
H	 -2.043448	 0.965985	 -0.941898
O	 -0.257075	 1.029169	 1.822344
H	 -0.914902	 2.508018	 0.568399
H	 -2.176979	 1.628877	 1.434689
C	 -0.098416	 1.786179	 2.979641
H	 0.662625	 1.309023	 3.582000
H	 0.220331	 2.801501	 2.750503
H	 -1.022270	 1.835462	 3.552243

	symmetry c1
}
set optking {
	frozen_dihedral = ("
		8 5 3 6,
		5 8 11 13,
		11 8 5 3
	")
}

ee = energy('scf')
oeprop('DIPOLE', 'QUADRUPOLE', 'MULLIKEN_CHARGES')
f=open( 'psi4out.xyz', 'w' )
f.write( "14  " )
f.write( str(ee) + "\n" )
f.write( MOL.save_string_xyz() )
f.close()
--------------------------------------------------------------------------

    Molecular point group: c1

    Geometry (in Angstrom), charge = 0, multiplicity = 1:

       Center              X                  Y                   Z               Mass
    ------------   -----------------  -----------------  -----------------  -----------------
           H         -1.839928490640    -1.689917056167    -1.232830920289     1.007825032070
           N         -0.905129490640    -1.542849056167    -0.904963920289    14.003074004780
           C         -0.386254490640    -0.272934056167    -1.381607920289    12.000000000000
           H         -0.342020490640    -2.289579056167    -1.263309920289     1.007825032070
           C         -0.258163490640     0.699131943833    -0.227564920289    12.000000000000
           H          0.584069509360    -0.352136056167    -1.873743920289     1.007825032070
           H         -1.085016490640     0.138322943833    -2.103675920289     1.007825032070
           O          0.701356509360     0.201506943833     0.660566079711    15.994914619560
           H          0.043529509360     1.680355943833    -0.593378920289     1.007825032070
           H         -1.218547490640     0.801214943833     0.272911079711     1.007825032070
           C          0.860015509360     0.958516943833     1.817863079711    12.000000000000
           H          1.621056509360     0.481360943833     2.420222079711     1.007825032070
           H          1.178762509360     1.973838943833     1.588725079711     1.007825032070
           H         -0.063838490640     1.007799943833     2.390465079711     1.007825032070

  Charge       = 0
  Multiplicity = 1
  Basis Set: 6-31G*
  Basis Set:

    Orbital Energies (a.u.)
    -----------------------

    Doubly Occupied:

       1A    -20.544769     2A    -15.530286     3A    -11.258298
       4A    -11.257563     5A    -11.242383     6A     -1.368927
       7A     -1.175847     8A     -0.995129     9A     -0.899924
      10A     -0.811674    11A     -0.681479    12A     -0.666462
      13A     -0.634033    14A     -0.625033    15A     -0.594765
      16A     -0.533513    17A     -0.515956    18A     -0.505726
      19A     -0.462097    20A     -0.407651    21A     -0.379560

  @DF-RHF Final Energy:  -248.11695462216724

   => Energetics <=

    Nuclear Repulsion Energy =            193.9686235805294530
    One-Electron Energy =                -721.9888969675148473
    Two-Electron Energy =                 279.9033187648180387
    DFT Exchange-Correlation Energy =       0.0000000000000000
    Empirical Dispersion Energy =           0.0000000000000000
    PCM Polarization Energy =               0.0000000000000000
    EFP Energy =                            0.0000000000000000
    Total Energy =                       -248.1169546221673841

  Mulliken Charges: (a.u.)
   Center  Symbol    Alpha    Beta     Spin     Total
       1     H     0.33334  0.33334  0.00000  0.33332
       2     N     3.91452  3.91452  0.00000 -0.82903
       3     C     3.08265  3.08265  0.00000 -0.16531
       4     H     0.32994  0.32994  0.00000  0.34013
       5     C     2.97341  2.97341  0.00000  0.05318
       6     H     0.41501  0.41501  0.00000  0.16997
       7     H     0.42782  0.42782  0.00000  0.14436
       8     O     4.30160  4.30160  0.00000 -0.60319
       9     H     0.43635  0.43635  0.00000  0.12730
      10     H     0.43201  0.43201  0.00000  0.13599
      11     C     3.07686  3.07686  0.00000 -0.15371
      12     H     0.41335  0.41335  0.00000  0.17330
      13     H     0.43342  0.43342  0.00000  0.13316
      14     H     0.42974  0.42974  0.00000  0.14052

   Total alpha = 21.00000, Total beta = 21.00000, Total charge = -0.00000
