  ==> Input File <==

--------------------------------------------------------------------------
set {
	reference rhf
	basis 6-31G*
}

set_num_threads( 4 )
memory 2 gb

molecule MOL {
0 1

H	 2.591676	 2.013956	 0.335017
O	 3.341076	 1.666752	 -0.126416
C	 3.569581	 0.339145	 0.272707
C	 2.539767	 -0.640285	 -0.279495
H	 4.553106	 0.084646	 -0.100901
H	 3.608576	 0.269204	 1.359154
C	 1.115811	 -0.397273	 0.226630
H	 2.556196	 -0.582511	 -1.364741
H	 2.852081	 -1.648031	 -0.010655
C	 0.115918	 -1.429151	 -0.302766
H	 0.797950	 0.599468	 -0.066350
H	 1.109961	 -0.420744	 1.316472
C	 -1.356900	 -1.023278	 -0.174645
H	 0.340784	 -1.643014	 -1.346099
H	 0.263870	 -2.362595	 0.236210
C	 -1.774007	 0.170116	 -1.038537
H	 -1.971948	 -1.878979	 -0.445398
H	 -1.581116	 -0.808875	 0.869192
C	 -3.272254	 0.470225	 -0.957122
H	 -1.503590	 -0.025244	 -2.075272
H	 -1.221458	 1.058314	 -0.741726
C	 -3.690206	 1.665018	 -1.813538
H	 -3.832799	 -0.409123	 -1.266999
H	 -3.546151	 0.656132	 0.079365
H	 -3.459094	 1.496149	 -2.861533
H	 -4.757017	 1.850939	 -1.736190
H	 -3.173928	 2.569479	 -1.504069

	symmetry c1
}
set optking {
	frozen_dihedral = ("
		14 10 7 4
	")
}

ee = optimize('scf')
oeprop('DIPOLE', 'QUADRUPOLE', 'MULLIKEN_CHARGES')
f=open( 'psi4out.xyz', 'w' )
f.write( "27  " )
f.write( str(ee) + "\n" )
f.write( MOL.save_string_xyz() )
f.close()
--------------------------------------------------------------------------

    Molecular point group: c1
  Charge       = 0
  Multiplicity = 1
  Basis Set: 6-31G*
  Basis Set:
  @DF-RHF Final Energy:  -388.28032315877005
    Total Energy =                       -388.2803231587696473
    Molecular point group: c1
  Basis Set: 6-31G*
  Basis Set:
  Basis Set: 6-31G*
  Basis Set:
  @DF-RHF Final Energy:  -388.28036433771598
    Total Energy =                       -388.2803643377164917
  Basis Set: 6-31G*
  Basis Set:
  Basis Set: 6-31G*
  Basis Set:
  @DF-RHF Final Energy:  -388.28059765170462
    Total Energy =                       -388.2805976517043973
  Basis Set: 6-31G*
  Basis Set:
  Basis Set: 6-31G*
  Basis Set:
  @DF-RHF Final Energy:  -388.28062332626502
    Total Energy =                       -388.2806233262652995
  Basis Set: 6-31G*
  Basis Set:
  @DF-RHF Final Energy:  -388.28062738064892
    Total Energy =                       -388.2806273806490935
  @DF-RHF Final Energy:  -388.28061623001963
    Total Energy =                       -388.2806162300197457
  @DF-RHF Final Energy:  -388.28060549880513
    Total Energy =                       -388.2806054988053575
  @DF-RHF Final Energy:  -388.28059423735937
    Total Energy =                       -388.2805942373602193
  Basis Set: 6-31G*
  Basis Set:
  @DF-RHF Final Energy:  -388.28062130960149
    Total Energy =                       -388.2806213096012016
  Basis Set: 6-31G*
  Basis Set:
  Basis Set: 6-31G*
  Basis Set:
  @DF-RHF Final Energy:  -388.28061205831335
    Total Energy =                       -388.2806120583130678
  Basis Set: 6-31G*
  Basis Set:
  Basis Set: 6-31G*
  Basis Set:
  @DF-RHF Final Energy:  -388.28062698542442
    Total Energy =                       -388.2806269854241918
  Basis Set: 6-31G*
  Basis Set:
  Charge       = 0
  Multiplicity = 1
  Basis Set: 6-31G*
  Basis Set:

    Orbital Energies (a.u.)
    -----------------------

    Doubly Occupied:

       1A    -20.552347     2A    -11.267001     3A    -11.219701
       4A    -11.217212     5A    -11.215816     6A    -11.215725
       7A    -11.215358     8A    -11.213812     9A    -11.208882
      10A     -1.359069    11A     -1.094689    12A     -1.061280
      13A     -1.011307    14A     -0.948495    15A     -0.887550
      16A     -0.820278    17A     -0.799634    18A     -0.780385
      19A     -0.694313    20A     -0.646740    21A     -0.639755
      22A     -0.614735    23A     -0.603440    24A     -0.581579
      25A     -0.579569    26A     -0.553270    27A     -0.540673
      28A     -0.528986    29A     -0.506050    30A     -0.494555
      31A     -0.484011    32A     -0.473915    33A     -0.470114
      34A     -0.460946    35A     -0.450825    36A     -0.441438
      37A     -0.423053

  @DF-RHF Final Energy:  -388.28062766918993

   => Energetics <=

    Nuclear Repulsion Energy =            460.3436051262834781
    One-Electron Energy =               -1438.6954490099617487
    Two-Electron Energy =                 590.0712162144877766
    DFT Exchange-Correlation Energy =       0.0000000000000000
    Empirical Dispersion Energy =           0.0000000000000000
    PCM Polarization Energy =               0.0000000000000000
    EFP Energy =                            0.0000000000000000
    Total Energy =                       -388.2806276691904941
    Molecular point group: c1
  Basis Set: 6-31G*
  Basis Set:

  -Total Gradient:
     Atom            X                  Y                   Z
    ------   -----------------  -----------------  -----------------
       1        0.000001227265    -0.000001693197     0.000000082568
       2        0.000008397890     0.000002307165    -0.000003160065
       3       -0.000008314297     0.000006465783     0.000012995984
       4       -0.000395144363     0.001355379492    -0.001735471028
       5       -0.000002708366    -0.000000976095    -0.000000853792
       6        0.000002001834     0.000001298512     0.000002184085
       7        0.000980951504    -0.002425321622     0.002578584754
       8       -0.000001533958    -0.000004272949    -0.000004353114
       9       -0.000001522727     0.000001061691     0.000000200113
      10       -0.002434142913     0.003377861330    -0.001649790244
      11        0.000000223478    -0.000007130523    -0.000003944429
      12       -0.000003941869    -0.000003483362     0.000008501465
      13        0.000002933807     0.000001672674     0.000006500209
      14        0.001843568875    -0.002299874922     0.000788293364
      15       -0.000007009994     0.000004901801     0.000005090581
      16        0.000007342761     0.000006260618    -0.000001960224
      17        0.000005069688    -0.000006882223    -0.000000366369
      18        0.000000717161    -0.000000101783     0.000000379959
      19       -0.000006426094    -0.000012934928     0.000000094872
      20       -0.000002639031    -0.000001653229    -0.000000611943
      21        0.000003638582     0.000003769286    -0.000003300266
      22        0.000006857754     0.000009454711    -0.000001966762
      23       -0.000000954391    -0.000002868404    -0.000001043256
      24       -0.000001120297    -0.000002473546     0.000000921924
      25       -0.000002508383    -0.000000881279     0.000000567648
      26        0.000003203434    -0.000002371757     0.000005543704
      27        0.000001832648     0.000002486755    -0.000003119740

  **** Optimization is complete! (in 12 steps) ****
    Final optimized geometry and variables:
    Molecular point group: c1

    Geometry (in Angstrom), charge = 0, multiplicity = 1:

    H            2.544366996319     1.837742367447     0.981929595821
    O            3.289318728475     1.518302043060     0.493873765239
    C            3.494791147464     0.158343169533     0.781103852287
    C            2.447170976969    -0.752812016009     0.151468922415
    H            4.473579852629    -0.081264597587     0.385875313065
    H            3.532853680791    -0.002143000257     1.857900117390
    C            1.024960288191    -0.512911645457     0.663803507828
    H            2.469536063899    -0.614436470969    -0.926028042590
    H            2.735694310251    -1.785144528656     0.344822595882
    C            0.012015383600    -1.517599264168     0.100540870662
    H            0.726192044026     0.496581069655     0.394726353272
    H            1.007520841634    -0.561692383639     1.751986637275
    C           -1.457827859304    -1.117734376732     0.270612539116
    H            0.229054204638    -1.704604065976    -0.949439173098
    H            0.172261655798    -2.471809219005     0.598722628400
    C           -1.922676586535     0.014385500600    -0.649716710890
    H           -2.078418862216    -1.991086685747     0.082272768668
    H           -1.636516756236    -0.839460031236     1.308318899596
    C           -3.402435624334     0.360109167161    -0.470200407101
    H           -1.745018798637    -0.272941179089    -1.684826546667
    H           -1.328910551594     0.908709975307    -0.476973809623
    C           -3.870399649699     1.482951967937    -1.395368245197
    H           -4.004157662259    -0.528517629796    -0.648821145125
    H           -3.582248439706     0.646529187315     0.563970581730
    H           -3.735892019527     1.212718344850    -2.438935033555
    H           -4.922364185644     1.704770014737    -1.244341463300
    H           -3.310933374938     2.397050715959    -1.217262393146

  Mulliken Charges: (a.u.)
   Center  Symbol    Alpha    Beta     Spin     Total
       1     H     0.27981  0.27981  0.00000  0.44038
       2     O     4.37097  4.37097  0.00000 -0.74194
       3     C     2.99753  2.99753  0.00000  0.00495
       4     C     3.16167  3.16167  0.00000 -0.32334
       5     H     0.41446  0.41446  0.00000  0.17108
       6     H     0.43194  0.43194  0.00000  0.13613
       7     C     3.16371  3.16371  0.00000 -0.32742
       8     H     0.41463  0.41463  0.00000  0.17074
       9     H     0.42435  0.42435  0.00000  0.15130
      10     C     3.15343  3.15343  0.00000 -0.30686
      11     H     0.42291  0.42291  0.00000  0.15419
      12     H     0.42439  0.42439  0.00000  0.15122
      13     C     3.15416  3.15416  0.00000 -0.30832
      14     H     0.42136  0.42136  0.00000  0.15728
      15     H     0.42107  0.42107  0.00000  0.15786
      16     C     3.15199  3.15199  0.00000 -0.30398
      17     H     0.42107  0.42107  0.00000  0.15786
      18     H     0.42440  0.42440  0.00000  0.15120
      19     C     3.15125  3.15125  0.00000 -0.30250
      20     H     0.42334  0.42334  0.00000  0.15332
      21     H     0.42321  0.42321  0.00000  0.15357
      22     C     3.23920  3.23920  0.00000 -0.47840
      23     H     0.42300  0.42300  0.00000  0.15400
      24     H     0.42349  0.42349  0.00000  0.15301
      25     H     0.42141  0.42141  0.00000  0.15719
      26     H     0.41935  0.41935  0.00000  0.16130
      27     H     0.42190  0.42190  0.00000  0.15620

   Total alpha = 37.00000, Total beta = 37.00000, Total charge =  0.00000
