  ==> Input File <==

--------------------------------------------------------------------------
set {
	reference rhf
	basis 6-31G*
}

set_num_threads( 4 )
memory 2 gb

molecule MOL {
0 1

O	 2.862325	 1.357334	 0.000267
C	 2.843464	 0.164689	 -0.000222
C	 1.546494	 -0.624492	 -0.000609
C	 4.124123	 -0.644674	 -0.000428
C	 0.291004	 0.242674	 0.000989
H	 1.557904	 -1.283758	 -0.867573
H	 1.558622	 -1.285963	 0.864672
C	 0.587378	 1.704024	 -0.340159
H	 -0.183491	 0.179837	 0.975174
H	 -0.423403	 -0.164352	 -0.707602
C	 -0.664182	 2.583414	 -0.340221
H	 1.307028	 2.104870	 0.372213
H	 1.064573	 1.759625	 -1.317533
C	 -0.375903	 4.046682	 -0.680451
H	 -1.141645	 2.529153	 0.636561
H	 -1.383948	 2.184149	 -1.052627
C	 -1.630932	 4.918794	 -0.678290
H	 0.342563	 4.447236	 0.031719
H	 0.100018	 4.102332	 -1.657314
H	 -2.111796	 4.911238	 0.295806
H	 -1.394379	 5.949934	 -0.922207
H	 -2.355593	 4.564608	 -1.406001
H	 4.165367	 -1.288615	 -0.874074
H	 4.976217	 0.020734	 -0.001915
H	 4.166763	 -1.286207	 0.874930

	symmetry c1
}
set optking {
	frozen_dihedral = ("
		9 5 3 6
	")
}

ee = optimize('scf')
oeprop('DIPOLE', 'QUADRUPOLE', 'MULLIKEN_CHARGES')
f=open( 'psi4out.xyz', 'w' )
f.write( "25  " )
f.write( str(ee) + "\n" )
f.write( MOL.save_string_xyz() )
f.close()
--------------------------------------------------------------------------

    Molecular point group: c1
  Charge       = 0
  Multiplicity = 1
  Basis Set: 6-31G*
  Basis Set:
  @DF-RHF Final Energy:  -387.09487460666412
    Total Energy =                       -387.0948746066641206
    Molecular point group: c1
  Basis Set: 6-31G*
  Basis Set:
  Basis Set: 6-31G*
  Basis Set:
  @DF-RHF Final Energy:  -387.11734268253548
    Total Energy =                       -387.1173426825353090
  Basis Set: 6-31G*
  Basis Set:
  Basis Set: 6-31G*
  Basis Set:
  @DF-RHF Final Energy:  -387.12252115473240
    Total Energy =                       -387.1225211547322260
  Basis Set: 6-31G*
  Basis Set:
  Basis Set: 6-31G*
  Basis Set:
  @DF-RHF Final Energy:  -387.12302469534740
    Total Energy =                       -387.1230246953484766
  Basis Set: 6-31G*
  Basis Set:
  @DF-RHF Final Energy:  -387.12433841083407
    Total Energy =                       -387.1243384108344117
  @DF-RHF Final Energy:  -387.12498070482161
    Total Energy =                       -387.1249807048227467
  @DF-RHF Final Energy:  -387.12526643473518
    Total Energy =                       -387.1252664347355221
  @DF-RHF Final Energy:  -387.12579732497096
    Total Energy =                       -387.1257973249710176
  @DF-RHF Final Energy:  -387.12631274862980
    Total Energy =                       -387.1263127486295161
  @DF-RHF Final Energy:  -387.12670629536888
    Total Energy =                       -387.1267062953683080
  @DF-RHF Final Energy:  -387.12691715911581
    Total Energy =                       -387.1269171591153508
  @DF-RHF Final Energy:  -387.12696396020704
    Total Energy =                       -387.1269639602074903
  @DF-RHF Final Energy:  -387.12696818695355
    Total Energy =                       -387.1269681869530359
  Basis Set: 6-31G*
  Basis Set:
  @DF-RHF Final Energy:  -387.12698307998500
    Total Energy =                       -387.1269830799851661
  Basis Set: 6-31G*
  Basis Set:
  Basis Set: 6-31G*
  Basis Set:
  @DF-RHF Final Energy:  -387.12698786789974
    Total Energy =                       -387.1269878678996292
  Basis Set: 6-31G*
  Basis Set:
  Basis Set: 6-31G*
  Basis Set:
  @DF-RHF Final Energy:  -387.12699039681979
    Total Energy =                       -387.1269903968194512
  Basis Set: 6-31G*
  Basis Set:
  Charge       = 0
  Multiplicity = 1
  Basis Set: 6-31G*
  Basis Set:

    Orbital Energies (a.u.)
    -----------------------

    Doubly Occupied:

       1A    -20.548002     2A    -11.327091     3A    -11.231970
       4A    -11.228536     5A    -11.224175     6A    -11.212152
       7A    -11.211193     8A    -11.210017     9A    -11.206234
      10A     -1.394609    11A     -1.089483    12A     -1.053408
      13A     -1.012923    14A     -0.968050    15A     -0.891020
      16A     -0.818129    17A     -0.789274    18A     -0.724505
      19A     -0.661471    20A     -0.641655    21A     -0.631615
      22A     -0.618569    23A     -0.598393    24A     -0.584249
      25A     -0.564151    26A     -0.562008    27A     -0.537349
      28A     -0.532085    29A     -0.510867    30A     -0.495467
      31A     -0.482937    32A     -0.468291    33A     -0.462121
      34A     -0.458052    35A     -0.441256    36A     -0.397421

  @DF-RHF Final Energy:  -387.12699092847930

   => Energetics <=

    Nuclear Repulsion Energy =            449.4188610832847530
    One-Electron Energy =               -1415.5142446883019147
    Two-Electron Energy =                 578.9683926765377464
    DFT Exchange-Correlation Energy =       0.0000000000000000
    Empirical Dispersion Energy =           0.0000000000000000
    PCM Polarization Energy =               0.0000000000000000
    EFP Energy =                            0.0000000000000000
    Total Energy =                       -387.1269909284793584
    Molecular point group: c1
  Basis Set: 6-31G*
  Basis Set:

  -Total Gradient:
     Atom            X                  Y                   Z
    ------   -----------------  -----------------  -----------------
       1        0.000019632294     0.000048923098     0.000057008312
       2        0.000029866135    -0.000030972495    -0.000061814255
       3        0.003233114740     0.004014502812    -0.004547794768
       4       -0.000000028539    -0.000040710709     0.000018015719
       5        0.003792150671     0.004694673134     0.003115063220
       6       -0.003312055072    -0.004057994044     0.003322131224
       7       -0.000018239473    -0.000020025547    -0.000003693616
       8       -0.000018661787    -0.000048338814    -0.000036125790
       9       -0.003673483436    -0.004586331471    -0.001890333233
      10       -0.000023781965    -0.000003589819    -0.000001803188
      11       -0.000056087806    -0.000010951511    -0.000014256228
      12        0.000029893479     0.000028896585     0.000037977458
      13       -0.000000837865    -0.000027431451     0.000035588363
      14        0.000005083916     0.000005786016     0.000003446700
      15        0.000006526925    -0.000002536234    -0.000006739563
      16        0.000013195428    -0.000005861538    -0.000001107380
      17        0.000002689770     0.000003271417     0.000001828792
      18        0.000005899390     0.000003187042    -0.000002324670
      19       -0.000003646912     0.000005272499    -0.000001384508
      20       -0.000000580588     0.000001385771     0.000000722138
      21       -0.000001708005     0.000000737575     0.000000361606
      22       -0.000000139391    -0.000000649913     0.000000903162
      23        0.000000952528     0.000003286339    -0.000027843540
      24       -0.000022852647     0.000000351987     0.000008338117
      25       -0.000006901785     0.000025119272    -0.000006164071

  **** Optimization is complete! (in 17 steps) ****
    Final optimized geometry and variables:
    Molecular point group: c1

    Geometry (in Angstrom), charge = 0, multiplicity = 1:

    O            2.071139084135    -0.639819273413     1.268871113177
    C            1.847691298372    -1.509944497162     0.483279780928
    C            0.458633395434    -2.102601266578     0.322574767913
    C            2.949213930107    -2.116832225920    -0.357108804295
    C           -0.744241773241    -1.126787479839     0.314107462545
    H            0.414338478736    -2.764808253607    -0.535801025536
    H            0.352009910582    -2.769965357197     1.177277175972
    C           -0.476728106924     0.309067102724    -0.142594214628
    H           -1.227941170787    -1.136390461230     1.285329343616
    H           -1.482821153536    -1.559609987514    -0.357006061700
    C           -1.767921547895     1.117788680631    -0.283173876210
    H            0.187448133936     0.801307476892     0.556190458492
    H            0.039305269018     0.292578592395    -1.102509050445
    C           -1.526869896184     2.563555155082    -0.721294668630
    H           -2.297470361527     1.116590887521     0.668335697108
    H           -2.428302145520     0.631380609107    -0.999637825654
    C           -2.818025731489     3.370093706384    -0.855939641603
    H           -0.869474131323     3.050935414744    -0.005008862404
    H           -0.998202223577     2.568165135241    -1.672272679495
    H           -3.353000048663     3.413958046384     0.088595643690
    H           -2.614547829810     4.389893612716    -1.167881445885
    H           -3.483488241182     2.926027078515    -1.591123889555
    H            2.758514113378    -1.923733712027    -1.409391480752
    H            3.903084769175    -1.691754668304    -0.077711241125
    H            2.975414417098    -3.195258398204    -0.229046124588

  Mulliken Charges: (a.u.)
   Center  Symbol    Alpha    Beta     Spin     Total
       1     O     4.26494  4.26494  0.00000 -0.52989
       2     C     2.73195  2.73195  0.00000  0.53609
       3     C     3.21458  3.21458  0.00000 -0.42917
       4     C     3.28908  3.28908  0.00000 -0.57815
       5     C     3.14766  3.14766  0.00000 -0.29532
       6     H     0.41253  0.41253  0.00000  0.17495
       7     H     0.40066  0.40066  0.00000  0.19867
       8     C     3.16205  3.16205  0.00000 -0.32411
       9     H     0.41406  0.41406  0.00000  0.17189
      10     H     0.42048  0.42048  0.00000  0.15904
      11     C     3.15220  3.15220  0.00000 -0.30441
      12     H     0.39851  0.39851  0.00000  0.20299
      13     H     0.42925  0.42925  0.00000  0.14151
      14     C     3.15138  3.15138  0.00000 -0.30277
      15     H     0.42324  0.42324  0.00000  0.15353
      16     H     0.42620  0.42620  0.00000  0.14760
      17     C     3.23928  3.23928  0.00000 -0.47856
      18     H     0.42046  0.42046  0.00000  0.15908
      19     H     0.42393  0.42393  0.00000  0.15215
      20     H     0.42171  0.42171  0.00000  0.15657
      21     H     0.41947  0.41947  0.00000  0.16106
      22     H     0.42275  0.42275  0.00000  0.15450
      23     H     0.40743  0.40743  0.00000  0.18514
      24     H     0.39728  0.39728  0.00000  0.20543
      25     H     0.40891  0.40891  0.00000  0.18217

   Total alpha = 36.00000, Total beta = 36.00000, Total charge =  0.00000
