  ==> Input File <==

--------------------------------------------------------------------------
set {
	reference rhf
	basis 6-31G*
}

set_num_threads( 1 )
memory 2 gb

molecule MOL {
0 1

H	 -2.646374	 -0.642757	 1.268656
C	 -2.083525	 -0.384536	 0.393091
O	 -0.807605	 -0.127164	 0.768327
F	 -2.118945	 -1.383102	 -0.486752
F	 -2.621877	 0.670592	 -0.209486
C	 -0.092698	 0.798887	 0.030746
C	 1.273233	 0.185633	 -0.249096
Cl	 0.077198	 2.320192	 0.921802
H	 -0.562316	 1.022933	 -0.911080
F	 2.009599	 1.010228	 -0.963203
F	 1.106825	 -0.921457	 -0.944868
F	 1.918155	 -0.109701	 0.853096

	symmetry c1
}
set optking {
	frozen_dihedral = ("
		10 7 6 9,
		9 6 3 2
	")
}

ee = energy('scf')
oeprop('DIPOLE', 'QUADRUPOLE', 'MULLIKEN_CHARGES')
f=open( 'psi4out.xyz', 'w' )
f.write( "12  " )
f.write( str(ee) + "\n" )
f.write( MOL.save_string_xyz() )
f.close()
--------------------------------------------------------------------------

    Molecular point group: c1

    Geometry (in Angstrom), charge = 0, multiplicity = 1:

       Center              X                  Y                   Z               Mass
    ------------   -----------------  -----------------  -----------------  -----------------
           H         -2.544690758511    -1.038194724051     1.194129764140     1.007825032070
           C         -1.981841758511    -0.779973724051     0.318564764140    12.000000000000
           O         -0.705921758511    -0.522601724051     0.693800764140    15.994914619560
           F         -2.017261758511    -1.778539724051    -0.561278235860    18.998403224000
           F         -2.520193758511     0.275154275949    -0.284012235860    18.998403224000
           C          0.008985241489     0.403449275949    -0.043780235860    12.000000000000
           C          1.374916241489    -0.209804724051    -0.323622235860    12.000000000000
          CL          0.178881241489     1.924754275949     0.847275764140    34.968852682000
           H         -0.460632758511     0.627495275949    -0.985606235860     1.007825032070
           F          2.111282241489     0.614790275949    -1.037729235860    18.998403224000
           F          1.208508241489    -1.316894724051    -1.019394235860    18.998403224000
           F          2.019838241489    -0.505138724051     0.778569764140    18.998403224000

  Charge       = 0
  Multiplicity = 1
  Basis Set: 6-31G*
  Basis Set:

    Orbital Energies (a.u.)
    -----------------------

    Doubly Occupied:

       1A   -104.845094     2A    -26.359320     3A    -26.357552
       4A    -26.356618     5A    -26.354773     6A    -26.340526
       7A    -20.649393     8A    -11.526405     9A    -11.490161
      10A    -11.400430    11A    -10.579835    12A     -8.049186
      13A     -8.045676    14A     -8.045562    15A     -1.760139
      16A     -1.719898    17A     -1.656803    18A     -1.655129
      19A     -1.639286    20A     -1.486423    21A     -1.180490
      22A     -1.052394    23A     -0.986274    24A     -0.918908
      25A     -0.859329    26A     -0.850869    27A     -0.843757
      28A     -0.829769    29A     -0.813524    30A     -0.791021
      31A     -0.726370    32A     -0.725099    33A     -0.704506
      34A     -0.698508    35A     -0.678465    36A     -0.673951
      37A     -0.659225    38A     -0.656973    39A     -0.649618
      40A     -0.632467    41A     -0.597927    42A     -0.583435
      43A     -0.519320    44A     -0.478965    45A     -0.470158

  @DF-RHF Final Energy: -1146.31124205795732

   => Energetics <=

    Nuclear Repulsion Energy =            737.6973835953426715
    One-Electron Energy =               -3058.2181053449821775
    Two-Electron Energy =                1174.2094796916815085
    DFT Exchange-Correlation Energy =       0.0000000000000000
    Empirical Dispersion Energy =           0.0000000000000000
    PCM Polarization Energy =               0.0000000000000000
    EFP Energy =                            0.0000000000000000
    Total Energy =                      -1146.3112420579579975

  Mulliken Charges: (a.u.)
   Center  Symbol    Alpha    Beta     Spin     Total
       1     H     0.40454  0.40454  0.00000  0.19092
       2     C     2.56440  2.56440  0.00000  0.87120
       3     O     4.30040  4.30040  0.00000 -0.60079
       4     F     4.68209  4.68209  0.00000 -0.36418
       5     F     4.68449  4.68449  0.00000 -0.36898
       6     C     3.04790  3.04790  0.00000 -0.09580
       7     C     2.43169  2.43169  0.00000  1.13662
       8    CL     8.50141  8.50141  0.00000 -0.00282
       9     H     0.36453  0.36453  0.00000  0.27094
      10     F     4.67423  4.67423  0.00000 -0.34846
      11     F     4.67589  4.67589  0.00000 -0.35179
      12     F     4.66843  4.66843  0.00000 -0.33686

   Total alpha = 45.00000, Total beta = 45.00000, Total charge =  0.00000
