  ==> Input File <==

--------------------------------------------------------------------------
set {
	reference rhf
	basis 6-31G*
}

set_num_threads( 1 )
memory 2 gb

molecule MOL {
0 1

H	 -2.172150	 0.880146	 0.502514
C	 -2.018062	 -0.000025	 -0.114509
O	 -0.774054	 0.001095	 -0.743181
H	 -2.760490	 0.003458	 -0.901350
H	 -2.173624	 -0.884374	 0.496163
C	 0.220870	 0.919770	 -0.327615
C	 1.406663	 0.603384	 -1.236355
C	 -0.235258	 2.365600	 -0.548319
C	 0.608703	 0.689871	 1.136573
H	 1.127564	 0.739365	 -2.275126
H	 1.714666	 -0.427478	 -1.102819
H	 2.250832	 1.248924	 -1.016544
H	 -0.575583	 2.500136	 -1.569647
H	 0.587077	 3.050732	 -0.369550
H	 -1.042071	 2.646710	 0.119951
H	 0.861650	 -0.352600	 1.298815
H	 1.471397	 1.294702	 1.396329
H	 -0.191339	 0.957019	 1.818626

	symmetry c1
}
set optking {
	frozen_dihedral = ("
		2 3 6 7
	")
}

ee = energy('scf')
oeprop('DIPOLE', 'QUADRUPOLE', 'MULLIKEN_CHARGES')
f=open( 'psi4out.xyz', 'w' )
f.write( "18  " )
f.write( str(ee) + "\n" )
f.write( MOL.save_string_xyz() )
f.close()
--------------------------------------------------------------------------

    Molecular point group: c1

    Geometry (in Angstrom), charge = 0, multiplicity = 1:

       Center              X                  Y                   Z               Mass
    ------------   -----------------  -----------------  -----------------  -----------------
           H         -2.018951601602     0.122857247818     0.804311627023     1.007825032070
           C         -1.864863601602    -0.757313752182     0.187288627023    12.000000000000
           O         -0.620855601602    -0.756193752182    -0.441383372977    15.994914619560
           H         -2.607291601602    -0.753830752182    -0.599552372977     1.007825032070
           H         -2.020425601602    -1.641662752182     0.797960627023     1.007825032070
           C          0.374068398398     0.162481247818    -0.025817372977    12.000000000000
           C          1.559861398398    -0.153904752182    -0.934557372977    12.000000000000
           C         -0.082059601602     1.608311247818    -0.246521372977    12.000000000000
           C          0.761901398398    -0.067417752182     1.438370627023    12.000000000000
           H          1.280762398398    -0.017923752182    -1.973328372977     1.007825032070
           H          1.867864398398    -1.184766752182    -0.801021372977     1.007825032070
           H          2.404030398398     0.491635247818    -0.714746372977     1.007825032070
           H         -0.422384601602     1.742847247818    -1.267849372977     1.007825032070
           H          0.740275398398     2.293443247818    -0.067752372977     1.007825032070
           H         -0.888872601602     1.889421247818     0.421748627023     1.007825032070
           H          1.014848398398    -1.109888752182     1.600612627023     1.007825032070
           H          1.624595398398     0.537413247818     1.698126627023     1.007825032070
           H         -0.038140601602     0.199730247818     2.120423627023     1.007825032070

  Charge       = 0
  Multiplicity = 1
  Basis Set: 6-31G*
  Basis Set:

    Orbital Energies (a.u.)
    -----------------------

    Doubly Occupied:

       1A    -20.544794     2A    -11.281947     3A    -11.260264
       4A    -11.208932     5A    -11.208728     6A    -11.203267
       7A     -1.369290     8A     -1.073052     9A     -0.946153
      10A     -0.939797    11A     -0.912092    12A     -0.752795
      13A     -0.655586    14A     -0.643916    15A     -0.638970
      16A     -0.589720    17A     -0.572457    18A     -0.551976
      19A     -0.538500    20A     -0.523572    21A     -0.515239
      22A     -0.489614    23A     -0.486245    24A     -0.438474
      25A     -0.401257

  @DF-RHF Final Energy:  -271.17282763056494

   => Energetics <=

    Nuclear Repulsion Energy =            272.3198703202139086
    One-Electron Energy =                -907.4917636002503514
    Two-Electron Energy =                 363.9990656494715608
    DFT Exchange-Correlation Energy =       0.0000000000000000
    Empirical Dispersion Energy =           0.0000000000000000
    PCM Polarization Energy =               0.0000000000000000
    EFP Energy =                            0.0000000000000000
    Total Energy =                       -271.1728276305648819

  Mulliken Charges: (a.u.)
   Center  Symbol    Alpha    Beta     Spin     Total
       1     H     0.43064  0.43064  0.00000  0.13871
       2     C     3.07637  3.07637  0.00000 -0.15275
       3     O     4.32063  4.32063  0.00000 -0.64126
       4     H     0.41836  0.41836  0.00000  0.16327
       5     H     0.42345  0.42345  0.00000  0.15310
       6     C     2.84464  2.84464  0.00000  0.31072
       7     C     3.23303  3.23303  0.00000 -0.46607
       8     C     3.24607  3.24607  0.00000 -0.49215
       9     C     3.24552  3.24552  0.00000 -0.49105
      10     H     0.41409  0.41409  0.00000  0.17182
      11     H     0.41398  0.41398  0.00000  0.17204
      12     H     0.42521  0.42521  0.00000  0.14958
      13     H     0.41320  0.41320  0.00000  0.17360
      14     H     0.41975  0.41975  0.00000  0.16050
      15     H     0.42062  0.42062  0.00000  0.15876
      16     H     0.41321  0.41321  0.00000  0.17359
      17     H     0.42006  0.42006  0.00000  0.15988
      18     H     0.42115  0.42115  0.00000  0.15770

   Total alpha = 25.00000, Total beta = 25.00000, Total charge =  0.00000
