                              Psi4 1.0.54 Driver

  ==> Input File <==

--------------------------------------------------------------------------
set {
	reference rhf
	basis cc-pvtz
}

set_num_threads( 4 )
memory 2 gb

molecule MOL {
0 1

O	 2.381825	 2.105639	 0.210937
C	 1.342044	 2.483858	 0.642118
C	 0.094543	 1.624162	 0.619875
C	 1.194312	 3.861558	 1.247381
C	 0.288398	 0.247429	 0.000314
H	 -0.262778	 1.539264	 1.643682
H	 -0.676539	 2.179750	 0.090952
C	 -0.993089	 -0.581367	 -0.000217
H	 1.067342	 -0.278837	 0.540134
H	 0.653355	 0.362258	 -1.013961
C	 -2.258482	 0.271340	 0.000669
H	 -1.002280	 -1.233920	 -0.870484
H	 -1.002061	 -1.235367	 0.868958
C	 -3.544441	 -0.550271	 -0.000253
H	 -2.250545	 0.925250	 -0.867923
H	 -2.250598	 0.923423	 0.870642
C	 -4.804551	 0.308747	 0.000556
H	 -3.553737	 -1.201524	 -0.870151
H	 -3.553831	 -1.203282	 0.868313
H	 -4.842050	 0.949078	 -0.874436
H	 -5.698404	 -0.304480	 -0.000254
H	 -4.842277	 0.947103	 0.876982
H	 0.859235	 3.784340	 2.275879
H	 2.139610	 4.380683	 1.211160
H	 0.445176	 4.429152	 0.706388

	symmetry c1
}
set optking {
	frozen_dihedral = ("
		9 5 8 12
	")
}

ee,wfn = optimize('scf', return_wfn=True)
oeprop( wfn, 'DIPOLE', 'QUADRUPOLE', 'MULLIKEN_CHARGES')
f=open( 'psi4out.xyz', 'w' )
f.write( "25  " )
f.write( str(ee) + "\n" )
f.write( MOL.save_string_xyz() )
f.close()
--------------------------------------------------------------------------

    Molecular point group: c1
  Charge       = 0
  Multiplicity = 1
  Basis Set: CC-PVTZ
  Basis Set:
  @DF-RHF Final Energy:  -387.26421845648343
    Total Energy =                       -387.2642184564833769
    Molecular point group: c1
  Basis Set: CC-PVTZ
  Basis Set:
  Basis Set: CC-PVTZ
  Basis Set:
  @DF-RHF Final Energy:  -387.26302546852929
    Total Energy =                       -387.2630254685298041
  Basis Set: CC-PVTZ
  Basis Set:
  Basis Set: CC-PVTZ
  Basis Set:
  @DF-RHF Final Energy:  -387.26740433491898
    Total Energy =                       -387.2674043349187514
  Basis Set: CC-PVTZ
  Basis Set:
  Basis Set: CC-PVTZ
  Basis Set:
  @DF-RHF Final Energy:  -387.26765428149776
    Total Energy =                       -387.2676542814972436
  Basis Set: CC-PVTZ
  Basis Set:
  @DF-RHF Final Energy:  -387.26504177638913
    Total Energy =                       -387.2650417763888981
  Basis Set: CC-PVTZ
  Basis Set:
  @DF-RHF Final Energy:  -387.26774453997774
    Total Energy =                       -387.2677445399773433
  Basis Set: CC-PVTZ
  Basis Set:
  Basis Set: CC-PVTZ
  Basis Set:
  @DF-RHF Final Energy:  -387.26776633304655
    Total Energy =                       -387.2677663330464384
  Basis Set: CC-PVTZ
  Basis Set:
  Basis Set: CC-PVTZ
  Basis Set:
  @DF-RHF Final Energy:  -387.26776929735809
    Total Energy =                       -387.2677692973578587
  Basis Set: CC-PVTZ
  Basis Set:
  Charge       = 0
  Multiplicity = 1
  Basis Set: CC-PVTZ
  Basis Set:

    Orbital Energies (a.u.)
    -----------------------

    Doubly Occupied:

       1A    -20.538507     2A    -11.320000     3A    -11.229141
       4A    -11.226205     5A    -11.215882     6A    -11.215719
       7A    -11.215271     8A    -11.214789     9A    -11.209250
      10A     -1.398582    11A     -1.095079    12A     -1.056610
      13A     -1.014614    14A     -0.968475    15A     -0.900234
      16A     -0.817863    17A     -0.786736    18A     -0.728562
      19A     -0.662459    20A     -0.656338    21A     -0.635058
      22A     -0.623499    23A     -0.597910    24A     -0.583737
      25A     -0.569189    26A     -0.562848    27A     -0.544012
      28A     -0.527027    29A     -0.521678    30A     -0.494794
      31A     -0.493064    32A     -0.477908    33A     -0.459479
      34A     -0.458211    35A     -0.447250    36A     -0.402499

  @DF-RHF Final Energy:  -387.26776945705257

   => Energetics <=

    Nuclear Repulsion Energy =            446.8680161511223901
    One-Electron Energy =               -1410.5346152200861525
    Two-Electron Energy =                 576.3988296119114239
    DFT Exchange-Correlation Energy =       0.0000000000000000
    Empirical Dispersion Energy =           0.0000000000000000
    PCM Polarization Energy =               0.0000000000000000
    EFP Energy =                            0.0000000000000000
    Total Energy =                       -387.2677694570522817
    Molecular point group: c1
  Basis Set: CC-PVTZ
  Basis Set:

  -Total Gradient:
     Atom            X                  Y                   Z
    ------   -----------------  -----------------  -----------------
       1       -0.000007918691     0.000007095635    -0.000008521981
       2        0.000010341328    -0.000019641873     0.000048965005
       3        0.000009477177     0.000008742458    -0.000009154520
       4       -0.000011534624     0.000017506679    -0.000047661116
       5        0.001336700428    -0.002716743252    -0.007432419039
       6       -0.000000321781     0.000001501303     0.000000675199
       7        0.000003825921    -0.000010097123    -0.000000654090
       8        0.003426626810    -0.004720756510     0.005358593077
       9       -0.001643025955     0.003017440915     0.005478899423
      10        0.000004887312    -0.000008115916     0.000000516781
      11        0.000006156548    -0.000011095220    -0.000035207853
      12       -0.003137256649     0.004457425392    -0.003376571502
      13        0.000005847328    -0.000013332325    -0.000006701107
      14       -0.000001739470     0.000004184749     0.000008687860
      15       -0.000001244226    -0.000002218355    -0.000008290765
      16       -0.000001818538    -0.000002514705    -0.000002069610
      17       -0.000003147615     0.000001863939     0.000002844265
      18       -0.000002244866     0.000014637434     0.000003289800
      19        0.000004671007    -0.000005678995    -0.000004222433
      20       -0.000001362792    -0.000005568874     0.000004992342
      21       -0.000001771196     0.000001946287     0.000004444170
      22        0.000001017611     0.000000831541    -0.000003307426
      23        0.000007428542    -0.000007190113     0.000001815967
      24       -0.000002379012    -0.000005738246     0.000004745128
      25       -0.000001214594    -0.000004484823     0.000016312427

  **** Optimization is complete! (in 9 steps) ****
    Final optimized geometry and variables:
    Molecular point group: c1

    Geometry (in Angstrom), charge = 0, multiplicity = 1:

    O            3.150931253594     0.960266115021    -0.150287150901
    C            2.155126039309     1.405992909103     0.318487325818
    C            0.846099812195     0.641272469807     0.331254049001
    C            2.126797449055     2.784769066541     0.939498418251
    C            0.936289027080    -0.741470827456    -0.309785809872
    H            0.525283314548     0.569897522438     1.368039464978
    H            0.106226518834     1.266602609933    -0.158173971956
    C           -0.350289465829    -1.587683615219    -0.231271900808
    H            1.727272342265    -1.262902863662     0.213770585479
    H            1.252646610142    -0.628895928524    -1.338315560470
    C           -1.673779007057    -0.819282891476    -0.269734299810
    H           -0.362666102427    -2.249978550906    -1.091017770487
    H           -0.330551242591    -2.208412905405     0.658450997868
    C           -2.887231837539    -1.744818687513    -0.307460142744
    H           -1.695419529915    -0.173275242221    -1.144845154342
    H           -1.760186554809    -0.167297190337     0.594153744312
    C           -4.214315131190    -0.993803780059    -0.333001692993
    H           -2.821311797293    -2.388354691257    -1.180215243554
    H           -2.862686448841    -2.402670700034     0.557129466110
    H           -4.284146875694    -0.351651545163    -1.204803180884
    H           -5.053293385909    -1.679546397946    -0.360445872491
    H           -4.327873570034    -0.368422134656     0.546397862704
    H            1.816978190135     2.721709295062     1.976831014229
    H            3.106305471382     3.233624745091     0.879601229512
    H            1.406269218167     3.411460058326     0.425633504665

  Mulliken Charges: (a.u.)
   Center  Symbol    Alpha    Beta     Spin     Total
       1     O     4.17016  4.17016  0.00000 -0.34031
       2     C     2.86371  2.86371  0.00000  0.27258
       3     C     3.11818  3.11818  0.00000 -0.23636
       4     C     3.15120  3.15120  0.00000 -0.30241
       5     C     3.09004  3.09004  0.00000 -0.18009
       6     H     0.44441  0.44441  0.00000  0.11117
       7     H     0.44167  0.44167  0.00000  0.11665
       8     C     3.09768  3.09768  0.00000 -0.19535
       9     H     0.44212  0.44212  0.00000  0.11575
      10     H     0.44346  0.44346  0.00000  0.11307
      11     C     3.09303  3.09303  0.00000 -0.18605
      12     H     0.44908  0.44908  0.00000  0.10183
      13     H     0.45022  0.45022  0.00000  0.09956
      14     C     3.08515  3.08515  0.00000 -0.17029
      15     H     0.45406  0.45406  0.00000  0.09187
      16     H     0.45336  0.45336  0.00000  0.09329
      17     C     3.14987  3.14987  0.00000 -0.29974
      18     H     0.45284  0.45284  0.00000  0.09432
      19     H     0.45434  0.45434  0.00000  0.09131
      20     H     0.45520  0.45520  0.00000  0.08960
      21     H     0.44771  0.44771  0.00000  0.10458
      22     H     0.45592  0.45592  0.00000  0.08816
      23     H     0.45082  0.45082  0.00000  0.09837
      24     H     0.43511  0.43511  0.00000  0.12977
      25     H     0.45064  0.45064  0.00000  0.09871

   Total alpha = 36.00000, Total beta = 36.00000, Total charge = -0.00000

*** Psi4 exiting successfully. Buy a developer a beer!
