                              Psi4 1.0.54 Driver

  ==> Input File <==

--------------------------------------------------------------------------
set {
	reference rhf
	basis cc-pvtz
}

set_num_threads( 4 )
memory 2 gb

molecule MOL {
0 1

O	 -1.276321	 0.480431	 -1.000813
C	 -1.081510	 0.147522	 0.122720
C	 0.327029	 -0.064006	 0.641890
C	 -2.219256	 -0.100032	 1.084240
C	 1.349460	 -0.017068	 -0.500215
H	 0.399029	 -1.014606	 1.159950
H	 0.538021	 0.726928	 1.350471
C	 2.779782	 -0.209014	 -0.009215
H	 1.115007	 -0.782959	 -1.233891
H	 1.259071	 0.936707	 -1.006644
H	 3.481860	 -0.160270	 -0.833072
H	 2.903471	 -1.171535	 0.475559
H	 3.052569	 0.559584	 0.705428
H	 -2.104825	 -1.061049	 1.573228
H	 -3.162746	 -0.060477	 0.561978
H	 -2.202339	 0.658349	 1.860400

	symmetry c1
}
set optking {
	frozen_dihedral = ("
		4 2 3 5
	")
}

ee,wfn = optimize('scf', return_wfn=True)
oeprop( wfn, 'DIPOLE', 'QUADRUPOLE', 'MULLIKEN_CHARGES')
f=open( 'psi4out.xyz', 'w' )
f.write( "16  " )
f.write( str(ee) + "\n" )
f.write( MOL.save_string_xyz() )
f.close()
--------------------------------------------------------------------------

    Molecular point group: c1
  Charge       = 0
  Multiplicity = 1
  Basis Set: CC-PVTZ
  Basis Set:
  @DF-RHF Final Energy:  -270.12985766310464
    Total Energy =                       -270.1298576631044739
    Molecular point group: c1
  Basis Set: CC-PVTZ
  Basis Set:
  Basis Set: CC-PVTZ
  Basis Set:
  @DF-RHF Final Energy:  -270.07838944515322
    Total Energy =                       -270.0783894451530500
  Basis Set: CC-PVTZ
  Basis Set:
  Basis Set: CC-PVTZ
  Basis Set:
  @DF-RHF Final Energy:  -270.12823730916375
    Total Energy =                       -270.1282373091638647
  Basis Set: CC-PVTZ
  Basis Set:
  Basis Set: CC-PVTZ
  Basis Set:
  @DF-RHF Final Energy:  -270.13090474213664
    Total Energy =                       -270.1309047421365221
  Basis Set: CC-PVTZ
  Basis Set:
  @DF-RHF Final Energy:  -270.13093277461957
    Total Energy =                       -270.1309327746195095
  @DF-RHF Final Energy:  -270.13102174300604
    Total Energy =                       -270.1310217430058742
  @DF-RHF Final Energy:  -270.13110101639620
    Total Energy =                       -270.1311010163963715
  @DF-RHF Final Energy:  -270.13102754053784
    Total Energy =                       -270.1310275405379002
  Basis Set: CC-PVTZ
  Basis Set:
  @DF-RHF Final Energy:  -270.13115168772924
    Total Energy =                       -270.1311516877292433
  Basis Set: CC-PVTZ
  Basis Set:
  Basis Set: CC-PVTZ
  Basis Set:
  @DF-RHF Final Energy:  -270.13115651322232
    Total Energy =                       -270.1311565132222086
  Basis Set: CC-PVTZ
  Basis Set:
  Basis Set: CC-PVTZ
  Basis Set:
  @DF-RHF Final Energy:  -270.13115629133347
    Total Energy =                       -270.1311562913334114
  Basis Set: CC-PVTZ
  Basis Set:
  Charge       = 0
  Multiplicity = 1
  Basis Set: CC-PVTZ
  Basis Set:

    Orbital Energies (a.u.)
    -----------------------

    Doubly Occupied:

       1A    -20.539096     2A    -11.321082     3A    -11.230957
       4A    -11.227140     5A    -11.218289     6A    -11.212192
       7A     -1.399320     8A     -1.078742     9A     -1.016820
      10A     -0.947842    11A     -0.825335    12A     -0.733202
      13A     -0.657240    14A     -0.651740    15A     -0.627659
      16A     -0.599630    17A     -0.567676    18A     -0.560945
      19A     -0.546711    20A     -0.502421    21A     -0.494623
      22A     -0.484320    23A     -0.477390    24A     -0.403313

  @DF-RHF Final Energy:  -270.13115814701291

   => Energetics <=

    Nuclear Repulsion Energy =            237.2363620936473296
    One-Electron Energy =                -836.0876655697693423
    Two-Electron Energy =                 328.7201453291090729
    DFT Exchange-Correlation Energy =       0.0000000000000000
    Empirical Dispersion Energy =           0.0000000000000000
    PCM Polarization Energy =               0.0000000000000000
    EFP Energy =                            0.0000000000000000
    Total Energy =                       -270.1311581470129113
    Molecular point group: c1
  Basis Set: CC-PVTZ
  Basis Set:

  -Total Gradient:
     Atom            X                  Y                   Z
    ------   -----------------  -----------------  -----------------
       1       -0.000009556987     0.000021094370    -0.000028491529
       2        0.000059847596     0.000257753240     0.000222127466
       3        0.000116348159     0.000295236286     0.000098752397
       4       -0.000069663184    -0.000261688150    -0.000186895680
       5       -0.000091930059    -0.000290259068    -0.000118046042
       6       -0.000000926941    -0.000008553296     0.000000284953
       7        0.000002409271    -0.000003745532    -0.000001879766
       8        0.000000014497    -0.000002292382    -0.000000057698
       9       -0.000002140717     0.000002129933     0.000005038217
      10       -0.000000535964     0.000001021793    -0.000001601130
      11       -0.000001966103     0.000000478956    -0.000000273582
      12        0.000002691432     0.000000603103     0.000001930221
      13        0.000000100133    -0.000001822931    -0.000001300392
      14       -0.000001451475    -0.000017131627    -0.000003016217
      15       -0.000008658329     0.000004501388    -0.000000985028
      16        0.000005418667     0.000002673918     0.000014413811

  **** Optimization is complete! (in 12 steps) ****
    Final optimized geometry and variables:
    Molecular point group: c1

    Geometry (in Angstrom), charge = 0, multiplicity = 1:

    O           -1.150405913516     0.969980890584    -0.907148809398
    C           -1.035810796722     0.312987415933     0.075281507807
    C            0.287422158802    -0.296202803342     0.492133510922
    C           -2.214614204792     0.034851361838     0.979833781738
    C            1.385633948927    -0.196754749243    -0.557467175440
    H            0.111056850148    -1.332269114605     0.770444964795
    H            0.590051029767     0.202492952370     1.411087144132
    C            2.699052805246    -0.810163855701    -0.084059475560
    H            1.055393996413    -0.688867418031    -1.465097755647
    H            1.535021274384     0.843347127837    -0.818053602518
    H            3.462062766227    -0.728818939481    -0.848950816859
    H            2.581777183189    -1.862494478834     0.153821974395
    H            3.069594579514    -0.310971313980     0.805421318405
    H           -2.486266278775    -1.012814522639     0.902036819590
    H           -3.055561488195     0.644034981740     0.685960811196
    H           -1.961051407187     0.226446720325     2.016160580601

  Mulliken Charges: (a.u.)
   Center  Symbol    Alpha    Beta     Spin     Total
       1     O     4.17102  4.17102  0.00000 -0.34204
       2     C     2.86243  2.86243  0.00000  0.27514
       3     C     3.10654  3.10654  0.00000 -0.21307
       4     C     3.15139  3.15139  0.00000 -0.30278
       5     C     3.07966  3.07966  0.00000 -0.15933
       6     H     0.44687  0.44687  0.00000  0.10626
       7     H     0.44534  0.44534  0.00000  0.10932
       8     C     3.15005  3.15005  0.00000 -0.30010
       9     H     0.44857  0.44857  0.00000  0.10286
      10     H     0.44408  0.44408  0.00000  0.11184
      11     H     0.44569  0.44569  0.00000  0.10862
      12     H     0.45672  0.45672  0.00000  0.08656
      13     H     0.45605  0.45605  0.00000  0.08791
      14     H     0.44891  0.44891  0.00000  0.10218
      15     H     0.43562  0.43562  0.00000  0.12876
      16     H     0.45106  0.45106  0.00000  0.09787

   Total alpha = 24.00000, Total beta = 24.00000, Total charge =  0.00000

*** Psi4 exiting successfully. Buy a developer a beer!
