  ==> Input File <==

--------------------------------------------------------------------------
set {
	reference rhf
	basis cc-pvtz
}

set_num_threads( 4 )
memory 2 gb

molecule MOL {
0 1

H	 -0.890788	 -2.456252	 -0.434825
N	 -0.168293	 -1.776211	 -0.540265
C	 -0.561396	 -0.500007	 0.035200
H	 0.011024	 -1.686011	 -1.518551
C	 0.575129	 0.507849	 -0.048832
H	 -0.811990	 -0.668620	 1.077309
H	 -1.450036	 -0.076797	 -0.435572
C	 1.951750	 -0.141983	 0.035101
H	 0.478254	 1.061643	 -0.975981
H	 0.467676	 1.231891	 0.755499
H	 2.101550	 -0.848142	 -0.774949
H	 2.738260	 0.600794	 -0.026526
H	 2.078939	 -0.679792	 0.968824

	symmetry c1
}
set optking {
	frozen_dihedral = ("
		6 3 5 9
	")
}

ee = optimize('scf')
oeprop('DIPOLE', 'QUADRUPOLE', 'MULLIKEN_CHARGES')
f=open( 'psi4out.xyz', 'w' )
f.write( "13  " )
f.write( str(ee) + "\n" )
f.write( MOL.save_string_xyz() )
f.close()
--------------------------------------------------------------------------

    Molecular point group: c1
  Charge       = 0
  Multiplicity = 1
  Basis Set: CC-PVTZ
  Basis Set:
  @DF-RHF Final Energy:  -173.34624490935968
    Total Energy =                       -173.3462449093596547
    Molecular point group: c1
  Basis Set: CC-PVTZ
  Basis Set:
  Basis Set: CC-PVTZ
  Basis Set:
  @DF-RHF Final Energy:  -173.34750230687249
    Total Energy =                       -173.3475023068724568
  Basis Set: CC-PVTZ
  Basis Set:
  Basis Set: CC-PVTZ
  Basis Set:
  @DF-RHF Final Energy:  -173.34827993299194
    Total Energy =                       -173.3482799329920567
  Basis Set: CC-PVTZ
  Basis Set:
  Basis Set: CC-PVTZ
  Basis Set:
  @DF-RHF Final Energy:  -173.34833145925697
    Total Energy =                       -173.3483314592569400
  Basis Set: CC-PVTZ
  Basis Set:
  Charge       = 0
  Multiplicity = 1
  Basis Set: CC-PVTZ
  Basis Set:

    Orbital Energies (a.u.)
    -----------------------

    Doubly Occupied:

       1A    -15.527640     2A    -11.239126     3A    -11.210982
       4A    -11.198329     5A     -1.179006     6A     -1.028826
       7A     -0.905930     8A     -0.788471     9A     -0.667643
      10A     -0.624969    11A     -0.603114    12A     -0.560549
      13A     -0.533014    14A     -0.493694    15A     -0.471213
      16A     -0.461728    17A     -0.382970

  @DF-RHF Final Energy:  -173.34833452985555

   => Energetics <=

    Nuclear Repulsion Energy =            133.9246092849051024
    One-Electron Energy =                -498.7914786494898749
    Two-Electron Energy =                 191.5185348347292518
    DFT Exchange-Correlation Energy =       0.0000000000000000
    Empirical Dispersion Energy =           0.0000000000000000
    PCM Polarization Energy =               0.0000000000000000
    EFP Energy =                            0.0000000000000000
    Total Energy =                       -173.3483345298555207
    Molecular point group: c1
  Basis Set: CC-PVTZ
  Basis Set:

  -Total Gradient:
     Atom            X                  Y                   Z
    ------   -----------------  -----------------  -----------------
       1       -0.000000030274    -0.000008279914    -0.000013516364
       2        0.000042977033     0.000021952095    -0.000027881404
       3        0.004306593013    -0.004640731492     0.000962698885
       4        0.000007302337    -0.000030147927    -0.000033987024
       5        0.003249824287    -0.004288112982    -0.003677141290
       6       -0.004109343447     0.004690039709    -0.000150844759
       7       -0.000016977679    -0.000012226131    -0.000021024815
       8       -0.000028697404     0.000004183447     0.000043201589
       9       -0.003466592795     0.004252893007     0.002931699973
      10        0.000005730677     0.000039461354     0.000023616377
      11       -0.000001786453    -0.000009930610    -0.000016864363
      12        0.000000815088    -0.000017140750    -0.000010753319
      13        0.000010185616    -0.000001959807    -0.000009203486

  **** Optimization is complete! (in 5 steps) ****
    Final optimized geometry and variables:
    Molecular point group: c1

    Geometry (in Angstrom), charge = 0, multiplicity = 1:

    H           -1.438282491886    -1.937558824455    -0.280266324942
    N           -0.691713704448    -1.292791720365    -0.429666698010
    C           -0.982822876485    -0.013949923028     0.195416665773
    H           -0.585808991444    -1.191466727852    -1.417929998372
    C            0.162995767504     0.996347188988     0.075611209585
    H           -1.210216188326    -0.175357873667     1.243470884571
    H           -1.878430982792     0.454680296661    -0.215366052791
    C            1.565649271783     0.419531695790     0.220442076884
    H            0.061870698228     1.555409093071    -0.850999152859
    H            0.008518869483     1.741292873601     0.851992658424
    H            1.800702079671    -0.273861937575    -0.575354382485
    H            2.303113139250     1.214387660250     0.205971568469
    H            1.669069641833    -0.117551547553     1.156571876254

  Mulliken Charges: (a.u.)
   Center  Symbol    Alpha    Beta     Spin     Total
       1     H     0.42906  0.42906  0.00000  0.14188
       2     N     3.68735  3.68735  0.00000 -0.37470
       3     C     3.03357  3.03357  0.00000 -0.06715
       4     H     0.43088  0.43088  0.00000  0.13825
       5     C     3.09362  3.09362  0.00000 -0.18723
       6     H     0.45604  0.45604  0.00000  0.08792
       7     H     0.46348  0.46348  0.00000  0.07303
       8     C     3.13663  3.13663  0.00000 -0.27326
       9     H     0.45381  0.45381  0.00000  0.09239
      10     H     0.45388  0.45388  0.00000  0.09223
      11     H     0.45384  0.45384  0.00000  0.09231
      12     H     0.45290  0.45290  0.00000  0.09420
      13     H     0.45493  0.45493  0.00000  0.09014

   Total alpha = 17.00000, Total beta = 17.00000, Total charge =  0.00000
