  ==> Input File <==

--------------------------------------------------------------------------
set {
	reference rhf
	basis cc-pvtz
}

set_num_threads( 4 )
memory 2 gb

molecule MOL {
0 1

H	 3.273419	 0.176595	 -0.102789
N	 2.433987	 -0.362316	 -0.080024
C	 1.263552	 0.494993	 0.021953
H	 2.497638	 -0.973615	 0.707122
C	 -0.016533	 -0.325589	 -0.026925
H	 1.280915	 1.180773	 -0.818522
H	 1.263064	 1.106893	 0.925038
C	 -1.280353	 0.525521	 0.047747
H	 -0.016686	 -0.912532	 -0.939714
H	 -0.014099	 -1.037598	 0.796369
C	 -1.214848	 1.769450	 -0.832219
H	 -1.451441	 0.824192	 1.078519
H	 -2.139298	 -0.073905	 -0.241694
H	 -0.385469	 2.407320	 -0.545897
H	 -2.124256	 2.354172	 -0.754567
H	 -1.080578	 1.503837	 -1.875580

	symmetry c1
}
set optking {
	frozen_dihedral = ("
		12 8 5 9
	")
}

ee = optimize('scf')
oeprop('DIPOLE', 'QUADRUPOLE', 'MULLIKEN_CHARGES')
f=open( 'psi4out.xyz', 'w' )
f.write( "16  " )
f.write( str(ee) + "\n" )
f.write( MOL.save_string_xyz() )
f.close()
--------------------------------------------------------------------------

    Molecular point group: c1
  Charge       = 0
  Multiplicity = 1
  Basis Set: CC-PVTZ
  Basis Set:
  @DF-RHF Final Energy:  -212.39542449394290
    Total Energy =                       -212.3954244939427554
    Molecular point group: c1
  Basis Set: CC-PVTZ
  Basis Set:
  Basis Set: CC-PVTZ
  Basis Set:
  @DF-RHF Final Energy:  -212.39660644989027
    Total Energy =                       -212.3966064498902711
  Basis Set: CC-PVTZ
  Basis Set:
  Basis Set: CC-PVTZ
  Basis Set:
  @DF-RHF Final Energy:  -212.39735326580865
    Total Energy =                       -212.3973532658089312
  Basis Set: CC-PVTZ
  Basis Set:
  Basis Set: CC-PVTZ
  Basis Set:
  @DF-RHF Final Energy:  -212.39741790687037
    Total Energy =                       -212.3974179068702028
  Basis Set: CC-PVTZ
  Basis Set:
  Basis Set: CC-PVTZ
  Basis Set:
  @DF-RHF Final Energy:  -212.39742373015611
    Total Energy =                       -212.3974237301561629
  Basis Set: CC-PVTZ
  Basis Set:
  Charge       = 0
  Multiplicity = 1
  Basis Set: CC-PVTZ
  Basis Set:

    Orbital Energies (a.u.)
    -----------------------

    Doubly Occupied:

       1A    -15.526460     2A    -11.237771     3A    -11.213277
       4A    -11.208218     5A    -11.206208     6A     -1.178346
       7A     -1.059101     8A     -0.955608     9A     -0.862373
      10A     -0.776988    11A     -0.665859    12A     -0.632537
      13A     -0.606467    14A     -0.594323    15A     -0.548832
      16A     -0.526431    17A     -0.516462    18A     -0.467366
      19A     -0.461642    20A     -0.457197    21A     -0.383890

  @DF-RHF Final Energy:  -212.39742418985199

   => Energetics <=

    Nuclear Repulsion Energy =            189.2023433742300824
    One-Electron Energy =                -661.0288236410874561
    Two-Electron Energy =                 259.4290560770052707
    DFT Exchange-Correlation Energy =       0.0000000000000000
    Empirical Dispersion Energy =           0.0000000000000000
    PCM Polarization Energy =               0.0000000000000000
    EFP Energy =                            0.0000000000000000
    Total Energy =                       -212.3974241898521313
    Molecular point group: c1
  Basis Set: CC-PVTZ
  Basis Set:

  -Total Gradient:
     Atom            X                  Y                   Z
    ------   -----------------  -----------------  -----------------
       1        0.000010946536    -0.000005102830    -0.000000642353
       2        0.000027776435     0.000001987479    -0.000036083366
       3       -0.000013794547    -0.000009874800     0.000064291752
       4       -0.000011485392     0.000011878358    -0.000002001509
       5        0.001658785063     0.002891829190    -0.002188492039
       6        0.000009214759    -0.000019486838    -0.000000008918
       7       -0.000001710951     0.000019661357    -0.000004494132
       8        0.002144910776     0.003219665336    -0.000286415706
       9       -0.001762167813    -0.002915128499     0.001853993239
      10       -0.000003177406     0.000008931806     0.000002525096
      11        0.000011739789    -0.000005607630     0.000004698104
      12       -0.002059506862    -0.003192547764     0.000586654749
      13       -0.000012578864    -0.000002625334    -0.000000242556
      14       -0.000002672580     0.000006453575     0.000002798481
      15       -0.000002408821    -0.000008934251     0.000001756967
      16        0.000006129878    -0.000001099154     0.000001662190

  **** Optimization is complete! (in 6 steps) ****
    Final optimized geometry and variables:
    Molecular point group: c1

    Geometry (in Angstrom), charge = 0, multiplicity = 1:

    H            3.038240328909    -0.365192663140     0.147448443256
    N            2.171851004754    -0.860041483678     0.146276632507
    C            1.043546037001     0.056876443463     0.180249597428
    H            2.171418518859    -1.457424843658     0.946423978024
    C           -0.266880130589    -0.711112578104     0.092339202134
    H            1.139901913189     0.723862618852    -0.667571331470
    H            1.031862343700     0.684068102649     1.073736160611
    C           -1.536080738669     0.136073368595     0.222980612686
    H           -0.292119410048    -1.284104733421    -0.828933486395
    H           -0.279287507359    -1.453088423209     0.888273280965
    C           -1.597801979422     1.368894416865    -0.673970299672
    H           -1.678863973159     0.419594864197     1.262149864840
    H           -2.382090302281    -0.503362716539    -0.011510381378
    H           -0.846804871697     2.103202677799    -0.408123416583
    H           -2.565720084404     1.850289744980    -0.595063846192
    H           -1.446018799406     1.102356968906    -1.715059230226

  Mulliken Charges: (a.u.)
   Center  Symbol    Alpha    Beta     Spin     Total
       1     H     0.43001  0.43001  0.00000  0.13997
       2     N     3.68996  3.68996  0.00000 -0.37992
       3     C     3.02763  3.02763  0.00000 -0.05527
       4     H     0.43092  0.43092  0.00000  0.13815
       5     C     3.08756  3.08756  0.00000 -0.17512
       6     H     0.45428  0.45428  0.00000  0.09144
       7     H     0.46779  0.46779  0.00000  0.06443
       8     C     3.09450  3.09450  0.00000 -0.18899
       9     H     0.44777  0.44777  0.00000  0.10445
      10     H     0.45739  0.45739  0.00000  0.08522
      11     C     3.15583  3.15583  0.00000 -0.31166
      12     H     0.45442  0.45442  0.00000  0.09117
      13     H     0.45000  0.45000  0.00000  0.10000
      14     H     0.45364  0.45364  0.00000  0.09272
      15     H     0.44574  0.44574  0.00000  0.10852
      16     H     0.45256  0.45256  0.00000  0.09489

   Total alpha = 21.00000, Total beta = 21.00000, Total charge = -0.00000
