  ==> Input File <==

--------------------------------------------------------------------------
set {
	reference rhf
	basis 6-31G*
}

set_num_threads( 1 )
memory 2 gb

molecule MOL {
0 1

O	 2.980295	 -2.853183	 -0.920150
C	 2.569672	 -1.984964	 -0.219690
C	 1.130097	 -1.792732	 0.191965
O	 3.347903	 -1.046386	 0.304773
C	 0.195868	 -2.857911	 -0.377881
H	 1.109338	 -1.771512	 1.276543
H	 0.832053	 -0.798190	 -0.130140
C	 -1.283061	 -2.617793	 -0.055999
H	 0.498481	 -3.833949	 -0.010603
H	 0.324350	 -2.890320	 -1.454386
C	 -1.647390	 -2.731018	 1.427091
H	 -1.871220	 -3.342311	 -0.614450
H	 -1.580442	 -1.638065	 -0.427088
C	 -3.149491	 -2.592432	 1.682992
H	 -1.305193	 -3.692438	 1.807080
H	 -1.121937	 -1.971130	 2.001061
C	 -3.524688	 -2.698718	 3.162202
H	 -3.682167	 -3.358510	 1.122087
H	 -3.494358	 -1.635794	 1.293621
C	 -5.026856	 -2.563109	 3.408779
H	 -3.179912	 -3.653671	 3.553146
H	 -2.996573	 -1.930992	 3.723870
H	 -5.261139	 -2.642613	 4.465849
H	 -5.581195	 -3.338801	 2.888004
H	 -5.396448	 -1.603083	 3.059456
C	 4.728119	 -1.109107	 -0.004993
H	 4.882018	 -1.033965	 -1.071845
H	 5.068212	 -2.067527	 0.355250
H	 5.265056	 -0.311663	 0.488280

	symmetry c1
}
set optking {
	frozen_dihedral = ("
		21 17 14 11,
		17 14 11 15,
		15 11 8 5,
		6 3 5 9,
		11 8 5 9,
		1 2 4 26,
		6 3 2 1
	")
}

ee = energy('scf')
oeprop('DIPOLE', 'QUADRUPOLE', 'MULLIKEN_CHARGES')
f=open( 'psi4out.xyz', 'w' )
f.write( "29  " )
f.write( str(ee) + "\n" )
f.write( MOL.save_string_xyz() )
f.close()
--------------------------------------------------------------------------

    Molecular point group: c1

    Geometry (in Angstrom), charge = 0, multiplicity = 1:

       Center              X                  Y                   Z               Mass
    ------------   -----------------  -----------------  -----------------  -----------------
           O          2.907581200955    -0.604498126319    -1.699449274256    15.994914619560
           C          2.496958200955     0.263720873681    -0.998989274256    12.000000000000
           C          1.057383200955     0.455952873681    -0.587334274256    12.000000000000
           O          3.275189200955     1.202298873681    -0.474526274256    15.994914619560
           C          0.123154200955    -0.609226126319    -1.157180274256    12.000000000000
           H          1.036624200955     0.477172873681     0.497243725744     1.007825032070
           H          0.759339200955     1.450494873681    -0.909439274256     1.007825032070
           C         -1.355774799045    -0.369108126319    -0.835298274256    12.000000000000
           H          0.425767200955    -1.585264126319    -0.789902274256     1.007825032070
           H          0.251636200955    -0.641635126319    -2.233685274256     1.007825032070
           C         -1.720103799045    -0.482333126319     0.647791725744    12.000000000000
           H         -1.943933799045    -1.093626126319    -1.393749274256     1.007825032070
           H         -1.653155799045     0.610619873681    -1.206387274256     1.007825032070
           C         -3.222204799045    -0.343747126319     0.903692725744    12.000000000000
           H         -1.377906799045    -1.443753126319     1.027780725744     1.007825032070
           H         -1.194650799045     0.277554873681     1.221761725744     1.007825032070
           C         -3.597401799045    -0.450033126319     2.382902725744    12.000000000000
           H         -3.754880799045    -1.109825126319     0.342787725744     1.007825032070
           H         -3.567071799045     0.612890873681     0.514321725744     1.007825032070
           C         -5.099569799045    -0.314424126319     2.629479725744    12.000000000000
           H         -3.252625799045    -1.404986126319     2.773846725744     1.007825032070
           H         -3.069286799045     0.317692873681     2.944570725744     1.007825032070
           H         -5.333852799045    -0.393928126319     3.686549725744     1.007825032070
           H         -5.653908799045    -1.090116126319     2.108704725744     1.007825032070
           H         -5.469161799045     0.645601873681     2.280156725744     1.007825032070
           C          4.655405200955     1.139577873681    -0.784292274256    12.000000000000
           H          4.809304200955     1.214719873681    -1.851144274256     1.007825032070
           H          4.995498200955     0.181157873681    -0.424049274256     1.007825032070
           H          5.192342200955     1.937021873681    -0.291019274256     1.007825032070

  Charge       = 0
  Multiplicity = 1
  Basis Set: 6-31G*
  Basis Set:

    Orbital Energies (a.u.)
    -----------------------

    Doubly Occupied:

       1A    -20.602415     2A    -20.545125     3A    -11.372402
       4A    -11.280665     5A    -11.234791     6A    -11.219122
       7A    -11.217664     8A    -11.216000     9A    -11.215853
      10A    -11.214454    11A    -11.209065    12A     -1.468934
      13A     -1.362329    14A     -1.098086    15A     -1.066809
      16A     -1.019396    17A     -0.976851    18A     -0.928399
      19A     -0.861591    20A     -0.799221    21A     -0.790445
      22A     -0.762883    23A     -0.700526    24A     -0.683660
      25A     -0.672903    26A     -0.650933    27A     -0.629352
      28A     -0.606467    29A     -0.594950    30A     -0.581973
      31A     -0.566885    32A     -0.549465    33A     -0.531768
      34A     -0.528355    35A     -0.514822    36A     -0.510793
      37A     -0.495980    38A     -0.477807    39A     -0.470210
      40A     -0.462408    41A     -0.458734    42A     -0.455225
      43A     -0.441317    44A     -0.435526

  @DF-RHF Final Energy:  -501.04245353174224

   => Energetics <=

    Nuclear Repulsion Energy =            610.2870267831071942
    One-Electron Energy =               -1891.6938265657170177
    Two-Electron Energy =                 780.3643462508655375
    DFT Exchange-Correlation Energy =       0.0000000000000000
    Empirical Dispersion Energy =           0.0000000000000000
    PCM Polarization Energy =               0.0000000000000000
    EFP Energy =                            0.0000000000000000
    Total Energy =                       -501.0424535317442860

  Mulliken Charges: (a.u.)
   Center  Symbol    Alpha    Beta     Spin     Total
       1     O     4.28586  4.28586  0.00000 -0.57171
       2     C     2.60474  2.60474  0.00000  0.79052
       3     C     3.20955  3.20955  0.00000 -0.41910
       4     O     4.30844  4.30844  0.00000 -0.61688
       5     C     3.15385  3.15385  0.00000 -0.30770
       6     H     0.39881  0.39881  0.00000  0.20239
       7     H     0.40115  0.40115  0.00000  0.19770
       8     C     3.15664  3.15664  0.00000 -0.31327
       9     H     0.41309  0.41309  0.00000  0.17381
      10     H     0.40873  0.40873  0.00000  0.18254
      11     C     3.15508  3.15508  0.00000 -0.31016
      12     H     0.41821  0.41821  0.00000  0.16358
      13     H     0.42384  0.42384  0.00000  0.15231
      14     C     3.15029  3.15029  0.00000 -0.30059
      15     H     0.42261  0.42261  0.00000  0.15478
      16     H     0.42359  0.42359  0.00000  0.15283
      17     C     3.15146  3.15146  0.00000 -0.30292
      18     H     0.42332  0.42332  0.00000  0.15336
      19     H     0.42397  0.42397  0.00000  0.15206
      20     C     3.23935  3.23935  0.00000 -0.47871
      21     H     0.42280  0.42280  0.00000  0.15440
      22     H     0.42342  0.42342  0.00000  0.15315
      23     H     0.41923  0.41923  0.00000  0.16155
      24     H     0.42154  0.42154  0.00000  0.15691
      25     H     0.42183  0.42183  0.00000  0.15635
      26     C     3.09290  3.09290  0.00000 -0.18580
      27     H     0.40914  0.40914  0.00000  0.18172
      28     H     0.40920  0.40920  0.00000  0.18160
      29     H     0.40736  0.40736  0.00000  0.18529

   Total alpha = 44.00000, Total beta = 44.00000, Total charge = -0.00000
