  ==> Input File <==

--------------------------------------------------------------------------
set {
	reference rhf
	basis 6-31G*
}

set_num_threads( 1 )
memory 2 gb

molecule MOL {
0 1

H	 -2.440439	 -1.729370	 -1.209578
N	 -1.538365	 -1.682372	 -0.777110
C	 -1.435781	 -0.509789	 0.073555
H	 -0.858421	 -1.623924	 -1.510164
C	 -0.053538	 -0.435867	 0.687619
H	 -1.631345	 0.428666	 -0.447078
H	 -2.164857	 -0.596541	 0.873370
O	 0.874168	 -0.245412	 -0.342030
H	 -0.000236	 0.389735	 1.396970
H	 0.159424	 -1.359500	 1.221270
C	 2.202317	 -0.244239	 0.074611
H	 2.711377	 -1.041390	 -0.449894
H	 2.692099	 0.699270	 -0.159667
H	 2.283185	 -0.418429	 1.145558

	symmetry c1
}
set optking {
	frozen_dihedral = ("
		8 5 3 6,
		6 3 2 4,
		11 8 5 3
	")
}

ee = energy('scf')
oeprop('DIPOLE', 'QUADRUPOLE', 'MULLIKEN_CHARGES')
f=open( 'psi4out.xyz', 'w' )
f.write( "14  " )
f.write( str(ee) + "\n" )
f.write( MOL.save_string_xyz() )
f.close()
--------------------------------------------------------------------------

    Molecular point group: c1

    Geometry (in Angstrom), charge = 0, multiplicity = 1:

       Center              X                  Y                   Z               Mass
    ------------   -----------------  -----------------  -----------------  -----------------
           H         -2.463791584966    -1.102541255708    -1.136901270642     1.007825032070
           N         -1.561717584966    -1.055543255708    -0.704433270642    14.003074004780
           C         -1.459133584966     0.117039744292     0.146231729358    12.000000000000
           H         -0.881773584966    -0.997095255708    -1.437487270642     1.007825032070
           C         -0.076890584966     0.190961744292     0.760295729358    12.000000000000
           H         -1.654697584966     1.055494744292    -0.374401270642     1.007825032070
           H         -2.188209584966     0.030287744292     0.946046729358     1.007825032070
           O          0.850815415034     0.381416744292    -0.269353270642    15.994914619560
           H         -0.023588584966     1.016563744292     1.469646729358     1.007825032070
           H          0.136071415034    -0.732671255708     1.293946729358     1.007825032070
           C          2.178964415034     0.382589744292     0.147287729358    12.000000000000
           H          2.688024415034    -0.414561255708    -0.377217270642     1.007825032070
           H          2.668746415034     1.326098744292    -0.086990270642     1.007825032070
           H          2.259832415034     0.208399744292     1.218234729358     1.007825032070

  Charge       = 0
  Multiplicity = 1
  Basis Set: 6-31G*
  Basis Set:

    Orbital Energies (a.u.)
    -----------------------

    Doubly Occupied:

       1A    -20.554262     2A    -15.528286     3A    -11.266208
       4A    -11.265171     5A    -11.240390     6A     -1.380197
       7A     -1.173407     8A     -0.998363     9A     -0.907022
      10A     -0.816290    11A     -0.682745    12A     -0.672705
      13A     -0.642824    14A     -0.610076    15A     -0.606376
      16A     -0.538529    17A     -0.535216    18A     -0.494908
      19A     -0.474755    20A     -0.411882    21A     -0.379969

  @DF-RHF Final Energy:  -248.12087775911351

   => Energetics <=

    Nuclear Repulsion Energy =            194.7139394110909052
    One-Electron Energy =                -723.3104310717121734
    Two-Electron Energy =                 280.4756139015082113
    DFT Exchange-Correlation Energy =       0.0000000000000000
    Empirical Dispersion Energy =           0.0000000000000000
    PCM Polarization Energy =               0.0000000000000000
    EFP Energy =                            0.0000000000000000
    Total Energy =                       -248.1208777591130570

  Mulliken Charges: (a.u.)
   Center  Symbol    Alpha    Beta     Spin     Total
       1     H     0.33284  0.33284  0.00000  0.33432
       2     N     3.92536  3.92536  0.00000 -0.85071
       3     C     3.06903  3.06903  0.00000 -0.13806
       4     H     0.32368  0.32368  0.00000  0.35263
       5     C     2.99200  2.99200  0.00000  0.01599
       6     H     0.42660  0.42660  0.00000  0.14680
       7     H     0.42061  0.42061  0.00000  0.15878
       8     O     4.31175  4.31175  0.00000 -0.62351
       9     H     0.43069  0.43069  0.00000  0.13862
      10     H     0.42192  0.42192  0.00000  0.15616
      11     C     3.07641  3.07641  0.00000 -0.15282
      12     H     0.41915  0.41915  0.00000  0.16170
      13     H     0.42153  0.42153  0.00000  0.15694
      14     H     0.42842  0.42842  0.00000  0.14315

   Total alpha = 21.00000, Total beta = 21.00000, Total charge =  0.00000
