  ==> Input File <==

--------------------------------------------------------------------------
set {
	reference rhf
	basis 6-31G*
}

set_num_threads( 1 )
memory 2 gb

molecule MOL {
0 1

H	 0.770032	 -2.718575	 2.356893
O	 1.050643	 -2.231808	 1.588082
C	 0.250505	 -1.174407	 1.453555
C	 0.624473	 -0.343591	 0.253101
O	 -0.636824	 -0.953560	 2.211769
C	 -0.265902	 0.883932	 0.072916
H	 1.670079	 -0.076458	 0.365889
H	 0.576409	 -0.994565	 -0.616194
C	 -1.728698	 0.646073	 0.462102
H	 -0.209144	 1.219470	 -0.958188
H	 0.135059	 1.692851	 0.673903
C	 -2.482460	 -0.343073	 -0.431425
H	 -2.245265	 1.602650	 0.432430
H	 -1.779332	 0.308348	 1.496285
C	 -3.960546	 -0.461025	 -0.060175
H	 -2.395034	 -0.026811	 -1.468912
H	 -2.024850	 -1.327147	 -0.371646
H	 -4.472726	 -1.168004	 -0.705284
H	 -4.465146	 0.496508	 -0.151489
H	 -4.081218	 -0.800940	 0.964585

	symmetry c1
}
set optking {
	frozen_dihedral = ("
		16 12 9 6,
		12 9 6 10,
		5 3 4 7,
		1 2 3 5
	")
}

ee = energy('scf')
oeprop('DIPOLE', 'QUADRUPOLE', 'MULLIKEN_CHARGES')
f=open( 'psi4out.xyz', 'w' )
f.write( "20  " )
f.write( str(ee) + "\n" )
f.write( MOL.save_string_xyz() )
f.close()
--------------------------------------------------------------------------

    Molecular point group: c1

    Geometry (in Angstrom), charge = 0, multiplicity = 1:

       Center              X                  Y                   Z               Mass
    ------------   -----------------  -----------------  -----------------  -----------------
           H          1.655587635085    -2.182225228010     1.634886172457     1.007825032070
           O          1.936198635085    -1.695458228010     0.866075172457    15.994914619560
           C          1.136060635085    -0.638057228010     0.731548172457    12.000000000000
           C          1.510028635085     0.192758771990    -0.468905827543    12.000000000000
           O          0.248731635085    -0.417210228010     1.489762172457    15.994914619560
           C          0.619653635085     1.420281771990    -0.649090827543    12.000000000000
           H          2.555634635085     0.459891771990    -0.356117827543     1.007825032070
           H          1.461964635085    -0.458215228010    -1.338200827543     1.007825032070
           C         -0.843142364915     1.182422771990    -0.259904827543    12.000000000000
           H          0.676411635085     1.755819771990    -1.680194827543     1.007825032070
           H          1.020614635085     2.229200771990    -0.048103827543     1.007825032070
           C         -1.596904364915     0.193276771990    -1.153431827543    12.000000000000
           H         -1.359709364915     2.138999771990    -0.289576827543     1.007825032070
           H         -0.893776364915     0.844697771990     0.774278172457     1.007825032070
           C         -3.074990364915     0.075324771990    -0.782181827543    12.000000000000
           H         -1.509478364915     0.509538771990    -2.190918827543     1.007825032070
           H         -1.139294364915    -0.790797228010    -1.093652827543     1.007825032070
           H         -3.587170364915    -0.631654228010    -1.427290827543     1.007825032070
           H         -3.579590364915     1.032857771990    -0.873495827543     1.007825032070
           H         -3.195662364915    -0.264590228010     0.242578172457     1.007825032070

  Charge       = 0
  Multiplicity = 1
  Basis Set: 6-31G*
  Basis Set:

    Orbital Energies (a.u.)
    -----------------------

    Doubly Occupied:

       1A    -20.616218     2A    -20.554164     3A    -11.386480
       4A    -11.241353     5A    -11.221324     6A    -11.208740
       7A    -11.201878     8A    -11.193203     9A     -1.479868
      10A     -1.373075    11A     -1.089964    12A     -1.033377
      13A     -0.953630    14A     -0.866275    15A     -0.809942
      16A     -0.776399    17A     -0.708981    18A     -0.687649
      19A     -0.665150    20A     -0.628989    21A     -0.601919
      22A     -0.589969    23A     -0.568785    24A     -0.546677
      25A     -0.529599    26A     -0.512238    27A     -0.503334
      28A     -0.482896    29A     -0.475127    30A     -0.455157
      31A     -0.445078    32A     -0.412900

  @DF-RHF Final Energy:  -383.93089564918449

   => Energetics <=

    Nuclear Repulsion Energy =            397.0616096622235887
    One-Electron Energy =               -1310.3442699670831644
    Two-Electron Energy =                 529.3517646556756517
    DFT Exchange-Correlation Energy =       0.0000000000000000
    Empirical Dispersion Energy =           0.0000000000000000
    PCM Polarization Energy =               0.0000000000000000
    EFP Energy =                            0.0000000000000000
    Total Energy =                       -383.9308956491838671

  Mulliken Charges: (a.u.)
   Center  Symbol    Alpha    Beta     Spin     Total
       1     H     0.26778  0.26778  0.00000  0.46444
       2     O     4.35072  4.35072  0.00000 -0.70144
       3     C     2.61856  2.61856  0.00000  0.76287
       4     C     3.21547  3.21547  0.00000 -0.43095
       5     O     4.28272  4.28272  0.00000 -0.56543
       6     C     3.15644  3.15644  0.00000 -0.31287
       7     H     0.39470  0.39470  0.00000  0.21059
       8     H     0.39595  0.39595  0.00000  0.20810
       9     C     3.17508  3.17508  0.00000 -0.35017
      10     H     0.41696  0.41696  0.00000  0.16608
      11     H     0.41500  0.41500  0.00000  0.16999
      12     C     3.14992  3.14992  0.00000 -0.29985
      13     H     0.42759  0.42759  0.00000  0.14482
      14     H     0.37527  0.37527  0.00000  0.24946
      15     C     3.23877  3.23877  0.00000 -0.47755
      16     H     0.42758  0.42758  0.00000  0.14485
      17     H     0.42912  0.42912  0.00000  0.14177
      18     H     0.42185  0.42185  0.00000  0.15630
      19     H     0.42241  0.42241  0.00000  0.15518
      20     H     0.41810  0.41810  0.00000  0.16380

   Total alpha = 32.00000, Total beta = 32.00000, Total charge = -0.00000
