                              Psi4 1.0.54 Driver

  ==> Input File <==

--------------------------------------------------------------------------
set {
	reference rhf
	basis cc-pvtz
}

set_num_threads( 4 )
memory 2 gb

molecule MOL {
0 1

H	 2.828711	 -0.346904	 0.001083
C	 1.876752	 0.015931	 -0.363450
C	 0.776285	 -0.474665	 0.563092
H	 1.728113	 -0.357244	 -1.367440
H	 1.906171	 1.096574	 -0.386153
N	 -0.540022	 0.017605	 0.071630
H	 0.707111	 -1.548969	 0.573035
H	 0.886169	 -0.084184	 1.560432
O	 -1.507516	 -0.554394	 0.447088
O	 -0.529107	 0.930233	 -0.684272

	symmetry c1
}
set optking {
	frozen_dihedral = ("
		9 6 3 2
	")
}

ee,wfn = optimize('scf', return_wfn=True)
oeprop( wfn, 'DIPOLE', 'QUADRUPOLE', 'MULLIKEN_CHARGES')
f=open( 'psi4out.xyz', 'w' )
f.write( "10  " )
f.write( str(ee) + "\n" )
f.write( MOL.save_string_xyz() )
f.close()
--------------------------------------------------------------------------

    Molecular point group: c1
  Charge       = 0
  Multiplicity = 1
  Basis Set: CC-PVTZ
  Basis Set:
  @DF-RHF Final Energy:  -282.81121981516418
    Total Energy =                       -282.8112198151643497
    Molecular point group: c1
  Basis Set: CC-PVTZ
  Basis Set:
  Basis Set: CC-PVTZ
  Basis Set:
  @DF-RHF Final Energy:  -282.51373303083653
    Total Energy =                       -282.5137330308365335
  Basis Set: CC-PVTZ
  Basis Set:
  Basis Set: CC-PVTZ
  Basis Set:
  @DF-RHF Final Energy:  -282.67220742913003
    Total Energy =                       -282.6722074291302533
  Basis Set: CC-PVTZ
  Basis Set:
  Basis Set: CC-PVTZ
  Basis Set:
  @DF-RHF Final Energy:  -282.78824483233257
    Total Energy =                       -282.7882448323326798
  Basis Set: CC-PVTZ
  Basis Set:
  @DF-RHF Final Energy:  -282.80088871762877
    Total Energy =                       -282.8008887176287089
  @DF-RHF Final Energy:  -282.81225998437912
    Total Energy =                       -282.8122599843791249
  @DF-RHF Final Energy:  -282.81236009336817
    Total Energy =                       -282.8123600933681701
  @DF-RHF Final Energy:  -282.81277274147243
    Total Energy =                       -282.8127727414724859
  Basis Set: CC-PVTZ
  Basis Set:
  @DF-RHF Final Energy:  -282.81291579276046
    Total Energy =                       -282.8129157927604638
  Basis Set: CC-PVTZ
  Basis Set:
  Basis Set: CC-PVTZ
  Basis Set:
  @DF-RHF Final Energy:  -282.81291617552034
    Total Energy =                       -282.8129161755203427
  Basis Set: CC-PVTZ
  Basis Set:
  Basis Set: CC-PVTZ
  Basis Set:
  @DF-RHF Final Energy:  -282.81292251658442
    Total Energy =                       -282.8129225165844787
  Basis Set: CC-PVTZ
  Basis Set:
  Charge       = 0
  Multiplicity = 1
  Basis Set: CC-PVTZ
  Basis Set:

    Orbital Energies (a.u.)
    -----------------------

    Doubly Occupied:

       1A    -20.593959     2A    -20.590018     3A    -15.839544
       4A    -11.303170     5A    -11.244117     6A     -1.638604
       7A     -1.422836     8A     -1.124105     9A     -0.966962
      10A     -0.835351    11A     -0.763723    12A     -0.751179
      13A     -0.732141    14A     -0.641250    15A     -0.594052
      16A     -0.564147    17A     -0.538921    18A     -0.490120
      19A     -0.479846    20A     -0.455563

  @DF-RHF Final Energy:  -282.81292266965454

   => Energetics <=

    Nuclear Repulsion Energy =            186.5720910953532155
    One-Electron Energy =                -755.6308114068503983
    Two-Electron Energy =                 286.2457976418426142
    DFT Exchange-Correlation Energy =       0.0000000000000000
    Empirical Dispersion Energy =           0.0000000000000000
    PCM Polarization Energy =               0.0000000000000000
    EFP Energy =                            0.0000000000000000
    Total Energy =                       -282.8129226696545402
    Molecular point group: c1
  Basis Set: CC-PVTZ
  Basis Set:

  -Total Gradient:
     Atom            X                  Y                   Z
    ------   -----------------  -----------------  -----------------
       1       -0.000002841136     0.000003331559     0.000000973105
       2        0.000027586007     0.000058180501     0.000056303261
       3       -0.000029174915    -0.000056912524    -0.000040816306
       4        0.000000775754     0.000001841511    -0.000000195267
       5        0.000002022864    -0.000002500588    -0.000003151484
       6       -0.000034561533    -0.000075790997    -0.000118253804
       7        0.000003321072     0.000004690178    -0.000005086647
       8       -0.000001395927    -0.000008305774     0.000004290633
       9        0.000037368510     0.000118029200     0.000083367854
      10       -0.000003100697    -0.000042563068     0.000022568657

  **** Optimization is complete! (in 12 steps) ****
    Final optimized geometry and variables:
    Molecular point group: c1

    Geometry (in Angstrom), charge = 0, multiplicity = 1:

    H            2.428237927088     0.386146432636    -1.497344645508
    C            1.401736126850     0.607276269306    -1.231769489674
    C            0.989504366797    -0.328468669551    -0.118293553876
    H            0.784313775916     0.468714331423    -2.108678475938
    H            1.336337333207     1.639722788292    -0.925353337936
    N           -0.426600234833    -0.138384114245     0.320204279447
    H            1.058116810342    -1.368447423438    -0.389750263991
    H            1.567961659423    -0.173972840002     0.781693797807
    O           -0.920119207695    -1.044711404279     0.902778445112
    O           -0.952493671721     0.896695471860     0.090583307653

  Mulliken Charges: (a.u.)
   Center  Symbol    Alpha    Beta     Spin     Total
       1     H     0.44935  0.44935  0.00000  0.10130
       2     C     3.13914  3.13914  0.00000 -0.27828
       3     C     3.04279  3.04279  0.00000 -0.08559
       4     H     0.44417  0.44417  0.00000  0.11165
       5     H     0.43857  0.43857  0.00000  0.12286
       6     N     3.27647  3.27647  0.00000  0.44706
       7     H     0.43156  0.43156  0.00000  0.13687
       8     H     0.43529  0.43529  0.00000  0.12943
       9     O     4.17246  4.17246  0.00000 -0.34492
      10     O     4.17019  4.17019  0.00000 -0.34038

   Total alpha = 20.00000, Total beta = 20.00000, Total charge =  0.00000

*** Psi4 exiting successfully. Buy a developer a beer!
