  ==> Input File <==

--------------------------------------------------------------------------
set {
	reference rhf
	basis cc-pvtz
}

set_num_threads( 4 )
memory 2 gb

molecule MOL {
0 1

H	 -2.296526	 0.891618	 1.301092
C	 -1.298647	 0.475718	 1.348378
C	 -0.600949	 0.658697	 -0.000002
H	 -1.375659	 -0.572408	 1.604474
H	 -0.754420	 0.978627	 2.136404
C	 0.763408	 0.112229	 -0.000006
H	 -1.153123	 0.164797	 -0.788734
H	 -0.535383	 1.707095	 -0.259802
N	 1.806008	 -0.317179	 0.000007

	symmetry c1
}
set optking {
	frozen_dihedral = ("
		7 3 6 9
	")
}

ee = optimize('scf')
oeprop('DIPOLE', 'QUADRUPOLE', 'MULLIKEN_CHARGES')
f=open( 'psi4out.xyz', 'w' )
f.write( "9  " )
f.write( str(ee) + "\n" )
f.write( MOL.save_string_xyz() )
f.close()
--------------------------------------------------------------------------

    Molecular point group: c1
  Charge       = 0
  Multiplicity = 1
  Basis Set: CC-PVTZ
  Basis Set:
  @DF-RHF Final Energy:  -171.02345497146297
    Total Energy =                       -171.0234549714631385
    Molecular point group: c1
  Basis Set: CC-PVTZ
  Basis Set:
  Basis Set: CC-PVTZ
  Basis Set:
  @DF-RHF Final Energy:  -170.50202955008075
    Total Energy =                       -170.5020295500806640
  Basis Set: CC-PVTZ
  Basis Set:
  Basis Set: CC-PVTZ
  Basis Set:
  @DF-RHF Final Energy:  -170.51262629000848
    Total Energy =                       -170.5126262900086260
  Basis Set: CC-PVTZ
  Basis Set:
  Basis Set: CC-PVTZ
  Basis Set:
  @DF-RHF Final Energy:  -170.51817579260381
    Total Energy =                       -170.5181757926039552
  Basis Set: CC-PVTZ
  Basis Set:
  @DF-RHF Final Energy:  -170.52120044294065
    Total Energy =                       -170.5212004429406534
  @DF-RHF Final Energy:  -170.52607243219353
    Total Energy =                       -170.5260724321935868
  @DF-RHF Final Energy:  -170.53738869694237
    Total Energy =                       -170.5373886969424007
  @DF-RHF Final Energy:  -170.55527564426296
    Total Energy =                       -170.5552756442630198
  @DF-RHF Final Energy:  -170.57242793719752
    Total Energy =                       -170.5724279371976024
  @DF-RHF Final Energy:  -170.57843752923540
    Total Energy =                       -170.5784375292353729
  @DF-RHF Final Energy:  -170.57989049283958
    Total Energy =                       -170.5798904928394961
  @DF-RHF Final Energy:  -170.57933646621109
    Total Energy =                       -170.5793364662110889
  @DF-RHF Final Energy:  -170.58230578688799
    Total Energy =                       -170.5823057868879289
  @DF-RHF Final Energy:  -170.58264057751546
    Total Energy =                       -170.5826405775153773
  @DF-RHF Final Energy:  -170.58268599844519
    Total Energy =                       -170.5826859984452426
  @DF-RHF Final Energy:  -170.58270128404234
    Total Energy =                       -170.5827012840423436
  @DF-RHF Final Energy:  -170.58271067288194
    Total Energy =                       -170.5827106728820013
  @DF-RHF Final Energy:  -170.58271966764516
    Total Energy =                       -170.5827196676451933
  @DF-RHF Final Energy:  -170.58272937794851
    Total Energy =                       -170.5827293779484819
  @DF-RHF Final Energy:  -170.58273957766841
    Total Energy =                       -170.5827395776685194
  @DF-RHF Final Energy:  -170.87452559906126
    Total Energy =                       -170.8745255990612577
  @DF-RHF Final Energy:  -170.86473340293730
    Total Energy =                       -170.8647334029373042
  @DF-RHF Final Energy:  -170.88667427481008
    Total Energy =                       -170.8866742748099625
  @DF-RHF Final Energy:  -170.92740643930119
    Total Energy =                       -170.9274064393011372
  @DF-RHF Final Energy:  -170.87347966168690
    Total Energy =                       -170.8734796616869858
  @DF-RHF Final Energy:  -170.89346818899872
    Total Energy =                       -170.8934681889987814
  @DF-RHF Final Energy:  -170.93352715230236
    Total Energy =                       -170.9335271523024744
  @DF-RHF Final Energy:  -170.97718678859690
    Total Energy =                       -170.9771867885968959
  @DF-RHF Final Energy:  -171.00546601345638
    Total Energy =                       -171.0054660134564983
  @DF-RHF Final Energy:  -171.01990678100879
    Total Energy =                       -171.0199067810087570
  @DF-RHF Final Energy:  -171.02242150782160
    Total Energy =                       -171.0224215078215764
  @DF-RHF Final Energy:  -171.02183047059677
    Total Energy =                       -171.0218304705967682
  @DF-RHF Final Energy:  -171.02301513895586
    Total Energy =                       -171.0230151389557136
  @DF-RHF Final Energy:  -171.02325075723121
    Total Energy =                       -171.0232507572314375
  @DF-RHF Final Energy:  -171.02320464634639
    Total Energy =                       -171.0232046463462439
  @DF-RHF Final Energy:  -171.02310801494997
    Total Energy =                       -171.0231080149499689
  Basis Set: CC-PVTZ
  Basis Set:
  @DF-RHF Final Energy:  -171.02321094827607
    Total Energy =                       -171.0232109482761018
  Basis Set: CC-PVTZ
  Basis Set:
  Basis Set: CC-PVTZ
  Basis Set:
  @DF-RHF Final Energy:  -171.02332026791265
    Total Energy =                       -171.0233202679127658
  Basis Set: CC-PVTZ
  Basis Set:
  Basis Set: CC-PVTZ
  Basis Set:
  @DF-RHF Final Energy:  -171.02319578565948
    Total Energy =                       -171.0231957856593965
  Basis Set: CC-PVTZ
  Basis Set:
  Charge       = 0
  Multiplicity = 1
  Basis Set: CC-PVTZ
  Basis Set:

    Orbital Energies (a.u.)
    -----------------------

    Doubly Occupied:

       1A    -15.556328     2A    -11.282071     3A    -11.260877
       4A    -11.244278     5A     -1.229410     6A     -1.084938
       7A     -0.913793     8A     -0.700711     9A     -0.661417
      10A     -0.590335    11A     -0.563274    12A     -0.545298
      13A     -0.540192    14A     -0.464217    15A     -0.463743

  @DF-RHF Final Energy:  -171.02332782637274

   => Energetics <=

    Nuclear Repulsion Energy =            103.7710095962070369
    One-Electron Energy =                -435.3869120683282858
    Two-Electron Energy =                 160.5925746457485275
    DFT Exchange-Correlation Energy =       0.0000000000000000
    Empirical Dispersion Energy =           0.0000000000000000
    PCM Polarization Energy =               0.0000000000000000
    EFP Energy =                            0.0000000000000000
    Total Energy =                       -171.0233278263727357
    Molecular point group: c1
  Basis Set: CC-PVTZ
  Basis Set:

  -Total Gradient:
     Atom            X                  Y                   Z
    ------   -----------------  -----------------  -----------------
       1        0.000249595091     0.000260006848     0.000040080855
       2        0.000344686065     0.000798005406    -0.000630791278
       3        0.000519049742    -0.000204450449     0.000596094883
       4       -0.000225615598     0.000168359715    -0.000100463780
       5        0.000038973214    -0.000732762894    -0.000302262616
       6        0.000458688510    -0.000908635860     0.000776316154
       7        0.000676464135    -0.000028784865     0.000098664616
       8       -0.000712014226    -0.000407470102     0.000056347119
       9       -0.001349826934     0.001055732202    -0.000533985952

    Molecular point group: c1

    Geometry (in Angstrom), charge = 0, multiplicity = 1:

    H           -2.358073440478     0.725324756218     0.966530053571
    C           -1.395718084340     0.231458738185     0.984998626144
    C           -0.706628770505     0.395646418133    -0.369729038899
    H           -1.550787231655    -0.814411105856     1.215298179197
    H           -0.800295923859     0.664526818147     1.777267801712
    C            0.660618553834    -0.143159859025    -0.372783242339
    H           -1.263669034583    -0.111198464405    -1.146837677075
    H           -0.645117403767     1.439190540170    -0.647767270082
    N            1.711800441444    -0.551712468980    -0.363581913274

  Mulliken Charges: (a.u.)
   Center  Symbol    Alpha    Beta     Spin     Total
       1     H     0.44613  0.44613  0.00000  0.10774
       2     C     3.13574  3.13574  0.00000 -0.27149
       3     C     3.07935  3.07935  0.00000 -0.15870
       4     H     0.44515  0.44515  0.00000  0.10971
       5     H     0.44464  0.44464  0.00000  0.11072
       6     C     3.04237  3.04237  0.00000 -0.08474
       7     H     0.43206  0.43206  0.00000  0.13587
       8     H     0.43198  0.43198  0.00000  0.13605
       9     N     3.54257  3.54257  0.00000 -0.08515

   Total alpha = 15.00000, Total beta = 15.00000, Total charge =  0.00000
