  ==> Input File <==

--------------------------------------------------------------------------
set {
	reference rhf
	basis 6-31G*
}

set_num_threads( 4 )
memory 2 gb

molecule MOL {
0 1

H	 5.268524	 0.192471	 1.070992
C	 4.673736	 -0.214914	 0.259335
C	 3.185378	 -0.203514	 0.605509
H	 4.871837	 0.380453	 -0.627026
H	 5.025590	 -1.224632	 0.065769
C	 2.317601	 -0.778379	 -0.516234
H	 2.874655	 0.814325	 0.817774
H	 3.023650	 -0.778480	 1.515976
C	 1.933161	 -2.243328	 -0.307914
H	 1.413784	 -0.187761	 -0.615880
H	 2.854912	 -0.696709	 -1.458395
C	 0.924311	 -2.474072	 0.807532
H	 1.484539	 -2.638469	 -1.218064
H	 2.814450	 -2.854275	 -0.125563
C	 0.782133	 -3.887654	 1.344454
O	 0.252422	 -1.585090	 1.237278
C	 0.296900	 -4.900781	 0.296941
H	 0.085670	 -3.843191	 2.173114
H	 1.746143	 -4.207702	 1.735529
C	 0.071228	 -6.291091	 0.894201
H	 -0.631554	 -4.543906	 -0.143774
H	 1.017744	 -4.974784	 -0.513231
C	 -0.411893	 -7.308383	 -0.138570
H	 -0.654444	 -6.221304	 1.700793
H	 0.996860	 -6.643363	 1.344208
H	 -1.353416	 -6.998916	 -0.582971
H	 0.309992	 -7.426214	 -0.941757
H	 -0.564545	 -8.282907	 0.314064

	symmetry c1
}
set optking {
	frozen_dihedral = ("
		10 6 3 2
	")
}

ee = optimize('scf')
oeprop('DIPOLE', 'QUADRUPOLE', 'MULLIKEN_CHARGES')
f=open( 'psi4out.xyz', 'w' )
f.write( "28  " )
f.write( str(ee) + "\n" )
f.write( MOL.save_string_xyz() )
f.close()
--------------------------------------------------------------------------

    Molecular point group: c1
  Charge       = 0
  Multiplicity = 1
  Basis Set: 6-31G*
  Basis Set:
  @DF-RHF Final Energy:  -426.16467523934671
    Total Energy =                       -426.1646752393467068
    Molecular point group: c1
  Basis Set: 6-31G*
  Basis Set:
  Basis Set: 6-31G*
  Basis Set:
  @DF-RHF Final Energy:  -426.16495087199610
    Total Energy =                       -426.1649508719957566
  Basis Set: 6-31G*
  Basis Set:
  Basis Set: 6-31G*
  Basis Set:
  @DF-RHF Final Energy:  -426.16378302170199
    Total Energy =                       -426.1637830217018745
  Basis Set: 6-31G*
  Basis Set:
  Basis Set: 6-31G*
  Basis Set:
  @DF-RHF Final Energy:  -426.16501796123225
    Total Energy =                       -426.1650179612317970
  Basis Set: 6-31G*
  Basis Set:
  Basis Set: 6-31G*
  Basis Set:
  @DF-RHF Final Energy:  -426.16502961492108
    Total Energy =                       -426.1650296149206270
  Basis Set: 6-31G*
  Basis Set:
  Basis Set: 6-31G*
  Basis Set:
  @DF-RHF Final Energy:  -426.16502780978362
    Total Energy =                       -426.1650278097840783
  Basis Set: 6-31G*
  Basis Set:
  Basis Set: 6-31G*
  Basis Set:
  @DF-RHF Final Energy:  -426.16503865440006
    Total Energy =                       -426.1650386543994955
  Basis Set: 6-31G*
  Basis Set:
  Charge       = 0
  Multiplicity = 1
  Basis Set: 6-31G*
  Basis Set:

    Orbital Energies (a.u.)
    -----------------------

    Doubly Occupied:

       1A    -20.548105     2A    -11.321634     3A    -11.232422
       4A    -11.230232     5A    -11.228799     6A    -11.226075
       7A    -11.216313     8A    -11.216142     9A    -11.212740
      10A    -11.208776    11A     -1.393108    12A     -1.094990
      13A     -1.076561    14A     -1.022071    15A     -0.990258
      16A     -0.908528    17A     -0.875861    18A     -0.809273
      19A     -0.799286    20A     -0.721143    21A     -0.665563
      22A     -0.650416    23A     -0.640144    24A     -0.619325
      25A     -0.600963    26A     -0.596065    27A     -0.577140
      28A     -0.569357    29A     -0.541233    30A     -0.535760
      31A     -0.522914    32A     -0.507380    33A     -0.502882
      34A     -0.484833    35A     -0.480184    36A     -0.475936
      37A     -0.468574    38A     -0.459527    39A     -0.456979
      40A     -0.392523

  @DF-RHF Final Energy:  -426.16503934572415

   => Energetics <=

    Nuclear Repulsion Energy =            533.1085470184455062
    One-Electron Energy =               -1634.3871405323639010
    Two-Electron Energy =                 675.1135541681937866
    DFT Exchange-Correlation Energy =       0.0000000000000000
    Empirical Dispersion Energy =           0.0000000000000000
    PCM Polarization Energy =               0.0000000000000000
    EFP Energy =                            0.0000000000000000
    Total Energy =                       -426.1650393457246082
    Molecular point group: c1
  Basis Set: 6-31G*
  Basis Set:

  -Total Gradient:
     Atom            X                  Y                   Z
    ------   -----------------  -----------------  -----------------
       1        0.000026871627     0.000014198405    -0.000012482552
       2       -0.000240720060     0.002179494989    -0.001003714247
       3        0.000767912682    -0.002510229631     0.000903897065
       4       -0.000004116453    -0.000014008813    -0.000009326157
       5       -0.000021718535     0.000005503983     0.000014713228
       6       -0.002019582248    -0.001496312924     0.002348096338
       7        0.000042578439    -0.000013316797     0.000015699761
       8        0.000013578936    -0.000001382851     0.000046049677
       9        0.000075024254    -0.000008643479    -0.000012949571
      10        0.001481372533     0.001883635841    -0.002298061739
      11       -0.000020960166    -0.000020199534     0.000002136922
      12       -0.000062250619    -0.000010933624     0.000016195998
      13       -0.000035288217     0.000002117200     0.000030808818
      14        0.000017928809     0.000001963501    -0.000031929768
      15       -0.000069687287    -0.000015658306    -0.000052360997
      16       -0.000021128334    -0.000002480356     0.000009571004
      17        0.000025661172    -0.000001669557     0.000022664860
      18        0.000009764967    -0.000010671634     0.000007134232
      19        0.000021526335     0.000011779149     0.000006773040
      20        0.000006161606     0.000002911013     0.000001826351
      21        0.000006437821     0.000003717001    -0.000016584309
      22        0.000008870581    -0.000005240505     0.000008232419
      23       -0.000013850650     0.000006502891     0.000003022880
      24        0.000006802520     0.000000582134     0.000006210780
      25        0.000002098242    -0.000003021224    -0.000005824684
      26       -0.000000817566    -0.000000540933    -0.000005355531
      27        0.000001516353    -0.000000175206     0.000003972749
      28       -0.000003986734     0.000002079262     0.000001583433

  **** Optimization is complete! (in 8 steps) ****
    Final optimized geometry and variables:
    Molecular point group: c1

    Geometry (in Angstrom), charge = 0, multiplicity = 1:

    H            3.821407816164     3.295985057864     0.630029780421
    C            3.249948284451     2.857172293108    -0.182243478705
    C            1.754230303410     2.842331620578     0.137340510501
    H            3.448648446640     3.437230101156    -1.078703850700
    H            3.634702297960     1.853889551497    -0.349057267722
    C            0.901985610611     2.196976928328    -0.973308762815
    H            1.425149708629     3.865527679618     0.290116857622
    H            1.582736032054     2.336331295708     1.082444253047
    C            0.571971462467     0.724769574829    -0.732879637432
    H           -0.015793279428     2.754198882190    -1.113016129456
    H            1.439010326976     2.270746084489    -1.916204484447
    C           -0.439746237573     0.491499961154     0.379306257100
    H            0.154825859911     0.285263867423    -1.637329510565
    H            1.472196312927     0.152449306984    -0.518060401341
    C           -0.598053929499    -0.927010917829     0.899655888721
    O           -1.098071543300     1.383466721387     0.823108194873
    C           -1.120872953741    -1.916884996651    -0.152080555229
    H           -1.279816481038    -0.880636272881     1.740344300974
    H            0.365677744650    -1.271132317260     1.270338491557
    C           -1.375051113453    -3.306862116550     0.434364213643
    H           -2.044854260300    -1.532234268276    -0.578540723753
    H           -0.411335729165    -2.001332702099    -0.971116235640
    C           -1.897095092429    -4.300846160763    -0.602153580689
    H           -2.088675923943    -3.226469505957     1.250640742409
    H           -0.453375326184    -3.687433088916     0.869237715228
    H           -2.835279905250    -3.962310447294    -1.032180026313
    H           -1.188124185326    -4.429761324741    -1.415076283096
    H           -2.070123381723    -5.275429731589    -0.156993459731

  Mulliken Charges: (a.u.)
   Center  Symbol    Alpha    Beta     Spin     Total
       1     H     0.41910  0.41910  0.00000  0.16179
       2     C     3.24066  3.24066  0.00000 -0.48132
       3     C     3.15359  3.15359  0.00000 -0.30717
       4     H     0.42130  0.42130  0.00000  0.15740
       5     H     0.42556  0.42556  0.00000  0.14888
       6     C     3.15345  3.15345  0.00000 -0.30691
       7     H     0.41610  0.41610  0.00000  0.16781
       8     H     0.41861  0.41861  0.00000  0.16278
       9     C     3.21194  3.21194  0.00000 -0.42389
      10     H     0.40461  0.40461  0.00000  0.19078
      11     H     0.42078  0.42078  0.00000  0.15844
      12     C     2.73189  2.73189  0.00000  0.53621
      13     H     0.40372  0.40372  0.00000  0.19256
      14     H     0.41249  0.41249  0.00000  0.17501
      15     C     3.20168  3.20168  0.00000 -0.40335
      16     O     4.26564  4.26564  0.00000 -0.53128
      17     C     3.16365  3.16365  0.00000 -0.32730
      18     H     0.39974  0.39974  0.00000  0.20053
      19     H     0.41335  0.41335  0.00000  0.17330
      20     C     3.15180  3.15180  0.00000 -0.30360
      21     H     0.41368  0.41368  0.00000  0.17264
      22     H     0.41884  0.41884  0.00000  0.16231
      23     C     3.24034  3.24034  0.00000 -0.48067
      24     H     0.41835  0.41835  0.00000  0.16330
      25     H     0.42145  0.42145  0.00000  0.15711
      26     H     0.41959  0.41959  0.00000  0.16083
      27     H     0.42121  0.42121  0.00000  0.15758
      28     H     0.41688  0.41688  0.00000  0.16624

   Total alpha = 40.00000, Total beta = 40.00000, Total charge = -0.00000
