  ==> Input File <==

--------------------------------------------------------------------------
set {
	reference rhf
	basis 6-31G*
}

set_num_threads( 4 )
memory 2 gb

molecule MOL {
0 1

H	 2.994032	 0.338615	 1.126923
O	 2.292888	 0.891066	 0.812464
C	 1.135793	 0.118896	 0.612333
C	 0.031547	 1.023609	 0.088541
H	 0.813992	 -0.334389	 1.548210
H	 1.333210	 -0.690030	 -0.087501
C	 -1.134819	 0.293262	 -0.585751
H	 0.474374	 1.714721	 -0.623187
H	 -0.338529	 1.620940	 0.920081
C	 -1.917817	 -0.639439	 0.339494
H	 -0.758119	 -0.268455	 -1.433105
H	 -1.813832	 1.041889	 -0.986690
H	 -2.777680	 -1.057197	 -0.174994
H	 -1.310268	 -1.471279	 0.680599
H	 -2.283753	 -0.111424	 1.216626

	symmetry c1
}
set optking {
	frozen_dihedral = ("
		2 3 4 8
	")
}

ee = optimize('scf')
oeprop('DIPOLE', 'QUADRUPOLE', 'MULLIKEN_CHARGES')
f=open( 'psi4out.xyz', 'w' )
f.write( "15  " )
f.write( str(ee) + "\n" )
f.write( MOL.save_string_xyz() )
f.close()
--------------------------------------------------------------------------

    Molecular point group: c1
  Charge       = 0
  Multiplicity = 1
  Basis Set: 6-31G*
  Basis Set:
  @DF-RHF Final Energy:  -232.14234410775583
    Total Energy =                       -232.1423441077557754
    Molecular point group: c1
  Basis Set: 6-31G*
  Basis Set:
  Basis Set: 6-31G*
  Basis Set:
  @DF-RHF Final Energy:  -232.14262671870696
    Total Energy =                       -232.1426267187069357
  Basis Set: 6-31G*
  Basis Set:
  Basis Set: 6-31G*
  Basis Set:
  @DF-RHF Final Energy:  -232.14259924954376
    Total Energy =                       -232.1425992495436503
  Basis Set: 6-31G*
  Basis Set:
  Basis Set: 6-31G*
  Basis Set:
  @DF-RHF Final Energy:  -232.14266748445465
    Total Energy =                       -232.1426674844546483
  Basis Set: 6-31G*
  Basis Set:
  Basis Set: 6-31G*
  Basis Set:
  @DF-RHF Final Energy:  -232.14267191056365
    Total Energy =                       -232.1426719105635925
  Basis Set: 6-31G*
  Basis Set:
  Charge       = 0
  Multiplicity = 1
  Basis Set: 6-31G*
  Basis Set:

    Orbital Energies (a.u.)
    -----------------------

    Doubly Occupied:

       1A    -20.552078     2A    -11.267214     3A    -11.218438
       4A    -11.211780     5A    -11.210955     6A     -1.358811
       7A     -1.069863     8A     -0.970234     9A     -0.870044
      10A     -0.784434    11A     -0.697031    12A     -0.649544
      13A     -0.613429    14A     -0.587933    15A     -0.555973
      16A     -0.536146    17A     -0.508945    18A     -0.474203
      19A     -0.472693    20A     -0.455967    21A     -0.432756

  @DF-RHF Final Energy:  -232.14267210469893

   => Energetics <=

    Nuclear Repulsion Energy =            188.2018982138268939
    One-Electron Energy =                -687.6921958939055912
    Two-Electron Energy =                 267.3476255753797659
    DFT Exchange-Correlation Energy =       0.0000000000000000
    Empirical Dispersion Energy =           0.0000000000000000
    PCM Polarization Energy =               0.0000000000000000
    EFP Energy =                            0.0000000000000000
    Total Energy =                       -232.1426721046989314
    Molecular point group: c1
  Basis Set: 6-31G*
  Basis Set:

  -Total Gradient:
     Atom            X                  Y                   Z
    ------   -----------------  -----------------  -----------------
       1       -0.000064835539    -0.000036407154    -0.000024343696
       2        0.000494624797    -0.000373240719    -0.002047113297
       3       -0.000665989988     0.000753837354     0.003053871393
       4       -0.000323685095    -0.002054910004    -0.002982542416
       5        0.000000322757    -0.000038426540     0.000025628909
       6        0.000077288913     0.000061970124     0.000023647540
       7        0.000044590043    -0.000035057036    -0.000013906942
       8        0.000441667133     0.001737215258     0.001928510566
       9       -0.000000698829    -0.000017603343     0.000005497685
      10        0.000004688872    -0.000022022761    -0.000010746862
      11       -0.000001784882     0.000015741946     0.000039173182
      12        0.000011150434     0.000014437947     0.000014458655
      13       -0.000029228072    -0.000001308359     0.000008819976
      14       -0.000013193269    -0.000004865367    -0.000011676067
      15        0.000025082724     0.000000638651    -0.000009278628

  **** Optimization is complete! (in 6 steps) ****
    Final optimized geometry and variables:
    Molecular point group: c1

    Geometry (in Angstrom), charge = 0, multiplicity = 1:

    H            2.825626370845     0.022227216968     0.913272275502
    O            2.143926391628     0.557182480038     0.532411609094
    C            0.994876597051    -0.223519174680     0.321713322969
    C           -0.105359987437     0.693566777754    -0.194983072553
    H            0.690419573312    -0.714139387527     1.243271332576
    H            1.201029529094    -1.003696780640    -0.410926164165
    C           -1.273689246013    -0.035890736983    -0.862043692833
    H            0.352963910905     1.387820771783    -0.892352717961
    H           -0.471576708049     1.299355409286     0.630762788293
    C           -2.051197753964    -0.965397273471     0.072682780339
    H           -0.905811082736    -0.604795493776    -1.713357460470
    H           -1.956046416237     0.706750355723    -1.266357558473
    H           -2.907403009127    -1.397865519055    -0.435468556573
    H           -1.437650495005    -1.786902571246     0.430126024397
    H           -2.419681297792    -0.426255776552     0.941101212896

  Mulliken Charges: (a.u.)
   Center  Symbol    Alpha    Beta     Spin     Total
       1     H     0.28138  0.28138  0.00000  0.43724
       2     O     4.37182  4.37182  0.00000 -0.74364
       3     C     2.99206  2.99206  0.00000  0.01589
       4     C     3.16126  3.16126  0.00000 -0.32252
       5     H     0.43064  0.43064  0.00000  0.13872
       6     H     0.43300  0.43300  0.00000  0.13399
       7     C     3.15987  3.15987  0.00000 -0.31974
       8     H     0.40899  0.40899  0.00000  0.18203
       9     H     0.41831  0.41831  0.00000  0.16338
      10     C     3.24232  3.24232  0.00000 -0.48464
      11     H     0.42184  0.42184  0.00000  0.15632
      12     H     0.41804  0.41804  0.00000  0.16393
      13     H     0.41793  0.41793  0.00000  0.16415
      14     H     0.42212  0.42212  0.00000  0.15576
      15     H     0.42043  0.42043  0.00000  0.15914

   Total alpha = 21.00000, Total beta = 21.00000, Total charge =  0.00000
