                              Psi4 1.0.54 Driver

  ==> Input File <==

--------------------------------------------------------------------------
set {
	reference rhf
	basis cc-pvtz
}

set_num_threads( 4 )
memory 2 gb

molecule MOL {
0 1

O	 -0.988175	 -1.402891	 0.050086
C	 -0.675048	 -0.248293	 -0.009686
C	 -1.742492	 0.826599	 -0.011538
N	 0.622280	 0.144970	 -0.099307
H	 -1.692153	 1.431066	 -0.908439
H	 -2.698310	 0.331559	 0.031353
H	 -1.642148	 1.483784	 0.843455
C	 1.002329	 1.430745	 0.446854
C	 1.588945	 -0.459450	 -0.984739
H	 1.977266	 1.351630	 0.912109
H	 0.280627	 1.738957	 1.181246
H	 1.055483	 2.189581	 -0.329660
H	 2.568899	 -0.411631	 -0.527531
H	 1.366453	 -1.496409	 -1.169428
H	 1.642192	 0.056549	 -1.940748

	symmetry c1
}
set optking {
	frozen_dihedral = ("
		8 4 2 3
	")
}

ee,wfn = optimize('scf', return_wfn=True)
oeprop( wfn, 'DIPOLE', 'QUADRUPOLE', 'MULLIKEN_CHARGES')
f=open( 'psi4out.xyz', 'w' )
f.write( "15  " )
f.write( str(ee) + "\n" )
f.write( MOL.save_string_xyz() )
f.close()
--------------------------------------------------------------------------

    Molecular point group: c1
  Charge       = 0
  Multiplicity = 1
  Basis Set: CC-PVTZ
  Basis Set:
  @DF-RHF Final Energy:  -286.11981783285381
    Total Energy =                       -286.1198178328540962
    Molecular point group: c1
  Basis Set: CC-PVTZ
  Basis Set:
  Basis Set: CC-PVTZ
  Basis Set:
  @DF-RHF Final Energy:  -286.09474184671512
    Total Energy =                       -286.0947418467151238
  Basis Set: CC-PVTZ
  Basis Set:
  Basis Set: CC-PVTZ
  Basis Set:
  @DF-RHF Final Energy:  -286.12365237194047
    Total Energy =                       -286.1236523719404659
  Basis Set: CC-PVTZ
  Basis Set:
  Basis Set: CC-PVTZ
  Basis Set:
  @DF-RHF Final Energy:  -286.12774187538798
    Total Energy =                       -286.1277418753878692
  Basis Set: CC-PVTZ
  Basis Set:
  @DF-RHF Final Energy:  -286.13021558246294
    Total Energy =                       -286.1302155824630518
  @DF-RHF Final Energy:  -286.13142610943481
    Total Energy =                       -286.1314261094347557
  @DF-RHF Final Energy:  -286.13228155570482
    Total Energy =                       -286.1322815557045374
  @DF-RHF Final Energy:  -286.13333666945221
    Total Energy =                       -286.1333366694521487
  @DF-RHF Final Energy:  -286.13390195285405
    Total Energy =                       -286.1339019528540462
  @DF-RHF Final Energy:  -286.13458303196035
    Total Energy =                       -286.1345830319606307
  @DF-RHF Final Energy:  -286.13473984135203
    Total Energy =                       -286.1347398413518590
  @DF-RHF Final Energy:  -286.13479737281597
    Total Energy =                       -286.1347973728159104
  @DF-RHF Final Energy:  -286.13481247651259
    Total Energy =                       -286.1348124765125931
  Basis Set: CC-PVTZ
  Basis Set:
  @DF-RHF Final Energy:  -286.13481986055535
    Total Energy =                       -286.1348198605555240
  Basis Set: CC-PVTZ
  Basis Set:
  Basis Set: CC-PVTZ
  Basis Set:
  @DF-RHF Final Energy:  -286.13482371492898
    Total Energy =                       -286.1348237149288138
  Basis Set: CC-PVTZ
  Basis Set:
  Basis Set: CC-PVTZ
  Basis Set:
  @DF-RHF Final Energy:  -286.13482489351145
    Total Energy =                       -286.1348248935116771
  Basis Set: CC-PVTZ
  Basis Set:
  Charge       = 0
  Multiplicity = 1
  Basis Set: CC-PVTZ
  Basis Set:

    Orbital Energies (a.u.)
    -----------------------

    Doubly Occupied:

       1A    -20.509823     2A    -15.576876     3A    -11.335460
       4A    -11.263322     5A    -11.245555     6A    -11.226699
       7A     -1.391925     8A     -1.245256     9A     -1.014814
      10A     -0.971505    11A     -0.917674    12A     -0.738126
      13A     -0.683109    14A     -0.660970    15A     -0.653520
      16A     -0.592348    17A     -0.579194    18A     -0.569168
      19A     -0.561345    20A     -0.545416    21A     -0.529158
      22A     -0.504925    23A     -0.417726    24A     -0.374646

  @DF-RHF Final Energy:  -286.13482507338614

   => Energetics <=

    Nuclear Repulsion Energy =            253.1703794430489438
    One-Electron Energy =                -890.3932861419009441
    Two-Electron Energy =                 351.0880816254663728
    DFT Exchange-Correlation Energy =       0.0000000000000000
    Empirical Dispersion Energy =           0.0000000000000000
    PCM Polarization Energy =               0.0000000000000000
    EFP Energy =                            0.0000000000000000
    Total Energy =                       -286.1348250733856844
    Molecular point group: c1
  Basis Set: CC-PVTZ
  Basis Set:

  -Total Gradient:
     Atom            X                  Y                   Z
    ------   -----------------  -----------------  -----------------
       1       -0.000004219058     0.000011489501    -0.000027427334
       2        0.003044026765    -0.001963443353     0.002822674001
       3       -0.001333981590     0.000745758270    -0.001579306894
       4       -0.003494273535     0.002623698629    -0.001934981444
       5       -0.000000976548     0.000003215333    -0.000006925882
       6        0.000016273384     0.000012913508    -0.000002186451
       7       -0.000005732840    -0.000001104948    -0.000002545858
       8        0.001792340796    -0.001411547543     0.000701316895
       9       -0.000017304442    -0.000017615335     0.000011724036
      10       -0.000007003527     0.000001205760    -0.000005332324
      11        0.000012421029    -0.000001875630     0.000002683765
      12        0.000000006642     0.000001928483     0.000011494989
      13       -0.000002761468     0.000000313959    -0.000002927904
      14        0.000007150478     0.000002655452     0.000006994891
      15       -0.000005966088    -0.000007592092     0.000004745516

  **** Optimization is complete! (in 17 steps) ****
    Final optimized geometry and variables:
    Molecular point group: c1

    Geometry (in Angstrom), charge = 0, multiplicity = 1:

    O           -0.521294162353    -1.526557129063    -0.520060224285
    C           -0.520019229261    -0.482966688122     0.063574278949
    C           -1.586441905959    -0.182917409635     1.095898168912
    N            0.380871325353     0.502959772143    -0.222855264211
    H           -2.049605926613     0.778600684860     0.918490630166
    H           -2.327780718625    -0.962335698583     1.032109685158
    H           -1.170207959672    -0.178847488404     2.096397386461
    C            0.774980982635     1.484431298601     0.764185982355
    C            1.404781179659     0.188871139926    -1.200091620896
    H            1.554793513929     1.107881693353     1.422970174581
    H           -0.061305809842     1.794597429195     1.368244305520
    H            1.158435464049     2.361429253624     0.260490381509
    H            2.219745219853    -0.384223460800    -0.765241636744
    H            0.979292898727    -0.386140264734    -2.003795877158
    H            1.805207595266     1.113150443530    -1.594888831362

  Mulliken Charges: (a.u.)
   Center  Symbol    Alpha    Beta     Spin     Total
       1     O     4.21314  4.21314  0.00000 -0.42627
       2     C     2.84302  2.84302  0.00000  0.31396
       3     C     3.16028  3.16028  0.00000 -0.32056
       4     N     3.57195  3.57195  0.00000 -0.14391
       5     H     0.44795  0.44795  0.00000  0.10411
       6     H     0.42892  0.42892  0.00000  0.14216
       7     H     0.44839  0.44839  0.00000  0.10322
       8     C     3.09582  3.09582  0.00000 -0.19163
       9     C     3.09470  3.09470  0.00000 -0.18939
      10     H     0.45615  0.45615  0.00000  0.08770
      11     H     0.44563  0.44563  0.00000  0.10873
      12     H     0.44808  0.44808  0.00000  0.10385
      13     H     0.45793  0.45793  0.00000  0.08414
      14     H     0.43162  0.43162  0.00000  0.13677
      15     H     0.45644  0.45644  0.00000  0.08713

   Total alpha = 24.00000, Total beta = 24.00000, Total charge = -0.00000

*** Psi4 exiting successfully. Buy a developer a beer!
