                              Psi4 1.0.54 Driver

  ==> Input File <==

--------------------------------------------------------------------------
set {
	reference rhf
	basis cc-pvtz
}

set_num_threads( 4 )
memory 2 gb

molecule MOL {
0 1

H	 -2.171709	 0.882708	 0.500286
C	 -2.016894	 0.001719	 -0.114152
O	 -0.775228	 0.000056	 -0.739966
H	 -2.760846	 0.003757	 -0.898169
H	 -2.174774	 -0.879864	 0.498643
C	 -0.685420	 0.246457	 -2.129391
C	 0.808532	 0.160984	 -2.422112
C	 -1.434007	 -0.821974	 -2.928586
C	 -1.204575	 1.642945	 -2.477088
H	 1.185983	 -0.817681	 -2.154065
H	 1.345604	 0.899819	 -1.840923
H	 1.008924	 0.333919	 -3.472781
H	 -1.108273	 -1.811341	 -2.630727
H	 -1.236579	 -0.702442	 -3.987181
H	 -2.506000	 -0.758415	 -2.789475
H	 -0.717410	 2.389362	 -1.861277
H	 -0.996988	 1.869922	 -3.515965
H	 -2.274681	 1.727056	 -2.334376

	symmetry c1
}
set optking {
	frozen_dihedral = ("
		6 3 2 5
	")
}

ee,wfn = optimize('scf', return_wfn=True)
oeprop( wfn, 'DIPOLE', 'QUADRUPOLE', 'MULLIKEN_CHARGES')
f=open( 'psi4out.xyz', 'w' )
f.write( "18  " )
f.write( str(ee) + "\n" )
f.write( MOL.save_string_xyz() )
f.close()
--------------------------------------------------------------------------

    Molecular point group: c1
  Charge       = 0
  Multiplicity = 1
  Basis Set: CC-PVTZ
  Basis Set:
  @DF-RHF Final Energy:  -271.27220255693879
    Total Energy =                       -271.2722025569384527
    Molecular point group: c1
  Basis Set: CC-PVTZ
  Basis Set:
  Basis Set: CC-PVTZ
  Basis Set:
  @DF-RHF Final Energy:  -271.27367318779119
    Total Energy =                       -271.2736731877912462
  Basis Set: CC-PVTZ
  Basis Set:
  Basis Set: CC-PVTZ
  Basis Set:
  @DF-RHF Final Energy:  -271.27416307845851
    Total Energy =                       -271.2741630784585141
  Basis Set: CC-PVTZ
  Basis Set:
  Basis Set: CC-PVTZ
  Basis Set:
  @DF-RHF Final Energy:  -271.27459052026279
    Total Energy =                       -271.2745905202627910
  Basis Set: CC-PVTZ
  Basis Set:
  Basis Set: CC-PVTZ
  Basis Set:
  @DF-RHF Final Energy:  -271.27458493535727
    Total Energy =                       -271.2745849353573817
  Basis Set: CC-PVTZ
  Basis Set:
  Basis Set: CC-PVTZ
  Basis Set:
  @DF-RHF Final Energy:  -271.27459751181675
    Total Energy =                       -271.2745975118166371
  Basis Set: CC-PVTZ
  Basis Set:
  Charge       = 0
  Multiplicity = 1
  Basis Set: CC-PVTZ
  Basis Set:

    Orbital Energies (a.u.)
    -----------------------

    Doubly Occupied:

       1A    -20.538192     2A    -11.280788     3A    -11.258378
       4A    -11.207276     5A    -11.206863     6A    -11.201762
       7A     -1.371305     8A     -1.074151     9A     -0.946538
      10A     -0.940978    11A     -0.913493    12A     -0.753865
      13A     -0.656351    14A     -0.645854    15A     -0.640397
      16A     -0.591137    17A     -0.572093    18A     -0.552202
      19A     -0.538975    20A     -0.524727    21A     -0.515374
      22A     -0.491263    23A     -0.488413    24A     -0.439518
      25A     -0.404389

  @DF-RHF Final Energy:  -271.27459828345962

   => Energetics <=

    Nuclear Repulsion Energy =            272.5051036373139937
    One-Electron Energy =                -908.0508384374609250
    Two-Electron Energy =                 364.2711365166876476
    DFT Exchange-Correlation Energy =       0.0000000000000000
    Empirical Dispersion Energy =           0.0000000000000000
    PCM Polarization Energy =               0.0000000000000000
    EFP Energy =                            0.0000000000000000
    Total Energy =                       -271.2745982834592269
    Molecular point group: c1
  Basis Set: CC-PVTZ
  Basis Set:

  -Total Gradient:
     Atom            X                  Y                   Z
    ------   -----------------  -----------------  -----------------
       1        0.000069325406    -0.000120835952    -0.000071285459
       2        0.000460433958     0.000177539423     0.000967259584
       3       -0.000006032236     0.001239677539     0.000212745031
       4        0.000055007697    -0.000046934110     0.000038062740
       5       -0.000421369176    -0.000407063671    -0.000905603191
       6       -0.000151425967    -0.000885074455    -0.000184476239
       7       -0.000049384407     0.000008139654     0.000045516118
       8        0.000012379176    -0.000008803261    -0.000044497137
       9        0.000056035350     0.000025437115    -0.000049677882
      10       -0.000006770669    -0.000002600169    -0.000000633391
      11       -0.000005211146    -0.000004578827     0.000000737033
      12       -0.000018707004     0.000004636946     0.000002268815
      13        0.000009057135    -0.000005578340    -0.000004870451
      14       -0.000019845109    -0.000016271677    -0.000001978904
      15        0.000002045750    -0.000000611874     0.000022233636
      16        0.000000330102     0.000015180060     0.000001404128
      17       -0.000008844070     0.000021175705    -0.000004294559
      18        0.000022975208     0.000006565894    -0.000022909874

  **** Optimization is complete! (in 7 steps) ****
    Final optimized geometry and variables:
    Molecular point group: c1

    Geometry (in Angstrom), charge = 0, multiplicity = 1:

    H           -1.218546239469     0.580366408700     2.348003083927
    C           -1.139247127662    -0.252509076256     1.657997414263
    O            0.107793747537    -0.245229778967     1.033889447652
    H           -1.964968677928    -0.191325600429     0.961524983091
    H           -1.246878419545    -1.175769232900     2.213994058650
    C            0.218089438180     0.053676317722    -0.343256241691
    C            1.718556488585     0.018979347037    -0.611127925641
    C           -0.482860754940    -1.010046652756    -1.190672929093
    C           -0.331258836953     1.448760395983    -0.647240879884
    H            2.118566633667    -0.957499601782    -0.369501977491
    H            2.225062060585     0.752198496173     0.003423084266
    H            1.931214469839     0.232598664203    -1.651986047744
    H           -0.104490646686    -1.993758685838    -0.940963006871
    H           -0.302051891656    -0.831604081457    -2.244118209931
    H           -1.555294243909    -1.010877869491    -1.041067773115
    H            0.155928946358     2.186957028425    -0.021729953686
    H           -0.151232769229     1.707860979866    -1.683864408599
    H           -1.398982604229     1.510622422701    -0.476367173718

  Mulliken Charges: (a.u.)
   Center  Symbol    Alpha    Beta     Spin     Total
       1     H     0.45658  0.45658  0.00000  0.08684
       2     C     3.04271  3.04271  0.00000 -0.08543
       3     O     4.19366  4.19366  0.00000 -0.38732
       4     H     0.46863  0.46863  0.00000  0.06274
       5     H     0.45087  0.45087  0.00000  0.09827
       6     C     2.87905  2.87905  0.00000  0.24190
       7     C     3.14293  3.14293  0.00000 -0.28585
       8     C     3.16075  3.16075  0.00000 -0.32149
       9     C     3.16058  3.16058  0.00000 -0.32116
      10     H     0.44885  0.44885  0.00000  0.10230
      11     H     0.44916  0.44916  0.00000  0.10167
      12     H     0.45924  0.45924  0.00000  0.08151
      13     H     0.44651  0.44651  0.00000  0.10698
      14     H     0.44893  0.44893  0.00000  0.10214
      15     H     0.44813  0.44813  0.00000  0.10375
      16     H     0.44659  0.44659  0.00000  0.10683
      17     H     0.44827  0.44827  0.00000  0.10347
      18     H     0.44856  0.44856  0.00000  0.10287

   Total alpha = 25.00000, Total beta = 25.00000, Total charge =  0.00000

*** Psi4 exiting successfully. Buy a developer a beer!
