  ==> Input File <==

--------------------------------------------------------------------------
set {
	reference rhf
	basis 6-31G*
}

set_num_threads( 4 )
memory 2 gb

molecule MOL {
0 1

H	 2.956136	 -0.177377	 5.438607
C	 2.535546	 -0.965985	 4.822389
C	 1.363655	 -0.449759	 3.988508
H	 3.328602	 -1.346664	 4.185611
H	 2.224995	 -1.771489	 5.482329
C	 0.742200	 -1.539399	 3.111986
H	 1.702807	 0.368824	 3.362009
H	 0.601661	 -0.043714	 4.651972
C	 -0.445261	 -1.056564	 2.278876
H	 1.496506	 -1.945956	 2.447623
H	 0.405118	 -2.356230	 3.746182
C	 -0.071031	 -0.126261	 1.134441
H	 -0.951422	 -1.910464	 1.831186
H	 -1.188610	 -0.570522	 2.906867
C	 -1.181045	 0.701995	 0.511084
O	 1.048458	 -0.058196	 0.723934
C	 -2.285934	 -0.139295	 -0.145128
H	 -0.718275	 1.350507	 -0.223076
H	 -1.618572	 1.331434	 1.283782
C	 -3.651768	 0.085446	 0.506485
H	 -2.346596	 0.110469	 -1.202272
H	 -2.034737	 -1.195320	 -0.088721
C	 -4.759797	 -0.746382	 -0.137905
H	 -3.908762	 1.140117	 0.445781
H	 -3.588286	 -0.154158	 1.565709
H	 -4.868882	 -0.505166	 -1.191300
H	 -4.548009	 -1.809175	 -0.062213
H	 -5.715422	 -0.564821	 0.343442

	symmetry c1
}
set optking {
	frozen_dihedral = ("
		12 15 17 21
	")
}

ee = optimize('scf')
oeprop('DIPOLE', 'QUADRUPOLE', 'MULLIKEN_CHARGES')
f=open( 'psi4out.xyz', 'w' )
f.write( "28  " )
f.write( str(ee) + "\n" )
f.write( MOL.save_string_xyz() )
f.close()
--------------------------------------------------------------------------

    Molecular point group: c1
  Charge       = 0
  Multiplicity = 1
  Basis Set: 6-31G*
  Basis Set:
  @DF-RHF Final Energy:  -426.16328995493075
    Total Energy =                       -426.1632899549310878
    Molecular point group: c1
  Basis Set: 6-31G*
  Basis Set:
  Basis Set: 6-31G*
  Basis Set:
  @DF-RHF Final Energy:  -426.16344744454466
    Total Energy =                       -426.1634474445443175
  Basis Set: 6-31G*
  Basis Set:
  Basis Set: 6-31G*
  Basis Set:
  @DF-RHF Final Energy:  -426.16378557341068
    Total Energy =                       -426.1637855734105642
  Basis Set: 6-31G*
  Basis Set:
  Basis Set: 6-31G*
  Basis Set:
  @DF-RHF Final Energy:  -426.16390715220928
    Total Energy =                       -426.1639071522096174
  Basis Set: 6-31G*
  Basis Set:
  @DF-RHF Final Energy:  -426.16393339992840
    Total Energy =                       -426.1639333999287373
  @DF-RHF Final Energy:  -426.16395157039426
    Total Energy =                       -426.1639515703936922
  @DF-RHF Final Energy:  -426.16400166349013
    Total Energy =                       -426.1640016634905805
  @DF-RHF Final Energy:  -426.16412147693063
    Total Energy =                       -426.1641214769304042
  Basis Set: 6-31G*
  Basis Set:
  @DF-RHF Final Energy:  -426.16415537920295
    Total Energy =                       -426.1641553792030663
  Basis Set: 6-31G*
  Basis Set:
  Basis Set: 6-31G*
  Basis Set:
  @DF-RHF Final Energy:  -426.16417458780052
    Total Energy =                       -426.1641745878005167
  Basis Set: 6-31G*
  Basis Set:
  Basis Set: 6-31G*
  Basis Set:
  @DF-RHF Final Energy:  -426.16417877816139
    Total Energy =                       -426.1641787781614994
  Basis Set: 6-31G*
  Basis Set:
  Charge       = 0
  Multiplicity = 1
  Basis Set: 6-31G*
  Basis Set:

    Orbital Energies (a.u.)
    -----------------------

    Doubly Occupied:

       1A    -20.547835     2A    -11.322200     3A    -11.232541
       4A    -11.230707     5A    -11.228343     6A    -11.227580
       7A    -11.216957     8A    -11.216199     9A    -11.210002
      10A    -11.204426    11A     -1.393205    12A     -1.093430
      13A     -1.076424    14A     -1.022273    15A     -0.990269
      16A     -0.908610    17A     -0.872756    18A     -0.811380
      19A     -0.796564    20A     -0.725516    21A     -0.667350
      22A     -0.654045    23A     -0.622223    24A     -0.614770
      25A     -0.610219    26A     -0.591004    27A     -0.576810
      28A     -0.571230    29A     -0.545848    30A     -0.533849
      31A     -0.520115    32A     -0.512579    33A     -0.501325
      34A     -0.482059    35A     -0.477996    36A     -0.476575
      37A     -0.465945    38A     -0.462020    39A     -0.454770
      40A     -0.392151

  @DF-RHF Final Energy:  -426.16417938614620

   => Energetics <=

    Nuclear Repulsion Energy =            535.3141379054325171
    One-Electron Energy =               -1638.8364307893716614
    Two-Electron Energy =                 677.3581134977930560
    DFT Exchange-Correlation Energy =       0.0000000000000000
    Empirical Dispersion Energy =           0.0000000000000000
    PCM Polarization Energy =               0.0000000000000000
    EFP Energy =                            0.0000000000000000
    Total Energy =                       -426.1641793861460883
    Molecular point group: c1
  Basis Set: 6-31G*
  Basis Set:

  -Total Gradient:
     Atom            X                  Y                   Z
    ------   -----------------  -----------------  -----------------
       1        0.000000017431     0.000001810088    -0.000002528443
       2       -0.000005045235    -0.000010184503    -0.000001715034
       3       -0.000007213962     0.000012384061    -0.000018656641
       4        0.000001702457    -0.000002685160     0.000000829980
       5        0.000001826402    -0.000000090571    -0.000000236172
       6        0.000009649984     0.000010195065    -0.000000348214
       7       -0.000007512506    -0.000001533448     0.000004117473
       8       -0.000001014821    -0.000003870254     0.000001912302
       9       -0.000010793255     0.000020881691    -0.000015174464
      10        0.000006440090     0.000002421483    -0.000002940428
      11       -0.000013303875    -0.000000735508    -0.000003257101
      12        0.000072685496     0.000010680163    -0.000161050390
      13        0.000012147109    -0.000006076542     0.000006506920
      14        0.000003260936     0.000002116036    -0.000000564137
      15       -0.000107621569    -0.000061221975     0.000165565109
      16        0.000046854523    -0.000014160769     0.000022323017
      17       -0.000159644170     0.000195273468     0.000010117404
      18        0.000001913932    -0.000014127906     0.000011469376
      19       -0.000017010315     0.000028985491     0.000011340816
      20        0.000024758005    -0.000025340963     0.000028165173
      21        0.000160478700    -0.000158036560    -0.000045206989
      22       -0.000004009438     0.000011415686     0.000012240857
      23       -0.000011285711     0.000014551929    -0.000029680503
      24        0.000017524271    -0.000000096467     0.000013333901
      25       -0.000000399671    -0.000011355842    -0.000000459260
      26       -0.000003442143    -0.000010098546    -0.000004285650
      27       -0.000000925331     0.000008666082     0.000006117554
      28       -0.000010037340     0.000000233771    -0.000007936455

  **** Optimization is complete! (in 12 steps) ****
    Final optimized geometry and variables:
    Molecular point group: c1

    Geometry (in Angstrom), charge = 0, multiplicity = 1:

    H            4.164143250284    -0.181108260764     3.375066913214
    C            3.445572658090    -0.846676576040     2.906847216021
    C            2.312653763829    -0.060491260376     2.248429998335
    H            3.979094738122    -1.447161345489     2.175900952499
    H            3.067193856848    -1.517202876617     3.673851630586
    C            1.274585114431    -0.970857558354     1.588188986190
    H            2.725210774315     0.613862853827     1.506547697856
    H            1.821084342777     0.557051263584     2.998639626591
    C            0.121010372639    -0.215810900237     0.928158548892
    H            1.759738277217    -1.596344861359     0.846218963226
    H            0.860260541148    -1.638266177583     2.340600548547
    C            0.475051156681     0.477043540294    -0.377703782380
    H           -0.703335056923    -0.895245097655     0.716492398752
    H           -0.289060877283     0.530957712161     1.605865870408
    C           -0.636120509734     1.250281571009    -1.066376666116
    O            1.560596160593     0.394987920929    -0.868310807338
    C           -1.590457782431     0.317139049765    -1.860377522588
    H           -0.161171069313     1.960109197412    -1.730829421662
    H           -1.200074088970     1.813601813029    -0.328430901783
    C           -3.035258387677     0.342035626685    -1.356825147336
    H           -1.572628857736     0.604555886881    -2.906460581409
    H           -1.221956004381    -0.705650593045    -1.834567911011
    C           -3.957987209492    -0.574388689617    -2.158414990656
    H           -3.409973960971     1.362231507498    -1.400017070991
    H           -3.059819159443     0.053250986832    -0.308023229649
    H           -3.979783616635    -0.288974373519    -3.206190789352
    H           -3.628177209933    -1.608022511983    -2.104976208323
    H           -4.975360542899    -0.531936408997    -1.782710415278

  Mulliken Charges: (a.u.)
   Center  Symbol    Alpha    Beta     Spin     Total
       1     H     0.41942  0.41942  0.00000  0.16115
       2     C     3.24032  3.24032  0.00000 -0.48065
       3     C     3.15601  3.15601  0.00000 -0.31202
       4     H     0.41877  0.41877  0.00000  0.16246
       5     H     0.42422  0.42422  0.00000  0.15157
       6     C     3.14840  3.14840  0.00000 -0.29680
       7     H     0.40660  0.40660  0.00000  0.18680
       8     H     0.42828  0.42828  0.00000  0.14345
       9     C     3.21257  3.21257  0.00000 -0.42514
      10     H     0.40946  0.40946  0.00000  0.18108
      11     H     0.42230  0.42230  0.00000  0.15541
      12     C     2.73949  2.73949  0.00000  0.52103
      13     H     0.40561  0.40561  0.00000  0.18878
      14     H     0.40989  0.40989  0.00000  0.18021
      15     C     3.20054  3.20054  0.00000 -0.40109
      16     O     4.26529  4.26529  0.00000 -0.53059
      17     C     3.16164  3.16164  0.00000 -0.32328
      18     H     0.39801  0.39801  0.00000  0.20399
      19     H     0.41269  0.41269  0.00000  0.17463
      20     C     3.15503  3.15503  0.00000 -0.31006
      21     H     0.41059  0.41059  0.00000  0.17882
      22     H     0.41488  0.41488  0.00000  0.17024
      23     C     3.24099  3.24099  0.00000 -0.48198
      24     H     0.41973  0.41973  0.00000  0.16054
      25     H     0.42251  0.42251  0.00000  0.15498
      26     H     0.41940  0.41940  0.00000  0.16120
      27     H     0.42025  0.42025  0.00000  0.15950
      28     H     0.41711  0.41711  0.00000  0.16579

   Total alpha = 40.00000, Total beta = 40.00000, Total charge = -0.00000
