  ==> Input File <==

--------------------------------------------------------------------------
set {
	reference rhf
	basis cc-pvtz
}

set_num_threads( 4 )
memory 2 gb

molecule MOL {
0 1

H	 -1.682443	 -0.398695	 0.757155
N	 -1.173824	 -0.310545	 -0.096857
C	 -0.022588	 0.563366	 0.065815
H	 -0.888329	 -1.228947	 -0.366382
C	 1.270420	 -0.230572	 -0.014245
H	 -0.045354	 1.293678	 -0.735129
H	 -0.043155	 1.123061	 1.001180
H	 1.336273	 -0.754933	 -0.959364
H	 2.130728	 0.422015	 0.082222
H	 1.323344	 -0.967006	 0.781773

	symmetry c1
}
set optking {
	frozen_dihedral = ("
		1 2 3 6
	")
}

ee = optimize('scf')
oeprop('DIPOLE', 'QUADRUPOLE', 'MULLIKEN_CHARGES')
f=open( 'psi4out.xyz', 'w' )
f.write( "10  " )
f.write( str(ee) + "\n" )
f.write( MOL.save_string_xyz() )
f.close()
--------------------------------------------------------------------------

    Molecular point group: c1
  Charge       = 0
  Multiplicity = 1
  Basis Set: CC-PVTZ
  Basis Set:
  @DF-RHF Final Energy:  -134.30005423953517
    Total Energy =                       -134.3000542395350863
    Molecular point group: c1
  Basis Set: CC-PVTZ
  Basis Set:
  Basis Set: CC-PVTZ
  Basis Set:
  @DF-RHF Final Energy:  -134.30114566816115
    Total Energy =                       -134.3011456681610696
  Basis Set: CC-PVTZ
  Basis Set:
  Basis Set: CC-PVTZ
  Basis Set:
  @DF-RHF Final Energy:  -134.30132733971425
    Total Energy =                       -134.3013273397143053
  Basis Set: CC-PVTZ
  Basis Set:
  Basis Set: CC-PVTZ
  Basis Set:
  @DF-RHF Final Energy:  -134.30134288975330
    Total Energy =                       -134.3013428897533004
  Basis Set: CC-PVTZ
  Basis Set:
  Charge       = 0
  Multiplicity = 1
  Basis Set: CC-PVTZ
  Basis Set:

    Orbital Energies (a.u.)
    -----------------------

    Doubly Occupied:

       1A    -15.523418     2A    -11.240927     3A    -11.210119
       4A     -1.174772     5A     -0.989678     6A     -0.831658
       7A     -0.670029     8A     -0.605573     9A     -0.594067
      10A     -0.539621    11A     -0.507769    12A     -0.487165
      13A     -0.377801

  @DF-RHF Final Energy:  -134.30134482220123

   => Energetics <=

    Nuclear Repulsion Energy =             83.3435106604796090
    One-Electron Energy =                -345.7845205225305563
    Two-Electron Energy =                 128.1396650398496320
    DFT Exchange-Correlation Energy =       0.0000000000000000
    Empirical Dispersion Energy =           0.0000000000000000
    PCM Polarization Energy =               0.0000000000000000
    EFP Energy =                            0.0000000000000000
    Total Energy =                       -134.3013448222012869
    Molecular point group: c1
  Basis Set: CC-PVTZ
  Basis Set:

  -Total Gradient:
     Atom            X                  Y                   Z
    ------   -----------------  -----------------  -----------------
       1       -0.001237808204     0.001841976162    -0.000493979962
       2        0.001180382758    -0.002025947445     0.000900721431
       3        0.001147925381    -0.001175095425    -0.001642618058
       4        0.000046980455     0.000055629803     0.000004743246
       5       -0.000087957388     0.000018629151     0.000007412161
       6       -0.001054107492     0.001220405557     0.001238103682
       7       -0.000035387961     0.000032363695     0.000027613623
       8        0.000018615755    -0.000015985755     0.000009783958
       9        0.000034396238     0.000018692787    -0.000004345212
      10       -0.000013039542     0.000029331470    -0.000047434869

  **** Optimization is complete! (in 5 steps) ****
    Final optimized geometry and variables:
    Molecular point group: c1

    Geometry (in Angstrom), charge = 0, multiplicity = 1:

    H           -1.700705211046    -0.380462402579     0.788535509664
    N           -1.215932577070    -0.279729605173    -0.074262158869
    C           -0.031619872531     0.561085534902     0.049732273853
    H           -1.004264210943    -1.186113293376    -0.428627236631
    C            1.281759594582    -0.205423656233    -0.008216658271
    H           -0.046172287700     1.316555513668    -0.729535151648
    H           -0.087722756287     1.104585293965     0.986810496654
    H            1.366680576878    -0.753294283580    -0.941620030643
    H            2.128722864427     0.468769519224     0.055501650123
    H            1.352854652020    -0.918184291266     0.806439887061

  Mulliken Charges: (a.u.)
   Center  Symbol    Alpha    Beta     Spin     Total
       1     H     0.42586  0.42586  0.00000  0.14828
       2     N     3.69762  3.69762  0.00000 -0.39523
       3     C     3.01499  3.01499  0.00000 -0.02998
       4     H     0.42711  0.42711  0.00000  0.14579
       5     C     3.14321  3.14321  0.00000 -0.28643
       6     H     0.46190  0.46190  0.00000  0.07620
       7     H     0.46154  0.46154  0.00000  0.07693
       8     H     0.45640  0.45640  0.00000  0.08721
       9     H     0.45424  0.45424  0.00000  0.09153
      10     H     0.45715  0.45715  0.00000  0.08571

   Total alpha = 13.00000, Total beta = 13.00000, Total charge =  0.00000
