  ==> Input File <==

--------------------------------------------------------------------------
set {
	reference rhf
	basis 6-31G*
}

set_num_threads( 4 )
memory 2 gb

molecule MOL {
0 1

H	 -3.261111	 -0.295142	 1.469456
C	 -3.306842	 -0.277400	 0.373456
C	 -2.660244	 0.921717	 -0.272021
O	 -3.838538	 -1.161155	 -0.216482
C	 -1.220012	 1.144545	 0.209990
H	 -2.705793	 0.797307	 -1.347733
H	 -3.263782	 1.790044	 -0.010477
C	 -0.252658	 0.041456	 -0.226725
H	 -0.873521	 2.100229	 -0.171974
H	 -1.211708	 1.231594	 1.295398
C	 1.180775	 0.282413	 0.250794
H	 -0.266029	 -0.034465	 -1.312038
H	 -0.597733	 -0.921000	 0.146291
C	 2.148627	 -0.814315	 -0.201312
H	 1.516199	 1.249228	 -0.115937
H	 1.192670	 0.346017	 1.338083
C	 3.580890	 -0.659131	 0.322722
H	 2.166869	 -0.852443	 -1.289387
H	 1.762857	 -1.776509	 0.128956
C	 4.579254	 -0.123698	 -0.704995
H	 3.926056	 -1.629793	 0.670032
H	 3.576717	 -0.009290	 1.195425
H	 4.592928	 -0.745439	 -1.596353
H	 4.342660	 0.889603	 -1.011946
H	 5.584763	 -0.112571	 -0.295333

	symmetry c1
}
set optking {
	frozen_dihedral = ("
		20 17 14 18
	")
}

ee = optimize('scf')
oeprop('DIPOLE', 'QUADRUPOLE', 'MULLIKEN_CHARGES')
f=open( 'psi4out.xyz', 'w' )
f.write( "25  " )
f.write( str(ee) + "\n" )
f.write( MOL.save_string_xyz() )
f.close()
--------------------------------------------------------------------------

    Molecular point group: c1
  Charge       = 0
  Multiplicity = 1
  Basis Set: 6-31G*
  Basis Set:
  @DF-RHF Final Energy:  -387.11842768538509
    Total Energy =                       -387.1184276853851998
    Molecular point group: c1
  Basis Set: 6-31G*
  Basis Set:
  Basis Set: 6-31G*
  Basis Set:
  @DF-RHF Final Energy:  -387.11889406409864
    Total Energy =                       -387.1188940640986402
  Basis Set: 6-31G*
  Basis Set:
  Basis Set: 6-31G*
  Basis Set:
  @DF-RHF Final Energy:  -387.11901993549503
    Total Energy =                       -387.1190199354961123
  Basis Set: 6-31G*
  Basis Set:
  Basis Set: 6-31G*
  Basis Set:
  @DF-RHF Final Energy:  -387.11910877722499
    Total Energy =                       -387.1191087772251649
  Basis Set: 6-31G*
  Basis Set:
  @DF-RHF Final Energy:  -387.11913089891959
    Total Energy =                       -387.1191308989189110
  Basis Set: 6-31G*
  Basis Set:
  @DF-RHF Final Energy:  -387.11913032473251
    Total Energy =                       -387.1191303247328506
  Basis Set: 6-31G*
  Basis Set:
  Basis Set: 6-31G*
  Basis Set:
  @DF-RHF Final Energy:  -387.11912755371458
    Total Energy =                       -387.1191275537149750
  Basis Set: 6-31G*
  Basis Set:
  Basis Set: 6-31G*
  Basis Set:
  @DF-RHF Final Energy:  -387.11913477142008
    Total Energy =                       -387.1191347714202493
  Basis Set: 6-31G*
  Basis Set:
  Charge       = 0
  Multiplicity = 1
  Basis Set: 6-31G*
  Basis Set:

    Orbital Energies (a.u.)
    -----------------------

    Doubly Occupied:

       1A    -20.562021     2A    -11.326178     3A    -11.235393
       4A    -11.234692     5A    -11.223789     6A    -11.220420
       7A    -11.217530     8A    -11.216610     9A    -11.211053
      10A     -1.401961    11A     -1.103656    12A     -1.068828
      13A     -1.014055    14A     -0.942847    15A     -0.870163
      16A     -0.817447    17A     -0.790955    18A     -0.786734
      19A     -0.664281    20A     -0.662070    21A     -0.633293
      22A     -0.621673    23A     -0.605644    24A     -0.592321
      25A     -0.573606    26A     -0.552058    27A     -0.532665
      28A     -0.523114    29A     -0.509814    30A     -0.497642
      31A     -0.486396    32A     -0.481486    33A     -0.467224
      34A     -0.458358    35A     -0.439293    36A     -0.409547

  @DF-RHF Final Energy:  -387.11913484321116

   => Energetics <=

    Nuclear Repulsion Energy =            437.3524298451886239
    One-Electron Energy =               -1391.0334954374256995
    Two-Electron Energy =                 566.5619307490254641
    DFT Exchange-Correlation Energy =       0.0000000000000000
    Empirical Dispersion Energy =           0.0000000000000000
    PCM Polarization Energy =               0.0000000000000000
    EFP Energy =                            0.0000000000000000
    Total Energy =                       -387.1191348432115547
    Molecular point group: c1
  Basis Set: 6-31G*
  Basis Set:

  -Total Gradient:
     Atom            X                  Y                   Z
    ------   -----------------  -----------------  -----------------
       1       -0.000005516439     0.000000649036     0.000000058664
       2        0.000008594525    -0.000004211030    -0.000005707284
       3       -0.000001245166     0.000003457661     0.000000276597
       4       -0.000005894903    -0.000001186518     0.000002648397
       5        0.000006721157     0.000008157637    -0.000008550838
       6       -0.000001911382     0.000002252018    -0.000001683278
       7       -0.000002838909    -0.000008116069     0.000002089060
       8        0.000001524230    -0.000009578564     0.000016929010
       9        0.000011202106    -0.000000757842     0.000004541635
      10       -0.000002473383     0.000000157657    -0.000001440004
      11        0.000006144396     0.000011609368     0.000005495241
      12       -0.000001376867     0.000001036493     0.000003188185
      13       -0.000003086570    -0.000003231343     0.000002067826
      14        0.000821468804    -0.004759960519    -0.000078850394
      15        0.000017845869     0.000007430606     0.000001575379
      16       -0.000009739161     0.000005283816     0.000000395699
      17       -0.000902449003     0.003767479212     0.000889966839
      18       -0.000474961143     0.003129090841    -0.000188221311
      19        0.000001014253     0.000015710412    -0.000005418662
      20        0.000550580820    -0.002180804332    -0.000652322790
      21        0.000008051750     0.000010029233     0.000006258867
      22       -0.000000973720    -0.000003361775     0.000009254320
      23       -0.000007740658     0.000007749639    -0.000007013132
      24       -0.000007482763     0.000013101880     0.000000465115
      25       -0.000005457839    -0.000011987512     0.000003996862

  **** Optimization is complete! (in 9 steps) ****
    Final optimized geometry and variables:
    Molecular point group: c1

    Geometry (in Angstrom), charge = 0, multiplicity = 1:

    H           -3.335857134996    -0.216341499573     1.462592943873
    C           -3.345196795882    -0.168189712721     0.366501198979
    C           -2.653639995506     1.034030259049    -0.224454085325
    O           -3.880505881272    -1.021365305052    -0.263884496679
    C           -1.223631488127     1.210113213048     0.305253402728
    H           -2.669956569208     0.941331163627    -1.304251832615
    H           -3.245593004020     1.907920536701     0.044624289830
    C           -0.267004242165     0.100080219517    -0.137775090639
    H           -0.845723595040     2.169539808131    -0.035921886920
    H           -1.245417883467     1.263057540226     1.392475606895
    C            1.158540767934     0.300154939920     0.378171103271
    H           -0.256498998683     0.052882231827    -1.224744448927
    H           -0.638635973794    -0.865235996018     0.201586738675
    C            2.119771510231    -0.811292138855    -0.056065646056
    H            1.535859211501     1.260187603912     0.028837549437
    H            1.144209366143     0.356649702862     1.465222686486
    C            3.572316961877    -0.567427520853     0.401715532449
    H            2.089429142789    -0.876792849510    -1.141440210417
    H            1.756981066166    -1.761184755369     0.326237496171
    C            4.469669292134    -0.008201485314    -0.703402142485
    H            4.005444251037    -1.499632283867     0.753827033627
    H            3.580676357210     0.105936495902     1.255050879634
    H            4.543298653576    -0.706569098498    -1.531691836298
    H            4.080904779058     0.928013507674    -1.095537456879
    H            5.474335657222     0.180321696494    -0.337419026873

  Mulliken Charges: (a.u.)
   Center  Symbol    Alpha    Beta     Spin     Total
       1     H     0.43262  0.43262  0.00000  0.13477
       2     C     2.83082  2.83082  0.00000  0.33835
       3     C     3.20814  3.20814  0.00000 -0.41628
       4     O     4.23776  4.23776  0.00000 -0.47552
       5     C     3.16653  3.16653  0.00000 -0.33306
       6     H     0.39972  0.39972  0.00000  0.20056
       7     H     0.40661  0.40661  0.00000  0.18678
       8     C     3.15539  3.15539  0.00000 -0.31078
       9     H     0.41285  0.41285  0.00000  0.17429
      10     H     0.41958  0.41958  0.00000  0.16083
      11     C     3.15420  3.15420  0.00000 -0.30840
      12     H     0.41806  0.41806  0.00000  0.16389
      13     H     0.41847  0.41847  0.00000  0.16306
      14     C     3.15492  3.15492  0.00000 -0.30983
      15     H     0.42287  0.42287  0.00000  0.15426
      16     H     0.42299  0.42299  0.00000  0.15402
      17     C     3.15538  3.15538  0.00000 -0.31075
      18     H     0.42071  0.42071  0.00000  0.15858
      19     H     0.41910  0.41910  0.00000  0.16179
      20     C     3.23994  3.23994  0.00000 -0.47989
      21     H     0.41958  0.41958  0.00000  0.16085
      22     H     0.42099  0.42099  0.00000  0.15801
      23     H     0.42043  0.42043  0.00000  0.15914
      24     H     0.42269  0.42269  0.00000  0.15462
      25     H     0.41964  0.41964  0.00000  0.16072

   Total alpha = 36.00000, Total beta = 36.00000, Total charge =  0.00000
