                              Psi4 1.0.54 Driver

  ==> Input File <==

--------------------------------------------------------------------------
set {
	reference rhf
	basis cc-pvtz
}

set_num_threads( 4 )
memory 2 gb

molecule MOL {
0 1

H	 1.994225	 -0.187144	 0.458134
C	 1.155977	 -0.206113	 -0.222814
O	 0.000000	 0.000000	 0.518769
H	 1.294228	 0.572550	 -0.970093
H	 1.138126	 -1.168861	 -0.729423
C	 -1.165153	 0.000000	 -0.236961
H	 -1.229451	 0.882440	 -0.870223
H	 -2.002557	 0.000000	 0.445289
H	 -1.229451	 -0.882440	 -0.870223

	symmetry c1
}
set optking {
	frozen_dihedral = ("
		2 3 6 7
	")
}

ee,wfn = optimize('scf', return_wfn=True)
oeprop( wfn, 'DIPOLE', 'QUADRUPOLE', 'MULLIKEN_CHARGES')
f=open( 'psi4out.xyz', 'w' )
f.write( "9  " )
f.write( str(ee) + "\n" )
f.write( MOL.save_string_xyz() )
f.close()
--------------------------------------------------------------------------

    Molecular point group: c1
  Charge       = 0
  Multiplicity = 1
  Basis Set: CC-PVTZ
  Basis Set:
  @DF-RHF Final Energy:  -154.12697195789232
    Total Energy =                       -154.1269719578923798
    Molecular point group: c1
  Basis Set: CC-PVTZ
  Basis Set:
  Basis Set: CC-PVTZ
  Basis Set:
  @DF-RHF Final Energy:  -154.12698137368230
    Total Energy =                       -154.1269813736822130
  Basis Set: CC-PVTZ
  Basis Set:
  Charge       = 0
  Multiplicity = 1
  Basis Set: CC-PVTZ
  Basis Set:

    Orbital Energies (a.u.)
    -----------------------

    Doubly Occupied:

       1A    -20.550235     2A    -11.263257     3A    -11.263167
       4A     -1.382568     5A     -0.975935     6A     -0.872635
       7A     -0.664091     8A     -0.655577     9A     -0.646907
      10A     -0.552392    11A     -0.529408    12A     -0.476739
      13A     -0.420255

  @DF-RHF Final Energy:  -154.12698207846873

   => Energetics <=

    Nuclear Repulsion Energy =             84.8390546586265657
    One-Electron Energy =                -377.4257410630866616
    Two-Electron Energy =                 138.4597043259913676
    DFT Exchange-Correlation Energy =       0.0000000000000000
    Empirical Dispersion Energy =           0.0000000000000000
    PCM Polarization Energy =               0.0000000000000000
    EFP Energy =                            0.0000000000000000
    Total Energy =                       -154.1269820784687568
    Molecular point group: c1
  Basis Set: CC-PVTZ
  Basis Set:

  -Total Gradient:
     Atom            X                  Y                   Z
    ------   -----------------  -----------------  -----------------
       1       -0.000007727872     0.000009176001     0.000011800586
       2       -0.000089855293    -0.001089670614     0.000113794621
       3       -0.000064491386     0.001675073044     0.000072453394
       4       -0.000000293064     0.000005637902     0.000007002544
       5        0.000015014969    -0.000002965209    -0.000005002908
       6        0.000778008089    -0.001248291384    -0.001196991305
       7       -0.000648419059     0.000667224962     0.000989356291
       8       -0.000001214072     0.000003912187    -0.000006505190
       9        0.000018977687    -0.000020096890     0.000014091967

  **** Optimization is complete! (in 3 steps) ****
    Final optimized geometry and variables:
    Molecular point group: c1

    Geometry (in Angstrom), charge = 0, multiplicity = 1:

    H            1.997948726649    -0.109184717931     0.455936878901
    C            1.160737446036    -0.132722306403    -0.226476042970
    O            0.002531169550     0.068160931373     0.513226063900
    H            1.298175808569     0.645687567631    -0.974594363305
    H            1.147357505026    -1.095937009757    -0.732088731994
    C           -1.162700909397     0.070478481391    -0.242907694407
    H           -1.227502361327     0.956159237357    -0.871703263089
    H           -2.000011213794     0.075098948492     0.440266875914
    H           -1.232761340842    -0.812460908819    -0.874215721628

  Mulliken Charges: (a.u.)
   Center  Symbol    Alpha    Beta     Spin     Total
       1     H     0.44844  0.44844  0.00000  0.10312
       2     C     3.02187  3.02187  0.00000 -0.04375
       3     O     4.16750  4.16750  0.00000 -0.33500
       4     H     0.47363  0.47363  0.00000  0.05275
       5     H     0.47246  0.47246  0.00000  0.05508
       6     C     3.02168  3.02168  0.00000 -0.04336
       7     H     0.47114  0.47114  0.00000  0.05773
       8     H     0.44884  0.44884  0.00000  0.10232
       9     H     0.47444  0.47444  0.00000  0.05111

   Total alpha = 13.00000, Total beta = 13.00000, Total charge = -0.00000

*** Psi4 exiting successfully. Buy a developer a beer!
