  ==> Input File <==

--------------------------------------------------------------------------
set {
	reference rhf
	basis 6-31G*
}

set_num_threads( 4 )
memory 2 gb

molecule MOL {
0 1

O	 -1.487788	 1.240889	 -0.102860
C	 -1.083277	 0.139568	 0.115197
C	 0.323299	 -0.082943	 0.642902
C	 -1.933017	 -1.084621	 -0.143902
C	 1.355627	 -0.005344	 -0.493127
H	 0.396251	 -1.044647	 1.143147
H	 0.528637	 0.693580	 1.371677
C	 1.314321	 1.334495	 -1.225502
H	 2.354271	 -0.167283	 -0.093428
H	 1.163676	 -0.814295	 -1.190188
H	 2.047121	 1.362138	 -2.025459
H	 1.527828	 2.158956	 -0.551334
H	 0.336741	 1.509323	 -1.664613
H	 -1.393885	 -1.806447	 -0.750509
H	 -2.850323	 -0.799888	 -0.640100
H	 -2.169004	 -1.571158	 0.798858

	symmetry c1
}
set optking {
	frozen_dihedral = ("
		9 5 3 2
	")
}

ee = optimize('scf')
oeprop('DIPOLE', 'QUADRUPOLE', 'MULLIKEN_CHARGES')
f=open( 'psi4out.xyz', 'w' )
f.write( "16  " )
f.write( str(ee) + "\n" )
f.write( MOL.save_string_xyz() )
f.close()
--------------------------------------------------------------------------

    Molecular point group: c1
  Charge       = 0
  Multiplicity = 1
  Basis Set: 6-31G*
  Basis Set:
  @DF-RHF Final Energy:  -270.02762838874389
    Total Energy =                       -270.0276283887437216
    Molecular point group: c1
  Basis Set: 6-31G*
  Basis Set:
  Basis Set: 6-31G*
  Basis Set:
  @DF-RHF Final Energy:  -270.02878342543352
    Total Energy =                       -270.0287834254335166
  Basis Set: 6-31G*
  Basis Set:
  Basis Set: 6-31G*
  Basis Set:
  @DF-RHF Final Energy:  -270.02870662587077
    Total Energy =                       -270.0287066258708819
  Basis Set: 6-31G*
  Basis Set:
  Basis Set: 6-31G*
  Basis Set:
  @DF-RHF Final Energy:  -270.02917492766272
    Total Energy =                       -270.0291749276628934
  Basis Set: 6-31G*
  Basis Set:
  @DF-RHF Final Energy:  -270.02935431071279
    Total Energy =                       -270.0293543107127334
  Basis Set: 6-31G*
  Basis Set:
  @DF-RHF Final Energy:  -270.02940059696061
    Total Energy =                       -270.0294005969604427
  Basis Set: 6-31G*
  Basis Set:
  Basis Set: 6-31G*
  Basis Set:
  @DF-RHF Final Energy:  -270.02940855673017
    Total Energy =                       -270.0294085567301181
  Basis Set: 6-31G*
  Basis Set:
  Basis Set: 6-31G*
  Basis Set:
  @DF-RHF Final Energy:  -270.02940985028255
    Total Energy =                       -270.0294098502826046
  Basis Set: 6-31G*
  Basis Set:
  Charge       = 0
  Multiplicity = 1
  Basis Set: 6-31G*
  Basis Set:

    Orbital Energies (a.u.)
    -----------------------

    Doubly Occupied:

       1A    -20.548923     2A    -11.324840     3A    -11.235141
       4A    -11.230278     5A    -11.228276     6A    -11.214120
       7A     -1.394095     8A     -1.082233     9A     -1.010215
      10A     -0.948588    11A     -0.833496    12A     -0.730469
      13A     -0.655542    14A     -0.645745    15A     -0.621103
      16A     -0.598200    17A     -0.582920    18A     -0.561123
      19A     -0.535246    20A     -0.507785    21A     -0.502568
      22A     -0.486196    23A     -0.472111    24A     -0.398076

  @DF-RHF Final Energy:  -270.02940994323524

   => Energetics <=

    Nuclear Repulsion Energy =            242.0064580775492971
    One-Electron Energy =                -845.3771626448235565
    Two-Electron Energy =                 333.3412946240390511
    DFT Exchange-Correlation Energy =       0.0000000000000000
    Empirical Dispersion Energy =           0.0000000000000000
    PCM Polarization Energy =               0.0000000000000000
    EFP Energy =                            0.0000000000000000
    Total Energy =                       -270.0294099432352368
    Molecular point group: c1
  Basis Set: 6-31G*
  Basis Set:

  -Total Gradient:
     Atom            X                  Y                   Z
    ------   -----------------  -----------------  -----------------
       1       -0.000007458610    -0.000015309333    -0.000004904042
       2        0.000099209391     0.000790959398     0.000068757469
       3       -0.000096273789    -0.000857482840    -0.000066268115
       4        0.000004592680    -0.000001743815    -0.000015612620
       5       -0.000094860384    -0.000961274313    -0.000068980901
       6        0.000001530446    -0.000000716997     0.000000239115
       7        0.000003631635     0.000000660949    -0.000000159442
       8       -0.000008795060     0.000003697586    -0.000006553529
       9        0.000110987667     0.001032936400     0.000085133314
      10       -0.000002253959    -0.000000975106    -0.000000702616
      11       -0.000002314420     0.000000726695     0.000002861948
      12        0.000000872408    -0.000002296559    -0.000001173617
      13       -0.000002522765     0.000004856869    -0.000002383167
      14        0.000001573889     0.000001664396     0.000005796667
      15       -0.000005554434    -0.000001281233    -0.000000439048
      16       -0.000002364693     0.000005577905     0.000004388581

  **** Optimization is complete! (in 9 steps) ****
    Final optimized geometry and variables:
    Molecular point group: c1

    Geometry (in Angstrom), charge = 0, multiplicity = 1:

    O           -1.369862590316     0.968349911394     0.467098113379
    C           -0.833745059937    -0.095979542400     0.402199476793
    C            0.606961361706    -0.282665146870     0.843296085765
    C           -1.564822210233    -1.314474912097    -0.121682457790
    C            1.602282882356    -0.301290815226    -0.332092421853
    H            0.697311226714    -1.211841776839     1.400192385168
    H            0.847154330241     0.536698649297     1.510761182429
    C            1.587737473966     0.975322689376    -1.174154108394
    H            2.596389928239    -0.438331821219     0.082694536209
    H            1.413896888708    -1.163720978466    -0.966076218620
    H            2.347200334336     0.928267541744    -1.948079632664
    H            1.788374437261     1.847662581159    -0.560347128731
    H            0.629830123500     1.132247691014    -1.657668408725
    H           -0.984564038822    -1.826556599826    -0.882548257658
    H           -2.521940891417    -1.019411360549    -0.528723162363
    H           -1.723620205102    -2.019326752726     0.690177960984

  Mulliken Charges: (a.u.)
   Center  Symbol    Alpha    Beta     Spin     Total
       1     O     4.26130  4.26130  0.00000 -0.52261
       2     C     2.73648  2.73648  0.00000  0.52704
       3     C     3.20181  3.20181  0.00000 -0.40362
       4     C     3.28978  3.28978  0.00000 -0.57957
       5     C     3.16294  3.16294  0.00000 -0.32588
       6     H     0.41418  0.41418  0.00000  0.17165
       7     H     0.40045  0.40045  0.00000  0.19910
       8     C     3.24114  3.24114  0.00000 -0.48229
       9     H     0.41291  0.41291  0.00000  0.17418
      10     H     0.41968  0.41968  0.00000  0.16065
      11     H     0.41839  0.41839  0.00000  0.16323
      12     H     0.41479  0.41479  0.00000  0.17043
      13     H     0.41332  0.41332  0.00000  0.17337
      14     H     0.40939  0.40939  0.00000  0.18122
      15     H     0.39666  0.39666  0.00000  0.20668
      16     H     0.40679  0.40679  0.00000  0.18643

   Total alpha = 24.00000, Total beta = 24.00000, Total charge = -0.00000
