  ==> Input File <==

--------------------------------------------------------------------------
set {
	reference rhf
	basis 6-31G*
}

set_num_threads( 4 )
memory 2 gb

molecule MOL {
0 1

H	 -3.110772	 1.863324	 0.019552
C	 -2.463973	 2.204868	 0.825245
O	 -1.120332	 2.076684	 0.488295
H	 -2.655858	 3.253229	 1.007624
H	 -2.706960	 1.641340	 1.725146
C	 -0.719715	 0.768384	 0.229244
C	 0.719720	 0.768376	 -0.229267
H	 -0.808904	 0.160213	 1.130281
H	 -1.341704	 0.318618	 -0.542018
O	 1.392611	 -0.295398	 0.366430
H	 0.750534	 0.687200	 -1.313918
H	 1.185043	 1.714359	 0.050526
C	 2.706965	 -0.449871	 -0.062409
H	 2.756559	 -0.644779	 -1.131878
H	 3.305899	 0.433456	 0.155466
H	 3.125548	 -1.294566	 0.467107

	symmetry c1
}
set optking {
	frozen_dihedral = ("
		3 6 7 11
	")
}

ee = optimize('scf')
oeprop('DIPOLE', 'QUADRUPOLE', 'MULLIKEN_CHARGES')
f=open( 'psi4out.xyz', 'w' )
f.write( "16  " )
f.write( str(ee) + "\n" )
f.write( MOL.save_string_xyz() )
f.close()
--------------------------------------------------------------------------

    Molecular point group: c1
  Charge       = 0
  Multiplicity = 1
  Basis Set: 6-31G*
  Basis Set:
  @DF-RHF Final Energy:  -306.97489822838031
    Total Energy =                       -306.9748982283802547
    Molecular point group: c1
  Basis Set: 6-31G*
  Basis Set:
  Basis Set: 6-31G*
  Basis Set:
  @DF-RHF Final Energy:  -306.97551641901089
    Total Energy =                       -306.9755164190109440
  Basis Set: 6-31G*
  Basis Set:
  Basis Set: 6-31G*
  Basis Set:
  @DF-RHF Final Energy:  -306.97557319765406
    Total Energy =                       -306.9755731976541142
  Basis Set: 6-31G*
  Basis Set:
  Basis Set: 6-31G*
  Basis Set:
  @DF-RHF Final Energy:  -306.97557851599561
    Total Energy =                       -306.9755785159954939
  Basis Set: 6-31G*
  Basis Set:
  Charge       = 0
  Multiplicity = 1
  Basis Set: 6-31G*
  Basis Set:

    Orbital Energies (a.u.)
    -----------------------

    Doubly Occupied:

       1A    -20.557504     2A    -20.556979     3A    -11.267583
       4A    -11.266904     5A    -11.266064     6A    -11.265864
       7A     -1.387346     8A     -1.375625     9A     -1.027925
      10A     -0.940008    11A     -0.884073    12A     -0.831564
      13A     -0.689002    14A     -0.674874    15A     -0.657548
      16A     -0.645137    17A     -0.623109    18A     -0.599220
      19A     -0.565525    20A     -0.523796    21A     -0.507598
      22A     -0.481259    23A     -0.466185    24A     -0.419295
      25A     -0.414296

  @DF-RHF Final Energy:  -306.97557880186190

   => Energetics <=

    Nuclear Repulsion Energy =            254.8192486932514953
    One-Electron Energy =                -923.8010832212590913
    Two-Electron Energy =                 362.0062557261455822
    DFT Exchange-Correlation Energy =       0.0000000000000000
    Empirical Dispersion Energy =           0.0000000000000000
    PCM Polarization Energy =               0.0000000000000000
    EFP Energy =                            0.0000000000000000
    Total Energy =                       -306.9755788018619569
    Molecular point group: c1
  Basis Set: 6-31G*
  Basis Set:

  -Total Gradient:
     Atom            X                  Y                   Z
    ------   -----------------  -----------------  -----------------
       1        0.000000651746     0.000001243849    -0.000002145505
       2        0.000004524329    -0.000029429889     0.000002848106
       3        0.000979867677    -0.000272951373     0.002987396500
       4        0.000010543494     0.000001165537    -0.000006673958
       5        0.000001695785    -0.000000636068    -0.000001238100
       6       -0.001227263665    -0.000741450770    -0.003776898706
       7        0.000127162035     0.005056095839     0.000395050579
       8       -0.000000973178     0.000009205527     0.000017902015
       9        0.000013330556     0.000022211132    -0.000003584088
      10       -0.000032335559     0.000020632644     0.000009798223
      11        0.000129261001    -0.004094075655     0.000381538739
      12        0.000010477693     0.000004335744     0.000009070477
      13        0.000007281369     0.000026659745    -0.000014687429
      14       -0.000002083143    -0.000002361113     0.000000368206
      15       -0.000003083635     0.000000314783    -0.000000026060
      16       -0.000019056505    -0.000000959937     0.000001280998

  **** Optimization is complete! (in 5 steps) ****
    Final optimized geometry and variables:
    Molecular point group: c1

    Geometry (in Angstrom), charge = 0, multiplicity = 1:

    H           -3.225430581435     0.989839390570    -0.165454994769
    C           -2.536888750358     1.362319211735     0.590913917835
    O           -1.212491921687     1.236923601087     0.181858104969
    H           -2.730628003105     2.413709044781     0.753194212518
    H           -2.719137728270     0.822600735020     1.518299316796
    C           -0.811843426760    -0.079818855405    -0.055643817986
    C            0.641306515243    -0.068763993095    -0.515105080121
    H           -0.875879303624    -0.664810258492     0.858030418262
    H           -1.457414301336    -0.546668845462    -0.796908848385
    O            1.289622562938    -1.158974791576     0.074448849942
    H            0.710134424162    -0.161904879614    -1.597212319417
    H            1.102357587045     0.866694676978    -0.212438547830
    C            2.624766407826    -1.292642839507    -0.294486681211
    H            2.729303749000    -1.443842273130    -1.367528735564
    H            3.205502383002    -0.416488130182    -0.012247171251
    H            3.021282102650    -2.156707738468     0.220790325335

  Mulliken Charges: (a.u.)
   Center  Symbol    Alpha    Beta     Spin     Total
       1     H     0.42967  0.42967  0.00000  0.14065
       2     C     3.08023  3.08023  0.00000 -0.16047
       3     O     4.30883  4.30883  0.00000 -0.61766
       4     H     0.41162  0.41162  0.00000  0.17676
       5     H     0.42828  0.42828  0.00000  0.14344
       6     C     2.99840  2.99840  0.00000  0.00320
       7     C     2.99798  2.99798  0.00000  0.00404
       8     H     0.41487  0.41487  0.00000  0.17026
       9     H     0.42790  0.42790  0.00000  0.14420
      10     O     4.30950  4.30950  0.00000 -0.61900
      11     H     0.42822  0.42822  0.00000  0.14355
      12     H     0.41435  0.41435  0.00000  0.17130
      13     C     3.08004  3.08004  0.00000 -0.16009
      14     H     0.42999  0.42999  0.00000  0.14001
      15     H     0.42841  0.42841  0.00000  0.14318
      16     H     0.41169  0.41169  0.00000  0.17662

   Total alpha = 25.00000, Total beta = 25.00000, Total charge = -0.00000
