                              Psi4 1.0.54 Driver

  ==> Input File <==

--------------------------------------------------------------------------
set {
	reference rhf
	basis cc-pvtz
}

set_num_threads( 4 )
memory 2 gb

molecule MOL {
0 1

H	 1.319724	 -1.482011	 -0.479293
O	 1.675515	 -0.612943	 -0.465627
C	 1.135873	 0.113391	 0.608264
C	 0.027642	 1.012027	 0.090274
H	 1.902972	 0.727968	 1.072615
H	 0.756163	 -0.561896	 1.370018
C	 -1.138737	 0.285728	 -0.581921
H	 0.464661	 1.708096	 -0.618252
H	 -0.340737	 1.603071	 0.925246
C	 -1.933983	 -0.631436	 0.343653
H	 -0.763151	 -0.285569	 -1.422081
H	 -1.808359	 1.035291	 -0.992333
H	 -2.789188	 -1.049673	 -0.174718
H	 -1.335629	 -1.461368	 0.700418
H	 -2.305435	 -0.092167	 1.209725

	symmetry c1
}
set optking {
	frozen_dihedral = ("
		1 2 3 4
	")
}

ee,wfn = optimize('scf', return_wfn=True)
oeprop( wfn, 'DIPOLE', 'QUADRUPOLE', 'MULLIKEN_CHARGES')
f=open( 'psi4out.xyz', 'w' )
f.write( "15  " )
f.write( str(ee) + "\n" )
f.write( MOL.save_string_xyz() )
f.close()
--------------------------------------------------------------------------

    Molecular point group: c1
  Charge       = 0
  Multiplicity = 1
  Basis Set: CC-PVTZ
  Basis Set:
  @DF-RHF Final Energy:  -232.23509497572468
    Total Energy =                       -232.2350949757246212
    Molecular point group: c1
  Basis Set: CC-PVTZ
  Basis Set:
  Basis Set: CC-PVTZ
  Basis Set:
  @DF-RHF Final Energy:  -232.16227908505613
    Total Energy =                       -232.1622790850562410
  Basis Set: CC-PVTZ
  Basis Set:
  Basis Set: CC-PVTZ
  Basis Set:
  @DF-RHF Final Energy:  -232.22919433579619
    Total Energy =                       -232.2291943357961941
  Basis Set: CC-PVTZ
  Basis Set:
  Basis Set: CC-PVTZ
  Basis Set:
  @DF-RHF Final Energy:  -232.23603727666793
    Total Energy =                       -232.2360372766677301
  Basis Set: CC-PVTZ
  Basis Set:
  Basis Set: CC-PVTZ
  Basis Set:
  @DF-RHF Final Energy:  -232.23614120839358
    Total Energy =                       -232.2361412083936330
  Basis Set: CC-PVTZ
  Basis Set:
  Basis Set: CC-PVTZ
  Basis Set:
  @DF-RHF Final Energy:  -232.23615085717051
    Total Energy =                       -232.2361508571705144
  Basis Set: CC-PVTZ
  Basis Set:
  Basis Set: CC-PVTZ
  Basis Set:
  @DF-RHF Final Energy:  -232.23615702152469
    Total Energy =                       -232.2361570215246047
  Basis Set: CC-PVTZ
  Basis Set:
  Charge       = 0
  Multiplicity = 1
  Basis Set: CC-PVTZ
  Basis Set:

    Orbital Energies (a.u.)
    -----------------------

    Doubly Occupied:

       1A    -20.545833     2A    -11.265507     3A    -11.214963
       4A    -11.211728     5A    -11.211159     6A     -1.363109
       7A     -1.069194     8A     -0.975479     9A     -0.876617
      10A     -0.782544    11A     -0.704269    12A     -0.645421
      13A     -0.613056    14A     -0.585265    15A     -0.567318
      16A     -0.542967    17A     -0.504983    18A     -0.491578
      19A     -0.473832    20A     -0.457795    21A     -0.428633

  @DF-RHF Final Energy:  -232.23615769998540

   => Energetics <=

    Nuclear Repulsion Energy =            191.4525408102470863
    One-Electron Energy =                -694.3148971943298875
    Two-Electron Energy =                 270.6261986840972895
    DFT Exchange-Correlation Energy =       0.0000000000000000
    Empirical Dispersion Energy =           0.0000000000000000
    PCM Polarization Energy =               0.0000000000000000
    EFP Energy =                            0.0000000000000000
    Total Energy =                       -232.2361576999854833
    Molecular point group: c1
  Basis Set: CC-PVTZ
  Basis Set:

  -Total Gradient:
     Atom            X                  Y                   Z
    ------   -----------------  -----------------  -----------------
       1        0.000462690475     0.000010051081     0.000692671696
       2       -0.000408703732     0.000107110480    -0.000895685528
       3       -0.000280649070    -0.000579750488     0.000230911623
       4        0.000252509298     0.000449643349    -0.000033227661
       5       -0.000029975855    -0.000004461343    -0.000004187045
       6       -0.000010472233     0.000021833730    -0.000000690113
       7        0.000014889702     0.000020462092     0.000008193517
       8        0.000013256990    -0.000008795742     0.000021122616
       9       -0.000014429026     0.000009973673    -0.000022271158
      10       -0.000006820530    -0.000023482229     0.000013566558
      11       -0.000014076333    -0.000003050548    -0.000002058504
      12        0.000015174510    -0.000001671478     0.000010286584
      13        0.000002910370    -0.000000850800     0.000009095548
      14       -0.000009813158     0.000006943190    -0.000010715420
      15        0.000013508592    -0.000003954968    -0.000017012713

  **** Optimization is complete! (in 8 steps) ****
    Final optimized geometry and variables:
    Molecular point group: c1

    Geometry (in Angstrom), charge = 0, multiplicity = 1:

    H            1.689623351436    -1.243093504000     0.326606143761
    O            1.879115552322    -0.334613482477     0.191006599105
    C            0.899619296609     0.471857780236     0.797602719702
    C           -0.126209639700     0.981813482014    -0.204227056057
    H            1.414313247657     1.317515280749     1.236595190259
    H            0.418025972768    -0.060726439408     1.611260767777
    C           -0.957363129968    -0.098813290911    -0.896995134422
    H            0.404062677941     1.554552343632    -0.957920583030
    H           -0.786611069875     1.675932542062     0.311167055169
    C           -1.891285601557    -0.875358011338     0.028719804423
    H           -0.292394874480    -0.787526551018    -1.407527305020
    H           -1.551068949271     0.373926790532    -1.672628722200
    H           -2.491235765782    -1.581029804088    -0.534114483516
    H           -1.348423319690    -1.440466796900     0.778291378318
    H           -2.569702587443    -0.207848949211     0.550040453093

  Mulliken Charges: (a.u.)
   Center  Symbol    Alpha    Beta     Spin     Total
       1     H     0.39101  0.39101  0.00000  0.21798
       2     O     4.20813  4.20813  0.00000 -0.41626
       3     C     2.98546  2.98546  0.00000  0.02907
       4     C     3.08579  3.08579  0.00000 -0.17157
       5     H     0.44952  0.44952  0.00000  0.10097
       6     H     0.46696  0.46696  0.00000  0.06607
       7     C     3.10127  3.10127  0.00000 -0.20253
       8     H     0.44865  0.44865  0.00000  0.10270
       9     H     0.45613  0.45613  0.00000  0.08774
      10     C     3.15226  3.15226  0.00000 -0.30452
      11     H     0.44935  0.44935  0.00000  0.10129
      12     H     0.44716  0.44716  0.00000  0.10567
      13     H     0.44536  0.44536  0.00000  0.10927
      14     H     0.45912  0.45912  0.00000  0.08176
      15     H     0.45382  0.45382  0.00000  0.09235

   Total alpha = 21.00000, Total beta = 21.00000, Total charge =  0.00000

*** Psi4 exiting successfully. Buy a developer a beer!
