                              Psi4 1.0.54 Driver

  ==> Input File <==

--------------------------------------------------------------------------
set {
	reference rhf
	basis cc-pvtz
}

set_num_threads( 4 )
memory 2 gb

molecule MOL {
0 1

O	 -2.374409	 1.338660	 -0.336961
C	 -2.104891	 0.204655	 -0.107126
C	 -0.881910	 -0.448129	 -0.720509
C	 -2.949910	 -0.638219	 0.818225
C	 -0.122155	 0.538399	 -1.616264
H	 -1.221272	 -1.288843	 -1.312239
H	 -0.224536	 -0.821475	 0.057525
C	 1.108783	 -0.094402	 -2.261911
H	 -0.803584	 0.902426	 -2.374794
H	 0.186003	 1.401830	 -1.031606
C	 1.938449	 0.861236	 -3.121165
H	 0.797889	 -0.942566	 -2.866841
H	 1.745768	 -0.496569	 -1.478894
C	 1.233660	 1.361951	 -4.379512
H	 2.851405	 0.351544	 -3.412768
H	 2.246688	 1.710737	 -2.517286
H	 0.909180	 0.532744	 -4.999767
H	 1.900587	 1.976282	 -4.973293
H	 0.361732	 1.960874	 -4.146461
H	 -3.440322	 -1.417144	 0.243099
H	 -3.694377	 -0.025850	 1.303346
H	 -2.331085	 -1.129829	 1.560495

	symmetry c1
}
set optking {
	frozen_dihedral = ("
		6 3 2 1
	")
}

ee,wfn = optimize('scf', return_wfn=True)
oeprop( wfn, 'DIPOLE', 'QUADRUPOLE', 'MULLIKEN_CHARGES')
f=open( 'psi4out.xyz', 'w' )
f.write( "22  " )
f.write( str(ee) + "\n" )
f.write( MOL.save_string_xyz() )
f.close()
--------------------------------------------------------------------------

    Molecular point group: c1
  Charge       = 0
  Multiplicity = 1
  Basis Set: CC-PVTZ
  Basis Set:
  @DF-RHF Final Energy:  -348.22399822436779
    Total Energy =                       -348.2239982243673921
    Molecular point group: c1
  Basis Set: CC-PVTZ
  Basis Set:
  Basis Set: CC-PVTZ
  Basis Set:
  @DF-RHF Final Energy:  -348.22369872319052
    Total Energy =                       -348.2236987231906369
  Basis Set: CC-PVTZ
  Basis Set:
  Basis Set: CC-PVTZ
  Basis Set:
  @DF-RHF Final Energy:  -348.22389534315300
    Total Energy =                       -348.2238953431528898
  Basis Set: CC-PVTZ
  Basis Set:
  Basis Set: CC-PVTZ
  Basis Set:
  @DF-RHF Final Energy:  -348.22510733316540
    Total Energy =                       -348.2251073331657381
  Basis Set: CC-PVTZ
  Basis Set:
  @DF-RHF Final Energy:  -348.22518639454404
    Total Energy =                       -348.2251863945440959
  @DF-RHF Final Energy:  -348.22516549138646
    Total Energy =                       -348.2251654913862922
  @DF-RHF Final Energy:  -348.22520405720468
    Total Energy =                       -348.2252040572046781
  Basis Set: CC-PVTZ
  Basis Set:
  @DF-RHF Final Energy:  -348.22521966782654
    Total Energy =                       -348.2252196678264795
  Basis Set: CC-PVTZ
  Basis Set:
  Basis Set: CC-PVTZ
  Basis Set:
  @DF-RHF Final Energy:  -348.22518817833270
    Total Energy =                       -348.2251881783330987
  Basis Set: CC-PVTZ
  Basis Set:
  Basis Set: CC-PVTZ
  Basis Set:
  @DF-RHF Final Energy:  -348.22524015854879
    Total Energy =                       -348.2252401585487291
  Basis Set: CC-PVTZ
  Basis Set:
  Charge       = 0
  Multiplicity = 1
  Basis Set: CC-PVTZ
  Basis Set:

    Orbital Energies (a.u.)
    -----------------------

    Doubly Occupied:

       1A    -20.538973     2A    -11.320638     3A    -11.230297
       4A    -11.226690     5A    -11.215636     6A    -11.214551
       7A    -11.214317     8A    -11.205710     9A     -1.399058
      10A     -1.091965    11A     -1.044054    12A     -1.001816
      13A     -0.935681    14A     -0.854911    15A     -0.781917
      16A     -0.732011    17A     -0.658066    18A     -0.651242
      19A     -0.632398    20A     -0.614673    21A     -0.602287
      22A     -0.580248    23A     -0.560736    24A     -0.547609
      25A     -0.524039    26A     -0.512375    27A     -0.499330
      28A     -0.487024    29A     -0.465484    30A     -0.462813
      31A     -0.458179    32A     -0.401968

  @DF-RHF Final Energy:  -348.22524085855241

   => Energetics <=

    Nuclear Repulsion Energy =            372.9942964334057933
    One-Electron Energy =               -1211.1056792918684550
    Two-Electron Energy =                 489.8861419999099098
    DFT Exchange-Correlation Energy =       0.0000000000000000
    Empirical Dispersion Energy =           0.0000000000000000
    PCM Polarization Energy =               0.0000000000000000
    EFP Energy =                            0.0000000000000000
    Total Energy =                       -348.2252408585527519
    Molecular point group: c1
  Basis Set: CC-PVTZ
  Basis Set:

  -Total Gradient:
     Atom            X                  Y                   Z
    ------   -----------------  -----------------  -----------------
       1        0.000025475576    -0.000085802977    -0.000008000733
       2       -0.000061237572     0.000100543684     0.000040056357
       3        0.000040927604    -0.000055697642    -0.000021642010
       4       -0.000014022177     0.000101995446    -0.000034945301
       5        0.000006852103    -0.000006161105     0.000021023282
       6       -0.000006329392     0.000008686802     0.000003565356
       7       -0.000015240241     0.000005890386    -0.000000789435
       8       -0.000030347581     0.000010133667    -0.000003743882
       9        0.000009440516    -0.000005450048     0.000004508295
      10        0.000008536915     0.000009882573    -0.000014116135
      11       -0.000006579392     0.000016759787     0.000004857098
      12       -0.000003805148     0.000001047912     0.000000017139
      13        0.000000842216    -0.000000474787    -0.000006380537
      14       -0.000001554658    -0.000008635700     0.000004034232
      15       -0.000000852018     0.000001176627     0.000005605417
      16       -0.000004937871     0.000001322187    -0.000003218493
      17       -0.000001768941     0.000002058412     0.000001458335
      18        0.000005104802    -0.000003894099     0.000001652722
      19        0.000012781809    -0.000002111138    -0.000005425280
      20        0.000000962185    -0.000043075621    -0.000009353731
      21        0.000007438391    -0.000017666429    -0.000000904016
      22        0.000028312871    -0.000030527936     0.000021741319

  **** Optimization is complete! (in 11 steps) ****
    Final optimized geometry and variables:
    Molecular point group: c1

    Geometry (in Angstrom), charge = 0, multiplicity = 1:

    O           -1.890589605451     0.864091013859     1.294405668475
    C           -1.555957876306    -0.269303314041     1.410128365225
    C           -0.363918497795    -0.842349588823     0.670639916524
    C           -2.303987096613    -1.223677580101     2.313284285693
    C            0.405188721160     0.170794272982    -0.165731408337
    H           -0.730955307794    -1.655042226193     0.047420945246
    H            0.286294227467    -1.312961588604     1.404264952295
    C            1.586822947062    -0.461593047650    -0.898380037771
    H           -0.276518635836     0.631941149591    -0.868125583389
    H            0.758531211456     0.968790071892     0.478461453269
    C            2.442968532319     0.525699541007    -1.693374086719
    H            1.224228828902    -1.238503073184    -1.568363144237
    H            2.223764340893    -0.961489970669    -0.173089781893
    C            1.733740120472     1.171011045435    -2.881353493563
    H            3.322499278734     0.002052706699    -2.055180602946
    H            2.806144030610     1.302002723489    -1.025365386167
    H            1.352582014262     0.417558083170    -3.563434065775
    H            2.416142113975     1.803259028442    -3.437721903529
    H            0.899893707947     1.787927118126    -2.569850081333
    H           -2.608932839279    -2.107050313156     1.763545677586
    H           -3.170867864750    -0.732853185139     2.728087323693
    H           -1.654853431812    -1.552953076503     3.117652025897

  Mulliken Charges: (a.u.)
   Center  Symbol    Alpha    Beta     Spin     Total
       1     O     4.17089  4.17089  0.00000 -0.34177
       2     C     2.86179  2.86179  0.00000  0.27643
       3     C     3.11343  3.11343  0.00000 -0.22687
       4     C     3.15130  3.15130  0.00000 -0.30260
       5     C     3.08569  3.08569  0.00000 -0.17139
       6     H     0.44492  0.44492  0.00000  0.11016
       7     H     0.44516  0.44516  0.00000  0.10968
       8     C     3.09619  3.09619  0.00000 -0.19237
       9     H     0.44354  0.44354  0.00000  0.11292
      10     H     0.44681  0.44681  0.00000  0.10638
      11     C     3.09001  3.09001  0.00000 -0.18002
      12     H     0.45513  0.45513  0.00000  0.08973
      13     H     0.45085  0.45085  0.00000  0.09831
      14     C     3.15276  3.15276  0.00000 -0.30552
      15     H     0.44865  0.44865  0.00000  0.10271
      16     H     0.45382  0.45382  0.00000  0.09237
      17     H     0.45580  0.45580  0.00000  0.08840
      18     H     0.44650  0.44650  0.00000  0.10701
      19     H     0.45076  0.45076  0.00000  0.09848
      20     H     0.45092  0.45092  0.00000  0.09817
      21     H     0.43540  0.43540  0.00000  0.12921
      22     H     0.44971  0.44971  0.00000  0.10058

   Total alpha = 32.00000, Total beta = 32.00000, Total charge = -0.00000

*** Psi4 exiting successfully. Buy a developer a beer!
