                              Psi4 1.0.54 Driver

  ==> Input File <==

--------------------------------------------------------------------------
set {
	reference rhf
	basis cc-pvtz
}

set_num_threads( 4 )
memory 2 gb

molecule MOL {
0 1

H	 -0.813174	 4.428889	 0.625864
O	 -0.134051	 3.833605	 0.367746
C	 -0.560826	 2.508680	 0.543399
C	 0.558897	 1.580889	 0.117315
H	 -0.817133	 2.326206	 1.584928
H	 -1.450431	 2.313216	 -0.051771
C	 0.196029	 0.106276	 0.266738
H	 1.439068	 1.809715	 0.709901
H	 0.812839	 1.799972	 -0.914883
C	 1.330220	 -0.826136	 -0.155230
H	 -0.079166	 -0.089926	 1.298478
H	 -0.685280	 -0.112668	 -0.332379
C	 2.719700	 -0.407669	 0.328325
H	 1.339388	 -0.911200	 -1.239363
H	 1.119001	 -1.821953	 0.224128
C	 3.241564	 0.893452	 -0.276737
H	 3.418299	 -1.204729	 0.093035
H	 2.711776	 -0.323368	 1.411960
H	 3.254204	 0.841071	 -1.360784
H	 2.634460	 1.745075	 0.005842
H	 4.254264	 1.092401	 0.054971

	symmetry c1
}
set optking {
	frozen_dihedral = ("
		4 7 10 14
	")
}

ee,wfn = optimize('scf', return_wfn=True)
oeprop( wfn, 'DIPOLE', 'QUADRUPOLE', 'MULLIKEN_CHARGES')
f=open( 'psi4out.xyz', 'w' )
f.write( "21  " )
f.write( str(ee) + "\n" )
f.write( MOL.save_string_xyz() )
f.close()
--------------------------------------------------------------------------

    Molecular point group: c1
  Charge       = 0
  Multiplicity = 1
  Basis Set: CC-PVTZ
  Basis Set:
  @DF-RHF Final Energy:  -310.30227975588207
    Total Energy =                       -310.3022797558824664
    Molecular point group: c1
  Basis Set: CC-PVTZ
  Basis Set:
  Basis Set: CC-PVTZ
  Basis Set:
  @DF-RHF Final Energy:  -310.31945068078210
    Total Energy =                       -310.3194506807822108
  Basis Set: CC-PVTZ
  Basis Set:
  Basis Set: CC-PVTZ
  Basis Set:
  @DF-RHF Final Energy:  -310.32464694982127
    Total Energy =                       -310.3246469498213855
  Basis Set: CC-PVTZ
  Basis Set:
  Basis Set: CC-PVTZ
  Basis Set:
  @DF-RHF Final Energy:  -310.32599573742959
    Total Energy =                       -310.3259957374294800
  Basis Set: CC-PVTZ
  Basis Set:
  @DF-RHF Final Energy:  -310.32634912338898
    Total Energy =                       -310.3263491233897184
  @DF-RHF Final Energy:  -310.32683777978002
    Total Energy =                       -310.3268377797798507
  Basis Set: CC-PVTZ
  Basis Set:
  @DF-RHF Final Energy:  -310.32690781600030
    Total Energy =                       -310.3269078160004710
  Basis Set: CC-PVTZ
  Basis Set:
  Basis Set: CC-PVTZ
  Basis Set:
  @DF-RHF Final Energy:  -310.32694739167516
    Total Energy =                       -310.3269473916751622
  Basis Set: CC-PVTZ
  Basis Set:
  Basis Set: CC-PVTZ
  Basis Set:
  @DF-RHF Final Energy:  -310.32695216454493
    Total Energy =                       -310.3269521645447639
  Basis Set: CC-PVTZ
  Basis Set:
  Charge       = 0
  Multiplicity = 1
  Basis Set: CC-PVTZ
  Basis Set:

    Orbital Energies (a.u.)
    -----------------------

    Doubly Occupied:

       1A    -20.545578     2A    -11.265036     3A    -11.214505
       4A    -11.212451     5A    -11.211677     6A    -11.208645
       7A    -11.202522     8A     -1.363416     9A     -1.085056
      10A     -1.030343    11A     -0.959160    12A     -0.873498
      13A     -0.815409    14A     -0.771933    15A     -0.694194
      16A     -0.660270    17A     -0.625187    18A     -0.606193
      19A     -0.584758    20A     -0.570373    21A     -0.540718
      22A     -0.524707    23A     -0.505039    24A     -0.490271
      25A     -0.484935    26A     -0.454305    27A     -0.449139
      28A     -0.442795    29A     -0.437647

  @DF-RHF Final Energy:  -310.32695256344891

   => Energetics <=

    Nuclear Repulsion Energy =            319.7125789116475971
    One-Electron Energy =               -1054.4195458802848862
    Two-Electron Energy =                 424.3800144051884899
    DFT Exchange-Correlation Energy =       0.0000000000000000
    Empirical Dispersion Energy =           0.0000000000000000
    PCM Polarization Energy =               0.0000000000000000
    EFP Energy =                            0.0000000000000000
    Total Energy =                       -310.3269525634487991
    Molecular point group: c1
  Basis Set: CC-PVTZ
  Basis Set:

  -Total Gradient:
     Atom            X                  Y                   Z
    ------   -----------------  -----------------  -----------------
       1       -0.000000656249     0.000001304231     0.000004173216
       2        0.000003733751     0.000003818129    -0.000010505905
       3       -0.000007854608     0.000010133397     0.000014244468
       4        0.001101150897    -0.000054115546     0.003134728362
       5       -0.000002799513    -0.000011745128     0.000003816366
       6        0.000006843556     0.000000426483    -0.000003823049
       7       -0.002174024867    -0.000802013196    -0.004546904780
       8        0.000000341787    -0.000006682932     0.000008522321
       9       -0.000009597098     0.000013160266     0.000001033031
      10        0.003680836556     0.004460192465     0.001360944831
      11       -0.000001439495    -0.000006964158    -0.000000041835
      12        0.000017235024    -0.000003766606    -0.000012388636
      13       -0.000006759335     0.000037557416     0.000022650382
      14       -0.002561885605    -0.003618963508     0.000020918127
      15        0.000012085677    -0.000001296119     0.000019774003
      16       -0.000038212008    -0.000013303631    -0.000029285073
      17       -0.000018427811    -0.000020867653    -0.000014176894
      18       -0.000015420753     0.000014393601     0.000014827459
      19        0.000002703937    -0.000008573445    -0.000008515358
      20       -0.000001161314     0.000010624344     0.000010960545
      21        0.000013307474    -0.000003318405     0.000009048417

  **** Optimization is complete! (in 10 steps) ****
    Final optimized geometry and variables:
    Molecular point group: c1

    Geometry (in Angstrom), charge = 0, multiplicity = 1:

    H           -2.352131538576     3.101610272652     0.580531387325
    O           -1.579987264568     2.624482225215     0.339145311087
    C           -1.831366464167     1.244788146240     0.382415214937
    C           -0.564250332995     0.511728246515    -0.011412693191
    H           -2.137007627180     0.944729576026     1.382652457799
    H           -2.638286130394     0.983400561824    -0.298808178826
    C           -0.742638733135    -1.003557505311     0.032813023449
    H            0.226401863352     0.822861849447     0.660188305130
    H           -0.279821532880     0.835869454911    -1.007348338902
    C            0.461798690074    -1.859168854925    -0.387313673388
    H           -1.011985999364    -1.279103410843     1.050251693796
    H           -1.588987430665    -1.286250700521    -0.586806544172
    C            1.830006114176    -1.492403369580     0.203434413849
    H            0.518696132730    -1.905724218963    -1.471913178461
    H            0.228453918249    -2.875873469024    -0.084702886678
    C            2.644488121642    -0.488173279958    -0.610493796197
    H            2.415793815855    -2.401917189763     0.288612010372
    H            1.702635772228    -1.126840875610     1.218687804339
    H            2.828318133382    -0.867667097927    -1.610252157966
    H            2.146870522478     0.467039907336    -0.708408645799
    H            3.607671321751    -0.310732681559    -0.144864557458

  Mulliken Charges: (a.u.)
   Center  Symbol    Alpha    Beta     Spin     Total
       1     H     0.39745  0.39745  0.00000  0.20509
       2     O     4.19477  4.19477  0.00000 -0.38954
       3     C     2.96510  2.96510  0.00000  0.06980
       4     C     3.09366  3.09366  0.00000 -0.18732
       5     H     0.47486  0.47486  0.00000  0.05027
       6     H     0.47337  0.47337  0.00000  0.05326
       7     C     3.10342  3.10342  0.00000 -0.20683
       8     H     0.44738  0.44738  0.00000  0.10523
       9     H     0.44909  0.44909  0.00000  0.10183
      10     C     3.09698  3.09698  0.00000 -0.19396
      11     H     0.45471  0.45471  0.00000  0.09059
      12     H     0.44991  0.44991  0.00000  0.10019
      13     C     3.10072  3.10072  0.00000 -0.20144
      14     H     0.45348  0.45348  0.00000  0.09304
      15     H     0.44660  0.44660  0.00000  0.10680
      16     C     3.14867  3.14867  0.00000 -0.29734
      17     H     0.44520  0.44520  0.00000  0.10959
      18     H     0.45165  0.45165  0.00000  0.09669
      19     H     0.45528  0.45528  0.00000  0.08945
      20     H     0.44912  0.44912  0.00000  0.10176
      21     H     0.44858  0.44858  0.00000  0.10285

   Total alpha = 29.00000, Total beta = 29.00000, Total charge = -0.00000

*** Psi4 exiting successfully. Buy a developer a beer!
