  ==> Input File <==

--------------------------------------------------------------------------
set {
	reference rhf
	basis cc-pvtz
}

set_num_threads( 4 )
memory 2 gb

molecule MOL {
0 1

O	 -1.458153	 -1.573277	 -1.721820
C	 -0.617648	 -1.375378	 -0.911735
C	 0.664054	 -2.158788	 -0.779953
O	 -0.695554	 -0.422406	 0.000602
C	 0.802592	 -3.269025	 -1.809105
H	 0.698219	 -2.550578	 0.230633
H	 1.481972	 -1.450321	 -0.850806
H	 -0.006301	 -3.982225	 -1.723925
H	 1.738779	 -3.794608	 -1.665355
H	 0.784571	 -2.871979	 -2.815214
C	 -1.852370	 0.402254	 0.000718
C	 -3.063338	 -0.501097	 -0.000437
H	 -1.831732	 1.039442	 -0.872158
H	 -1.832493	 1.038301	 0.874430
H	 -3.071944	 -1.133732	 -0.879113
H	 -3.966302	 0.097976	 -0.000483
H	 -3.072764	 -1.134834	 0.877435

	symmetry c1
}
set optking {
	frozen_dihedral = ("
		2 4 11 13
	")
}

ee = optimize('scf')
oeprop('DIPOLE', 'QUADRUPOLE', 'MULLIKEN_CHARGES')
f=open( 'psi4out.xyz', 'w' )
f.write( "17  " )
f.write( str(ee) + "\n" )
f.write( MOL.save_string_xyz() )
f.close()
--------------------------------------------------------------------------

    Molecular point group: c1
  Charge       = 0
  Multiplicity = 1
  Basis Set: CC-PVTZ
  Basis Set:
  @DF-RHF Final Energy:  -345.02227950011843
    Total Energy =                       -345.0222795001187137
    Molecular point group: c1
  Basis Set: CC-PVTZ
  Basis Set:
  Basis Set: CC-PVTZ
  Basis Set:
  @DF-RHF Final Energy:  -345.03425026486252
    Total Energy =                       -345.0342502648625214
  Basis Set: CC-PVTZ
  Basis Set:
  Basis Set: CC-PVTZ
  Basis Set:
  @DF-RHF Final Energy:  -345.03599095572133
    Total Energy =                       -345.0359909557212177
  Basis Set: CC-PVTZ
  Basis Set:
  Basis Set: CC-PVTZ
  Basis Set:
  @DF-RHF Final Energy:  -345.03223252497168
    Total Energy =                       -345.0322325249711639
  Basis Set: CC-PVTZ
  Basis Set:
  @DF-RHF Final Energy:  -345.03638600700071
    Total Energy =                       -345.0363860070007718
  Basis Set: CC-PVTZ
  Basis Set:
  @DF-RHF Final Energy:  -345.03646757533761
    Total Energy =                       -345.0364675753377242
  Basis Set: CC-PVTZ
  Basis Set:
  Basis Set: CC-PVTZ
  Basis Set:
  @DF-RHF Final Energy:  -345.03647535626038
    Total Energy =                       -345.0364753562600981
  Basis Set: CC-PVTZ
  Basis Set:
  Basis Set: CC-PVTZ
  Basis Set:
  @DF-RHF Final Energy:  -345.03647704113928
    Total Energy =                       -345.0364770411389372
  Basis Set: CC-PVTZ
  Basis Set:
  Charge       = 0
  Multiplicity = 1
  Basis Set: CC-PVTZ
  Basis Set:

    Orbital Energies (a.u.)
    -----------------------

    Doubly Occupied:

       1A    -20.592230     2A    -20.532179     3A    -11.364062
       4A    -11.285343     5A    -11.235113     6A    -11.214708
       7A    -11.213390     8A     -1.468023     9A     -1.364760
      10A     -1.069148    11A     -1.028627    12A     -0.918959
      13A     -0.857028    14A     -0.752289    15A     -0.702719
      16A     -0.683368    17A     -0.664335    18A     -0.624953
      19A     -0.611341    20A     -0.568742    21A     -0.546794
      22A     -0.532327    23A     -0.521904    24A     -0.517671
      25A     -0.496156    26A     -0.490745    27A     -0.454687
      28A     -0.435184

  @DF-RHF Final Energy:  -345.03647757061947

   => Energetics <=

    Nuclear Repulsion Energy =            319.8595426122033132
    One-Electron Energy =               -1104.2984665604794827
    Two-Electron Energy =                 439.4024463776565881
    DFT Exchange-Correlation Energy =       0.0000000000000000
    Empirical Dispersion Energy =           0.0000000000000000
    PCM Polarization Energy =               0.0000000000000000
    EFP Energy =                            0.0000000000000000
    Total Energy =                       -345.0364775706195815
    Molecular point group: c1
  Basis Set: CC-PVTZ
  Basis Set:

  -Total Gradient:
     Atom            X                  Y                   Z
    ------   -----------------  -----------------  -----------------
       1        0.000033298421     0.000000849301    -0.000039307066
       2       -0.002033547511    -0.003251578479     0.003209682155
       3       -0.000010970217    -0.000052622311     0.000032367899
       4        0.003662051176     0.005783230953    -0.004055197443
       5        0.000007482733     0.000018698334    -0.000008830118
       6        0.000014443153     0.000015202341    -0.000007759117
       7        0.000008086674     0.000014352110    -0.000014057213
       8       -0.000004787979    -0.000007710053    -0.000000117600
       9       -0.000003930492     0.000000501046     0.000003459973
      10       -0.000002001484    -0.000004279090     0.000001340893
      11       -0.004337183160    -0.006484426757    -0.001935683668
      12       -0.000033288544    -0.000014345183    -0.000015919254
      13        0.002748305062     0.003942704934     0.002790416495
      14       -0.000023613625     0.000003964143     0.000001109725
      15       -0.000017254934     0.000016499719     0.000028061077
      16       -0.000012818314     0.000012916631     0.000005904632
      17        0.000005729038     0.000006042360     0.000004528628

  **** Optimization is complete! (in 9 steps) ****
    Final optimized geometry and variables:
    Molecular point group: c1

    Geometry (in Angstrom), charge = 0, multiplicity = 1:

    O           -0.445531941894    -0.304074104329    -1.112198413089
    C            0.310868759908    -0.118066875916    -0.220421943354
    C            1.561413861697    -0.922899910015     0.033262661315
    O            0.176043891128     0.844146157046     0.674669779904
    C            1.809801989784    -2.000365381564    -1.009918719448
    H            1.470514846543    -1.349595674015     1.026282780428
    H            2.388924050268    -0.224472079968     0.085959777007
    H            0.989108808009    -2.704078590158    -1.046378214288
    H            2.716678611529    -2.543933395159    -0.774326457626
    H            1.916348138139    -1.570026897708    -1.996774983459
    C           -1.010288455309     1.630136316280     0.718310516875
    C           -2.291474521726     0.846741283896     0.921629531664
    H           -1.041102714783     2.268870451431    -0.154349067847
    H           -0.844857083765     2.273806036304     1.570205664999
    H           -2.551596901430     0.255991886992     0.058939451652
    H           -3.094389502704     1.548498611266     1.118321636926
    H           -2.201081868450     0.194468086560     1.782933802799

  Mulliken Charges: (a.u.)
   Center  Symbol    Alpha    Beta     Spin     Total
       1     O     4.19978  4.19978  0.00000 -0.39955
       2     C     2.80060  2.80060  0.00000  0.39881
       3     C     3.09391  3.09391  0.00000 -0.18781
       4     O     4.15551  4.15551  0.00000 -0.31103
       5     C     3.13987  3.13987  0.00000 -0.27974
       6     H     0.44302  0.44302  0.00000  0.11396
       7     H     0.44041  0.44041  0.00000  0.11918
       8     H     0.44854  0.44854  0.00000  0.10293
       9     H     0.45060  0.45060  0.00000  0.09881
      10     H     0.44878  0.44878  0.00000  0.10245
      11     C     2.98464  2.98464  0.00000  0.03072
      12     C     3.15678  3.15678  0.00000 -0.31356
      13     H     0.45398  0.45398  0.00000  0.09203
      14     H     0.44649  0.44649  0.00000  0.10701
      15     H     0.43368  0.43368  0.00000  0.13264
      16     H     0.44985  0.44985  0.00000  0.10031
      17     H     0.45357  0.45357  0.00000  0.09286

   Total alpha = 28.00000, Total beta = 28.00000, Total charge = -0.00000
