                              Psi4 1.0.54 Driver

  ==> Input File <==

--------------------------------------------------------------------------
set {
	reference rhf
	basis cc-pvtz
}

set_num_threads( 4 )
memory 2 gb

molecule MOL {
0 1

H	 -1.483485	 -0.272352	 0.299885
N	 -0.625934	 -0.663929	 -0.000707
C	 -0.610910	 -2.047101	 -0.415079
C	 0.468494	 0.129045	 -0.002160
H	 -0.920138	 -2.697966	 0.394082
H	 0.394002	 -2.303836	 -0.703755
H	 -1.269745	 -2.206701	 -1.260361
C	 1.785715	 -0.615093	 0.000603
O	 0.413285	 1.323206	 0.000532
H	 1.866994	 -1.243310	 -0.878792
H	 2.591506	 0.100263	 0.006422
H	 1.860358	 -1.250360	 0.875522

	symmetry c1
}
set optking {
	frozen_dihedral = ("
		3 2 4 9
	")
}

ee,wfn = optimize('scf', return_wfn=True)
oeprop( wfn, 'DIPOLE', 'QUADRUPOLE', 'MULLIKEN_CHARGES')
f=open( 'psi4out.xyz', 'w' )
f.write( "12  " )
f.write( str(ee) + "\n" )
f.write( MOL.save_string_xyz() )
f.close()
--------------------------------------------------------------------------

    Molecular point group: c1
  Charge       = 0
  Multiplicity = 1
  Basis Set: CC-PVTZ
  Basis Set:
  @DF-RHF Final Energy:  -247.08814822905518
    Total Energy =                       -247.0881482290552640
    Molecular point group: c1
  Basis Set: CC-PVTZ
  Basis Set:
  Basis Set: CC-PVTZ
  Basis Set:
  @DF-RHF Final Energy:  -247.09094837133725
    Total Energy =                       -247.0909483713372197
  Basis Set: CC-PVTZ
  Basis Set:
  Basis Set: CC-PVTZ
  Basis Set:
  @DF-RHF Final Energy:  -247.09480677311444
    Total Energy =                       -247.0948067731142714
  Basis Set: CC-PVTZ
  Basis Set:
  Basis Set: CC-PVTZ
  Basis Set:
  @DF-RHF Final Energy:  -247.07546070939964
    Total Energy =                       -247.0754607093995787
  Basis Set: CC-PVTZ
  Basis Set:
  @DF-RHF Final Energy:  -247.09545347324851
    Total Energy =                       -247.0954534732486536
  @DF-RHF Final Energy:  -247.09573282556991
    Total Energy =                       -247.0957328255698258
  @DF-RHF Final Energy:  -247.09606078951529
    Total Energy =                       -247.0960607895154908
  @DF-RHF Final Energy:  -247.09627784171226
    Total Energy =                       -247.0962778417123218
  @DF-RHF Final Energy:  -247.09647524409189
    Total Energy =                       -247.0964752440918915
  @DF-RHF Final Energy:  -247.09667137022461
    Total Energy =                       -247.0966713702248398
  @DF-RHF Final Energy:  -247.09451659626384
    Total Energy =                       -247.0945165962639862
  @DF-RHF Final Energy:  -247.09695030855394
    Total Energy =                       -247.0969503085540282
  Basis Set: CC-PVTZ
  Basis Set:
  @DF-RHF Final Energy:  -247.09706242242484
    Total Energy =                       -247.0970624224249264
  Basis Set: CC-PVTZ
  Basis Set:
  Basis Set: CC-PVTZ
  Basis Set:
  @DF-RHF Final Energy:  -247.09707589458137
    Total Energy =                       -247.0970758945814509
  Basis Set: CC-PVTZ
  Basis Set:
  Basis Set: CC-PVTZ
  Basis Set:
  @DF-RHF Final Energy:  -247.09707704616679
    Total Energy =                       -247.0970770461667030
  Basis Set: CC-PVTZ
  Basis Set:
  Charge       = 0
  Multiplicity = 1
  Basis Set: CC-PVTZ
  Basis Set:

    Orbital Energies (a.u.)
    -----------------------

    Doubly Occupied:

       1A    -20.509105     2A    -15.573038     3A    -11.338041
       4A    -11.268570     5A    -11.228717     6A     -1.390688
       7A     -1.231231     8A     -1.006918     9A     -0.956664
      10A     -0.781968    11A     -0.676320    12A     -0.669850
      13A     -0.642196    14A     -0.588750    15A     -0.579092
      16A     -0.562415    17A     -0.556387    18A     -0.517894
      19A     -0.418751    20A     -0.390426

  @DF-RHF Final Energy:  -247.09707717073866

   => Energetics <=

    Nuclear Repulsion Energy =            181.7480768252125927
    One-Electron Energy =                -695.9162577163793912
    Two-Electron Energy =                 267.0711037204282547
    DFT Exchange-Correlation Energy =       0.0000000000000000
    Empirical Dispersion Energy =           0.0000000000000000
    PCM Polarization Energy =               0.0000000000000000
    EFP Energy =                            0.0000000000000000
    Total Energy =                       -247.0970771707385438
    Molecular point group: c1
  Basis Set: CC-PVTZ
  Basis Set:

  -Total Gradient:
     Atom            X                  Y                   Z
    ------   -----------------  -----------------  -----------------
       1        0.000005654189    -0.000005243553     0.000008806640
       2        0.000570553460     0.000087730883     0.001448962427
       3       -0.000407524107    -0.000280534243    -0.001264997625
       4       -0.000035311916     0.000942547878     0.001215618878
       5        0.000019854384    -0.000000497904    -0.000016241622
       6       -0.000015552598     0.000002138137    -0.000016291621
       7       -0.000001381845     0.000007131187     0.000014269070
       8       -0.000000117380     0.000001693875     0.000029525983
       9       -0.000142552875    -0.000757401495    -0.001392885981
      10       -0.000000904228     0.000007530473    -0.000009542952
      11        0.000003588116    -0.000000192320    -0.000004155603
      12        0.000003694802    -0.000004902918    -0.000013067593

  **** Optimization is complete! (in 16 steps) ****
    Final optimized geometry and variables:
    Molecular point group: c1

    Geometry (in Angstrom), charge = 0, multiplicity = 1:

    H           -1.730935493416     0.277402580945     0.003529943588
    N           -0.887511985923    -0.167660054819     0.281913173946
    C           -0.973436247669    -1.575575364621     0.593645699540
    C            0.215512982209     0.476262310625    -0.185847420252
    H           -1.931098479215    -1.765916254880     1.056268477323
    H           -0.209234210505    -1.864440807031     1.300572674415
    H           -0.889406959537    -2.210233089209    -0.283508498358
    C            1.551260478966    -0.187354426004     0.053632454948
    O            0.126633991925     1.528549756987    -0.744467153175
    H            1.611601206682    -1.130050381103    -0.477526240509
    H            2.324971843650     0.472500487673    -0.302540815916
    H            1.699600854606    -0.388799636101     1.107261340860

  Mulliken Charges: (a.u.)
   Center  Symbol    Alpha    Beta     Spin     Total
       1     H     0.41505  0.41505  0.00000  0.16991
       2     N     3.60662  3.60662  0.00000 -0.21323
       3     C     3.08749  3.08749  0.00000 -0.17497
       4     C     2.84492  2.84492  0.00000  0.31016
       5     H     0.44339  0.44339  0.00000  0.11322
       6     H     0.45224  0.45224  0.00000  0.09553
       7     H     0.45629  0.45629  0.00000  0.08742
       8     C     3.16146  3.16146  0.00000 -0.32292
       9     O     4.20752  4.20752  0.00000 -0.41505
      10     H     0.44958  0.44958  0.00000  0.10084
      11     H     0.42937  0.42937  0.00000  0.14125
      12     H     0.44608  0.44608  0.00000  0.10784

   Total alpha = 20.00000, Total beta = 20.00000, Total charge = -0.00000

*** Psi4 exiting successfully. Buy a developer a beer!
