                              Psi4 1.0.54 Driver

  ==> Input File <==

--------------------------------------------------------------------------
set {
	reference rhf
	basis cc-pvtz
}

set_num_threads( 4 )
memory 2 gb

molecule MOL {
0 1

H	 2.685749	 1.891509	 1.290341
N	 1.861830	 1.331944	 1.229822
C	 1.860978	 0.530248	 0.016256
H	 1.081155	 1.954543	 1.246122
C	 0.644130	 -0.381765	 -0.031064
H	 2.761494	 -0.074710	 0.018181
H	 1.891964	 1.134521	 -0.891405
C	 -0.678115	 0.376691	 0.025731
H	 0.693998	 -0.977147	 -0.936845
H	 0.693309	 -1.082142	 0.800523
C	 -1.900706	 -0.535531	 -0.022488
H	 -0.725296	 1.079516	 -0.802982
H	 -0.715474	 0.974884	 0.933278
C	 -3.220513	 0.226854	 0.028039
H	 -1.865036	 -1.134397	 -0.928236
H	 -1.857948	 -1.236381	 0.806820
H	 -3.309098	 0.911849	 -0.808725
H	 -4.066838	 -0.449485	 -0.008086
H	 -3.301685	 0.809374	 0.939860

	symmetry c1
}
set optking {
	frozen_dihedral = ("
		6 3 5 9
	")
}

ee,wfn = optimize('scf', return_wfn=True)
oeprop( wfn, 'DIPOLE', 'QUADRUPOLE', 'MULLIKEN_CHARGES')
f=open( 'psi4out.xyz', 'w' )
f.write( "19  " )
f.write( str(ee) + "\n" )
f.write( MOL.save_string_xyz() )
f.close()
--------------------------------------------------------------------------

    Molecular point group: c1
  Charge       = 0
  Multiplicity = 1
  Basis Set: CC-PVTZ
  Basis Set:
  @DF-RHF Final Energy:  -251.44634282927439
    Total Energy =                       -251.4463428292742719
    Molecular point group: c1
  Basis Set: CC-PVTZ
  Basis Set:
  Basis Set: CC-PVTZ
  Basis Set:
  @DF-RHF Final Energy:  -251.44679488625809
    Total Energy =                       -251.4467948862581466
  Basis Set: CC-PVTZ
  Basis Set:
  Basis Set: CC-PVTZ
  Basis Set:
  @DF-RHF Final Energy:  -251.44706777618578
    Total Energy =                       -251.4470677761857473
  Basis Set: CC-PVTZ
  Basis Set:
  Basis Set: CC-PVTZ
  Basis Set:
  @DF-RHF Final Energy:  -251.44708469717887
    Total Energy =                       -251.4470846971789797
  Basis Set: CC-PVTZ
  Basis Set:
  Basis Set: CC-PVTZ
  Basis Set:
  @DF-RHF Final Energy:  -251.44708838896176
    Total Energy =                       -251.4470883889615607
  Basis Set: CC-PVTZ
  Basis Set:
  Charge       = 0
  Multiplicity = 1
  Basis Set: CC-PVTZ
  Basis Set:

    Orbital Energies (a.u.)
    -----------------------

    Doubly Occupied:

       1A    -15.526482     2A    -11.238522     3A    -11.211331
       4A    -11.209401     5A    -11.207150     6A    -11.205120
       7A     -1.178366     8A     -1.072075     9A     -0.998191
      10A     -0.907152    11A     -0.814271    12A     -0.780171
      13A     -0.665227    14A     -0.653734    15A     -0.613657
      16A     -0.587008    17A     -0.560640    18A     -0.550721
      19A     -0.529999    20A     -0.501109    21A     -0.488208
      22A     -0.462928    23A     -0.461470    24A     -0.445242
      25A     -0.383691

  @DF-RHF Final Energy:  -251.44708929477730

   => Energetics <=

    Nuclear Repulsion Energy =            249.6546383123175019
    One-Electron Energy =                -833.6997220706407461
    Two-Electron Energy =                 332.5979944635460583
    DFT Exchange-Correlation Energy =       0.0000000000000000
    Empirical Dispersion Energy =           0.0000000000000000
    PCM Polarization Energy =               0.0000000000000000
    EFP Energy =                            0.0000000000000000
    Total Energy =                       -251.4470892947771858
    Molecular point group: c1
  Basis Set: CC-PVTZ
  Basis Set:

  -Total Gradient:
     Atom            X                  Y                   Z
    ------   -----------------  -----------------  -----------------
       1        0.000035849703     0.000014750848    -0.000015089663
       2       -0.000025838362    -0.000066526708     0.000008360895
       3       -0.000171857369     0.000261580230    -0.001623724883
       4       -0.000026961972     0.000010931476    -0.000005248537
       5        0.000813396813    -0.001079726945     0.000973174149
       6        0.000029512399    -0.000047203087     0.001222882765
       7        0.000000112891     0.000005809707    -0.000008385607
       8       -0.000017764765     0.000027159166     0.000015348788
       9       -0.000624051741     0.000874807057    -0.000559793239
      10       -0.000011526903     0.000011420712    -0.000002544884
      11       -0.000011492633    -0.000000733533    -0.000000266751
      12       -0.000002536250    -0.000005426304    -0.000006537136
      13        0.000004968427     0.000008212739     0.000006594457
      14        0.000013615919    -0.000007828535     0.000002567993
      15       -0.000001163076    -0.000007275382    -0.000007816140
      16       -0.000002612715    -0.000006206431     0.000006307284
      17       -0.000002141935     0.000007975885    -0.000008720835
      18       -0.000000339129    -0.000004631745    -0.000002047829
      19        0.000000830700     0.000002910848     0.000004939170

  **** Optimization is complete! (in 6 steps) ****
    Final optimized geometry and variables:
    Molecular point group: c1

    Geometry (in Angstrom), charge = 0, multiplicity = 1:

    H            3.060959604236     1.502100214879     1.027566153679
    N            2.171992670383     1.053053023075     0.969259700383
    C            2.073811280904     0.259822997411    -0.247953842854
    H            1.481170250771     1.772296643333     0.992381997015
    C            0.849117396403    -0.647106289099    -0.242975507546
    H            2.960862581419    -0.361120976836    -0.295920524891
    H            2.064364293322     0.871643204817    -1.151145063696
    C           -0.483361200492     0.093769401522    -0.153000213933
    H            0.859637875553    -1.231143599589    -1.159890404829
    H            0.932388648870    -1.343359172909     0.585261207123
    C           -1.691086940300    -0.835125305349    -0.245350477992
    H           -0.540721180406     0.833058496589    -0.950168834869
    H           -0.535524690330     0.641106027675     0.783358341352
    C           -3.023158617197    -0.099688071181    -0.144169821929
    H           -1.652340233536    -1.382350853229    -1.183312080442
    H           -1.629890261250    -1.579303996264     0.543833595825
    H           -3.129123761379     0.630073604620    -0.940247938017
    H           -3.858232517226    -0.787387990602    -0.213693001725
    H           -3.107775335365     0.428383175832     0.799853262230

  Mulliken Charges: (a.u.)
   Center  Symbol    Alpha    Beta     Spin     Total
       1     H     0.42919  0.42919  0.00000  0.14163
       2     N     3.69088  3.69088  0.00000 -0.38177
       3     C     3.04035  3.04035  0.00000 -0.08069
       4     H     0.42886  0.42886  0.00000  0.14228
       5     C     3.07937  3.07937  0.00000 -0.15874
       6     H     0.45183  0.45183  0.00000  0.09634
       7     H     0.46435  0.46435  0.00000  0.07131
       8     C     3.09527  3.09527  0.00000 -0.19055
       9     H     0.45557  0.45557  0.00000  0.08887
      10     H     0.45281  0.45281  0.00000  0.09439
      11     C     3.08360  3.08360  0.00000 -0.16721
      12     H     0.45635  0.45635  0.00000  0.08729
      13     H     0.45353  0.45353  0.00000  0.09295
      14     C     3.14994  3.14994  0.00000 -0.29988
      15     H     0.45498  0.45498  0.00000  0.09004
      16     H     0.45341  0.45341  0.00000  0.09317
      17     H     0.45594  0.45594  0.00000  0.08811
      18     H     0.44856  0.44856  0.00000  0.10289
      19     H     0.45521  0.45521  0.00000  0.08957

   Total alpha = 25.00000, Total beta = 25.00000, Total charge =  0.00000

*** Psi4 exiting successfully. Buy a developer a beer!
