  ==> Input File <==

--------------------------------------------------------------------------
set {
	reference rhf
	basis 6-31G*
}

set_num_threads( 4 )
memory 2 gb

molecule MOL {
0 1

H	 -0.944757	 -0.000069	 1.678017
O	 -0.042387	 -0.000390	 1.388199
C	 -0.001487	 0.000018	 -0.026623
C	 0.939121	 -1.104658	 -0.511997
C	 -1.413133	 -0.204710	 -0.579783
C	 0.535454	 1.374594	 -0.409581
H	 1.025479	 -1.104305	 -1.593866
H	 0.573541	 -2.083535	 -0.210239
H	 1.927471	 -0.969608	 -0.086622
H	 -1.422338	 -0.169823	 -1.664582
H	 -1.810191	 -1.170964	 -0.277080
H	 -2.078635	 0.564514	 -0.203912
H	 0.606588	 1.477811	 -1.487556
H	 1.520365	 1.524477	 0.018173
H	 -0.118775	 2.151312	 -0.029993

	symmetry c1
}
set optking {
	frozen_dihedral = ("
		4 3 2 1
	")
}

ee = optimize('scf')
oeprop('DIPOLE', 'QUADRUPOLE', 'MULLIKEN_CHARGES')
f=open( 'psi4out.xyz', 'w' )
f.write( "15  " )
f.write( str(ee) + "\n" )
f.write( MOL.save_string_xyz() )
f.close()
--------------------------------------------------------------------------

    Molecular point group: c1
  Charge       = 0
  Multiplicity = 1
  Basis Set: 6-31G*
  Basis Set:
  @DF-RHF Final Energy:  -232.15001501321049
    Total Energy =                       -232.1500150132105773
    Molecular point group: c1
  Basis Set: 6-31G*
  Basis Set:
  Basis Set: 6-31G*
  Basis Set:
  @DF-RHF Final Energy:  -232.15083792243757
    Total Energy =                       -232.1508379224375744
  Basis Set: 6-31G*
  Basis Set:
  Basis Set: 6-31G*
  Basis Set:
  @DF-RHF Final Energy:  -232.15101627553096
    Total Energy =                       -232.1510162755309921
  Basis Set: 6-31G*
  Basis Set:
  Basis Set: 6-31G*
  Basis Set:
  @DF-RHF Final Energy:  -232.15102151352548
    Total Energy =                       -232.1510215135258477
  Basis Set: 6-31G*
  Basis Set:
  Charge       = 0
  Multiplicity = 1
  Basis Set: 6-31G*
  Basis Set:

    Orbital Energies (a.u.)
    -----------------------

    Doubly Occupied:

       1A    -20.546669     2A    -11.282053     3A    -11.218579
       4A    -11.204760     5A    -11.204358     6A     -1.358103
       7A     -1.063721     8A     -0.945505     9A     -0.935496
      10A     -0.775658    11A     -0.669142    12A     -0.622627
      13A     -0.621094    14A     -0.575126    15A     -0.556452
      16A     -0.533120    17A     -0.516769    18A     -0.508639
      19A     -0.501720    20A     -0.456522    21A     -0.422700

  @DF-RHF Final Energy:  -232.15102172292757

   => Energetics <=

    Nuclear Repulsion Energy =            200.2423876545869916
    One-Electron Energy =                -711.7491916572674882
    Two-Electron Energy =                 279.3557822797529866
    DFT Exchange-Correlation Energy =       0.0000000000000000
    Empirical Dispersion Energy =           0.0000000000000000
    PCM Polarization Energy =               0.0000000000000000
    EFP Energy =                            0.0000000000000000
    Total Energy =                       -232.1510217229275099
    Molecular point group: c1
  Basis Set: 6-31G*
  Basis Set:

  -Total Gradient:
     Atom            X                  Y                   Z
    ------   -----------------  -----------------  -----------------
       1        0.000013415391    -0.001134532555    -0.000094386913
       2       -0.000107266993     0.001215831748    -0.000087916414
       3        0.000600522021     0.000245077714    -0.000096067626
       4       -0.000454455129    -0.000485328539     0.000174565031
       5       -0.000084720193     0.000073141385     0.000030016211
       6        0.000014644701     0.000063826384     0.000007594606
       7       -0.000044484432     0.000028594735     0.000018915789
       8        0.000059925940    -0.000004982895     0.000002381176
       9        0.000043904054    -0.000051512644    -0.000026896776
      10        0.000013241062     0.000014969638     0.000048218416
      11        0.000034822386    -0.000007266076    -0.000007657100
      12       -0.000096158476     0.000014488386    -0.000023090472
      13       -0.000019867018    -0.000029986480     0.000050700169
      14        0.000020697783    -0.000002476163    -0.000001356371
      15        0.000005778903     0.000060155362     0.000004980268

  **** Optimization is complete! (in 5 steps) ****
    Final optimized geometry and variables:
    Molecular point group: c1

    Geometry (in Angstrom), charge = 0, multiplicity = 1:

    H           -0.906783607141    -0.064835142908     1.710311976096
    O           -0.016445746478    -0.060427113609     1.392005173942
    C            0.003546736106     0.003635605181    -0.026043529600
    C            0.937319351565    -1.107231520924    -0.501302824968
    C           -1.406217515028    -0.207031838701    -0.580032430023
    C            0.541540537384     1.377199668982    -0.425193684343
    H            1.043134075930    -1.097851742354    -1.581892447707
    H            0.554907103788    -2.076183518742    -0.199107500858
    H            1.919660127534    -0.982670132958    -0.059189303028
    H           -1.409400559429    -0.175614689755    -1.663950291113
    H           -1.798817512944    -1.171751478369    -0.271120456090
    H           -2.081395751341     0.567991308494    -0.224898745972
    H            0.622677791971     1.473438683442    -1.503773355835
    H            1.523005502055     1.531909276609     0.008966616366
    H           -0.113151920085     2.161929198846    -0.059400922641

  Mulliken Charges: (a.u.)
   Center  Symbol    Alpha    Beta     Spin     Total
       1     H     0.27956  0.27956  0.00000  0.44087
       2     O     4.38354  4.38354  0.00000 -0.76709
       3     C     2.84459  2.84459  0.00000  0.31082
       4     C     3.23169  3.23169  0.00000 -0.46338
       5     C     3.26043  3.26043  0.00000 -0.52086
       6     C     3.23174  3.23174  0.00000 -0.46349
       7     H     0.42577  0.42577  0.00000  0.14847
       8     H     0.41859  0.41859  0.00000  0.16282
       9     H     0.41308  0.41308  0.00000  0.17385
      10     H     0.41430  0.41430  0.00000  0.17141
      11     H     0.41613  0.41613  0.00000  0.16773
      12     H     0.42009  0.42009  0.00000  0.15982
      13     H     0.42582  0.42582  0.00000  0.14837
      14     H     0.41315  0.41315  0.00000  0.17370
      15     H     0.42152  0.42152  0.00000  0.15697

   Total alpha = 21.00000, Total beta = 21.00000, Total charge = -0.00000
