  ==> Input File <==

--------------------------------------------------------------------------
set {
	reference rhf
	basis cc-pvtz
}

set_num_threads( 4 )
memory 2 gb

molecule MOL {
0 1

H	 2.614283	 2.028610	 0.296620
O	 3.358864	 1.662087	 -0.142800
C	 3.565468	 0.338079	 0.273842
C	 2.533667	 -0.637565	 -0.272227
H	 4.548038	 0.064914	 -0.086598
H	 3.593945	 0.282242	 1.360360
C	 1.114816	 -0.402372	 0.240993
H	 2.544552	 -0.580764	 -1.356576
H	 2.850574	 -1.642962	 -0.005497
C	 0.113298	 -1.420414	 -0.302504
H	 0.796373	 0.598427	 -0.031033
H	 1.113377	 -0.446476	 1.328807
C	 0.169072	 -2.798583	 0.359158
H	 -0.892143	 -1.017454	 -0.207962
H	 0.290084	 -1.543605	 -1.367417
C	 -0.265108	 -2.830858	 1.823463
H	 -0.468575	 -3.473593	 -0.205017
H	 1.177905	 -3.196361	 0.274404
C	 -0.287260	 -4.240498	 2.408984
H	 -1.256234	 -2.391317	 1.912584
H	 0.396644	 -2.213231	 2.423149
C	 -0.716711	 -4.275953	 3.871929
H	 -0.957767	 -4.862203	 1.822061
H	 0.700153	 -4.684204	 2.313048
H	 -1.714341	 -3.868096	 3.996930
H	 -0.724169	 -5.290027	 4.254949
H	 -0.043273	 -3.693605	 4.492173

	symmetry c1
}
set optking {
	frozen_dihedral = ("
		14 10 7 4
	")
}

ee = optimize('scf')
oeprop('DIPOLE', 'QUADRUPOLE', 'MULLIKEN_CHARGES')
f=open( 'psi4out.xyz', 'w' )
f.write( "27  " )
f.write( str(ee) + "\n" )
f.write( MOL.save_string_xyz() )
f.close()
--------------------------------------------------------------------------

    Molecular point group: c1
  Charge       = 0
  Multiplicity = 1
  Basis Set: CC-PVTZ
  Basis Set:
  @DF-RHF Final Energy:  -388.42517718852969
    Total Energy =                       -388.4251771885296876
    Molecular point group: c1
  Basis Set: CC-PVTZ
  Basis Set:
  Basis Set: CC-PVTZ
  Basis Set:
  @DF-RHF Final Energy:  -388.42544218378208
    Total Energy =                       -388.4254421837808877
  Basis Set: CC-PVTZ
  Basis Set:
  Basis Set: CC-PVTZ
  Basis Set:
  @DF-RHF Final Energy:  -388.42558710252143
    Total Energy =                       -388.4255871025221722
  Basis Set: CC-PVTZ
  Basis Set:
  Basis Set: CC-PVTZ
  Basis Set:
  @DF-RHF Final Energy:  -388.42559383301892
    Total Energy =                       -388.4255938330188656
  Basis Set: CC-PVTZ
  Basis Set:
  Basis Set: CC-PVTZ
  Basis Set:
  @DF-RHF Final Energy:  -388.42559682092013
    Total Energy =                       -388.4255968209204184
  Basis Set: CC-PVTZ
  Basis Set:
  Charge       = 0
  Multiplicity = 1
  Basis Set: CC-PVTZ
  Basis Set:

    Orbital Energies (a.u.)
    -----------------------

    Doubly Occupied:

       1A    -20.545243     2A    -11.265097     3A    -11.216973
       4A    -11.214958     5A    -11.214260     6A    -11.213187
       7A    -11.213078     8A    -11.212133     9A    -11.207704
      10A     -1.363221    11A     -1.096016    12A     -1.061887
      13A     -1.011098    14A     -0.950941    15A     -0.888408
      16A     -0.829067    17A     -0.802216    18A     -0.769022
      19A     -0.696368    20A     -0.656611    21A     -0.632221
      22A     -0.617949    23A     -0.605297    24A     -0.583637
      25A     -0.579164    26A     -0.554574    27A     -0.543603
      28A     -0.528354    29A     -0.512616    30A     -0.502687
      31A     -0.481986    32A     -0.476990    33A     -0.464184
      34A     -0.457360    35A     -0.448866    36A     -0.442938
      37A     -0.428469

  @DF-RHF Final Energy:  -388.42559720192429

   => Energetics <=

    Nuclear Repulsion Energy =            463.4408111994437718
    One-Electron Energy =               -1445.1560564155192878
    Two-Electron Energy =                 593.2896480141509983
    DFT Exchange-Correlation Energy =       0.0000000000000000
    Empirical Dispersion Energy =           0.0000000000000000
    PCM Polarization Energy =               0.0000000000000000
    EFP Energy =                            0.0000000000000000
    Total Energy =                       -388.4255972019245746
    Molecular point group: c1
  Basis Set: CC-PVTZ
  Basis Set:

  -Total Gradient:
     Atom            X                  Y                   Z
    ------   -----------------  -----------------  -----------------
       1       -0.000002450702     0.000000918518     0.000002341272
       2       -0.000009717915     0.000005953207    -0.000002669749
       3        0.000012222419    -0.000013159657    -0.000006600545
       4       -0.000279718779     0.000805138954    -0.001049830444
       5        0.000005534333     0.000002509681     0.000002151920
       6       -0.000003572146    -0.000000086097    -0.000005145779
       7        0.000387453960    -0.000956815611     0.001091749131
       8        0.000001332349    -0.000001920488     0.000001460826
       9        0.000001701868    -0.000000764121     0.000000412792
      10       -0.000214757110    -0.000597323010     0.001653595014
      11        0.000004575433     0.000009741350     0.000004515168
      12        0.000002407249    -0.000008127303     0.000007790632
      13       -0.000012422302     0.000007436462     0.000001557006
      14        0.000109232619     0.000736134975    -0.001683328147
      15        0.000002041731    -0.000005648037    -0.000011134816
      16       -0.000001677443     0.000001591955     0.000001156839
      17       -0.000002543900     0.000002614357     0.000001670512
      18        0.000001925231     0.000012613364    -0.000005273433
      19       -0.000004148243    -0.000004897831     0.000002579644
      20       -0.000000448920     0.000001866625    -0.000007202839
      21       -0.000003176125     0.000000022217     0.000000368028
      22        0.000007456877     0.000002242633     0.000000295151
      23       -0.000003706960     0.000001932449    -0.000000119088
      24       -0.000001070139    -0.000002586371    -0.000001052940
      25        0.000001293898    -0.000001793010    -0.000002414310
      26        0.000002777744     0.000000267209    -0.000000279014
      27       -0.000000545033     0.000002137586     0.000003407171

  **** Optimization is complete! (in 6 steps) ****
    Final optimized geometry and variables:
    Molecular point group: c1

    Geometry (in Angstrom), charge = 0, multiplicity = 1:

    H            1.506434850164     3.613299039301    -0.643658232095
    O            2.250204124945     3.261522240727    -1.096085399206
    C            2.489105947036     1.941268311307    -0.685553222292
    C            1.462912722150     0.946895391549    -1.208699270921
    H            3.468067206732     1.685826181413    -1.068137040730
    H            2.543049249734     1.885581764619     0.400003041754
    C            0.048757339154     1.172970928599    -0.675048203725
    H            1.451836011779     0.999283399693    -2.293071181572
    H            1.806555947866    -0.049153384006    -0.944120832148
    C           -0.978796185412     0.156130782822    -1.186284408457
    H           -0.282524000681     2.160803728733    -0.980983186936
    H            0.064098193164     1.180059004226     0.411046132277
    C           -0.933221659987    -1.231403420859    -0.540574199543
    H           -1.975920262104     0.570068461248    -1.066732826083
    H           -0.838281987100     0.044029576788    -2.257876934037
    C           -1.389519593807    -1.274908990023     0.916721174081
    H           -1.570145123056    -1.893993361360    -1.119869724836
    H            0.069247333526    -1.643093518408    -0.616111113700
    C           -1.399438671458    -2.686283676687     1.498389290214
    H           -2.388660903262    -0.851297886151     0.990323492208
    H           -0.748432494022    -0.648533070415     1.529745716118
    C           -1.856627932643    -2.732916889256     2.952540212391
    H           -2.047777189290    -3.317621885079     0.897064045758
    H           -0.403137579459    -3.113244256217     1.420865460435
    H           -2.863836396211    -2.343753260318     3.058754654009
    H           -1.852980314579    -3.747769595299     3.333415506466
    H           -1.206251552940    -2.139747283491     3.586949518619

  Mulliken Charges: (a.u.)
   Center  Symbol    Alpha    Beta     Spin     Total
       1     H     0.39230  0.39230  0.00000  0.21539
       2     O     4.20562  4.20562  0.00000 -0.41125
       3     C     2.97861  2.97861  0.00000  0.04279
       4     C     3.08742  3.08742  0.00000 -0.17484
       5     H     0.44853  0.44853  0.00000  0.10294
       6     H     0.46950  0.46950  0.00000  0.06100
       7     C     3.11471  3.11471  0.00000 -0.22942
       8     H     0.45072  0.45072  0.00000  0.09856
       9     H     0.45667  0.45667  0.00000  0.08665
      10     C     3.10906  3.10906  0.00000 -0.21812
      11     H     0.44821  0.44821  0.00000  0.10357
      12     H     0.45057  0.45057  0.00000  0.09887
      13     C     3.10010  3.10010  0.00000 -0.20021
      14     H     0.44592  0.44592  0.00000  0.10816
      15     H     0.44658  0.44658  0.00000  0.10685
      16     C     3.08699  3.08699  0.00000 -0.17398
      17     H     0.44628  0.44628  0.00000  0.10744
      18     H     0.45195  0.45195  0.00000  0.09610
      19     C     3.08384  3.08384  0.00000 -0.16767
      20     H     0.45465  0.45465  0.00000  0.09070
      21     H     0.45481  0.45481  0.00000  0.09039
      22     C     3.14978  3.14978  0.00000 -0.29957
      23     H     0.45379  0.45379  0.00000  0.09242
      24     H     0.45450  0.45450  0.00000  0.09100
      25     H     0.45504  0.45504  0.00000  0.08992
      26     H     0.44811  0.44811  0.00000  0.10378
      27     H     0.45574  0.45574  0.00000  0.08853

   Total alpha = 37.00000, Total beta = 37.00000, Total charge = -0.00000
