                              Psi4 1.0.54 Driver

  ==> Input File <==

--------------------------------------------------------------------------
set {
	reference rhf
	basis cc-pvtz
}

set_num_threads( 4 )
memory 2 gb

molecule MOL {
0 1

H	 2.301455	 4.465817	 1.911796
C	 2.419294	 3.814861	 2.788868
C	 1.222356	 2.961580	 3.110026
O	 3.427692	 3.830093	 3.405480
C	 0.724190	 2.160892	 1.903210
H	 1.472911	 2.315733	 3.941553
H	 0.437205	 3.639326	 3.437902
C	 1.696553	 1.076773	 1.443449
H	 -0.226093	 1.706559	 2.161826
H	 0.519292	 2.840918	 1.079939
C	 1.181757	 0.280428	 0.247371
H	 1.891100	 0.400416	 2.271579
H	 2.654170	 1.524436	 1.190479
C	 2.151032	 -0.811012	 -0.202643
H	 0.221741	 -0.156974	 0.503093
H	 0.997364	 0.958850	 -0.582713
C	 3.580021	 -0.656538	 0.320835
H	 2.170545	 -0.847575	 -1.289412
H	 1.766632	 -1.772905	 0.124928
C	 4.327657	 0.562694	 -0.213579
H	 4.138806	 -1.549270	 0.057813
H	 3.561991	 -0.620783	 1.406976
H	 4.355973	 0.557257	 -1.298551
H	 3.867136	 1.491650	 0.100501
H	 5.351524	 0.571613	 0.142204

	symmetry c1
}
set optking {
	frozen_dihedral = ("
		8 11 14 18
	")
}

ee,wfn = optimize('scf', return_wfn=True)
oeprop( wfn, 'DIPOLE', 'QUADRUPOLE', 'MULLIKEN_CHARGES')
f=open( 'psi4out.xyz', 'w' )
f.write( "25  " )
f.write( str(ee) + "\n" )
f.write( MOL.save_string_xyz() )
f.close()
--------------------------------------------------------------------------

    Molecular point group: c1
  Charge       = 0
  Multiplicity = 1
  Basis Set: CC-PVTZ
  Basis Set:
  @DF-RHF Final Energy:  -387.24202674195391
    Total Energy =                       -387.2420267419538504
    Molecular point group: c1
  Basis Set: CC-PVTZ
  Basis Set:
  Basis Set: CC-PVTZ
  Basis Set:
  @DF-RHF Final Energy:  -387.24952302150928
    Total Energy =                       -387.2495230215092761
  Basis Set: CC-PVTZ
  Basis Set:
  Basis Set: CC-PVTZ
  Basis Set:
  @DF-RHF Final Energy:  -387.25080484184161
    Total Energy =                       -387.2508048418411590
  Basis Set: CC-PVTZ
  Basis Set:
  Basis Set: CC-PVTZ
  Basis Set:
  @DF-RHF Final Energy:  -387.25069657953986
    Total Energy =                       -387.2506965795400902
  Basis Set: CC-PVTZ
  Basis Set:
  @DF-RHF Final Energy:  -387.24915997631564
    Total Energy =                       -387.2491599763155818
  @DF-RHF Final Energy:  -387.25110665800702
    Total Energy =                       -387.2511066580067336
  Basis Set: CC-PVTZ
  Basis Set:
  @DF-RHF Final Energy:  -387.25115505947997
    Total Energy =                       -387.2511550594799701
  Basis Set: CC-PVTZ
  Basis Set:
  Basis Set: CC-PVTZ
  Basis Set:
  @DF-RHF Final Energy:  -387.25116736688409
    Total Energy =                       -387.2511673668836920
  Basis Set: CC-PVTZ
  Basis Set:
  Basis Set: CC-PVTZ
  Basis Set:
  @DF-RHF Final Energy:  -387.25117011053663
    Total Energy =                       -387.2511701105362363
  Basis Set: CC-PVTZ
  Basis Set:
  Charge       = 0
  Multiplicity = 1
  Basis Set: CC-PVTZ
  Basis Set:

    Orbital Energies (a.u.)
    -----------------------

    Doubly Occupied:

       1A    -20.551677     2A    -11.321219     3A    -11.233877
       4A    -11.232829     5A    -11.221337     6A    -11.218742
       7A    -11.215619     8A    -11.214062     9A    -11.207298
      10A     -1.406726    11A     -1.104154    12A     -1.067647
      13A     -1.010633    14A     -0.945813    15A     -0.874442
      16A     -0.831603    17A     -0.789575    18A     -0.767105
      19A     -0.669355    20A     -0.663099    21A     -0.633408
      22A     -0.626514    23A     -0.611363    24A     -0.592838
      25A     -0.562354    26A     -0.560110    27A     -0.538493
      28A     -0.520586    29A     -0.516583    30A     -0.500516
      31A     -0.490088    32A     -0.482602    33A     -0.452937
      34A     -0.450065    35A     -0.446795    36A     -0.412046

  @DF-RHF Final Energy:  -387.25117076285727

   => Energetics <=

    Nuclear Repulsion Energy =            452.6297013392426720
    One-Electron Energy =               -1421.8735366591095044
    Two-Electron Energy =                 581.9926645570100163
    DFT Exchange-Correlation Energy =       0.0000000000000000
    Empirical Dispersion Energy =           0.0000000000000000
    PCM Polarization Energy =               0.0000000000000000
    EFP Energy =                            0.0000000000000000
    Total Energy =                       -387.2511707628567592
    Molecular point group: c1
  Basis Set: CC-PVTZ
  Basis Set:

  -Total Gradient:
     Atom            X                  Y                   Z
    ------   -----------------  -----------------  -----------------
       1        0.000002198601    -0.000000036624    -0.000027071208
       2        0.000221955634     0.000085674454     0.000125047347
       3        0.000000155677    -0.000038415554    -0.000049244378
       4       -0.000128608362    -0.000034176315    -0.000102798024
       5       -0.000051689255    -0.000076310838     0.000058663351
       6       -0.000001336197    -0.000031309011     0.000057690184
       7       -0.000060395472     0.000062343934     0.000015758693
       8        0.001693774341     0.003932358998    -0.003506765579
       9        0.000001168326    -0.000026932461    -0.000026047150
      10       -0.000013198935    -0.000002874960    -0.000000678313
      11       -0.001513487517    -0.004528116439     0.004992005058
      12        0.000010600739    -0.000018830291     0.000002082998
      13        0.000073634288     0.000071291488    -0.000031560918
      14       -0.005138446252    -0.004723384391    -0.001176696103
      15       -0.000015516028     0.000015403508    -0.000011239847
      16        0.000021598770    -0.000012254566     0.000004804122
      17        0.000029898600    -0.000001933770    -0.000002493836
      18        0.004863551689     0.005325793245    -0.000306490480
      19       -0.000007909717     0.000014139703    -0.000004149121
      20        0.000026743477    -0.000053215814    -0.000047081215
      21       -0.000005043503    -0.000003589822    -0.000013219732
      22        0.000009808350    -0.000006039751     0.000016671985
      23        0.000035153671    -0.000003729974    -0.000019825840
      24       -0.000065412238     0.000056643794     0.000038592381
      25        0.000010801310    -0.000002498542     0.000014045630

  **** Optimization is complete! (in 10 steps) ****
    Final optimized geometry and variables:
    Molecular point group: c1

    Geometry (in Angstrom), charge = 0, multiplicity = 1:

    H           -0.512618393979     3.009680108005     0.621020919491
    C           -0.263753018702     2.380999293553     1.486982764203
    C           -1.293075681897     1.338296239188     1.829540096255
    O            0.745778516334     2.558161383751     2.075752728347
    C           -1.674563830553     0.466316017936     0.629392492382
    H           -0.919737060683     0.742883749098     2.652707429243
    H           -2.174270469554     1.873684770221     2.176504629212
    C           -0.538486594561    -0.430389703573     0.139238761955
    H           -2.524787785373    -0.146762954725     0.907462446575
    H           -2.015010845436     1.102718835819    -0.183874810232
    C           -0.964913418913    -1.292639547479    -1.048884077010
    H           -0.213373330097    -1.060116397952     0.963026199666
    H            0.315199971211     0.180680209323    -0.127317041783
    C            0.078052895347    -2.280807873673    -1.629119857427
    H           -1.852634196063    -1.852403018650    -0.773131197870
    H           -1.282381124344    -0.617986089213    -1.839098537394
    C            1.559186156099    -2.007476939537    -1.330043780958
    H           -0.008555099429    -2.266127043197    -2.710822843242
    H           -0.158954150660    -3.283937555916    -1.295104836321
    C            2.152956205294    -0.850572407275    -2.131708426488
    H            2.116459493000    -2.906932142456    -1.572822235542
    H            1.714157571130    -1.840841053952    -0.270328090776
    H            2.103839979499    -1.057207557670    -3.195905298549
    H            1.629625632522     0.082148813497    -1.957681210632
    H            3.194151637837    -0.693413251179    -1.874543307659

  Mulliken Charges: (a.u.)
   Center  Symbol    Alpha    Beta     Spin     Total
       1     H     0.46387  0.46387  0.00000  0.07226
       2     C     2.90631  2.90631  0.00000  0.18738
       3     C     3.08684  3.08684  0.00000 -0.17368
       4     O     4.16618  4.16618  0.00000 -0.33236
       5     C     3.11851  3.11851  0.00000 -0.23701
       6     H     0.44321  0.44321  0.00000  0.11359
       7     H     0.44053  0.44053  0.00000  0.11893
       8     C     3.09735  3.09735  0.00000 -0.19469
       9     H     0.44224  0.44224  0.00000  0.11551
      10     H     0.44981  0.44981  0.00000  0.10039
      11     C     3.10378  3.10378  0.00000 -0.20756
      12     H     0.44879  0.44879  0.00000  0.10243
      13     H     0.44077  0.44077  0.00000  0.11845
      14     C     3.09769  3.09769  0.00000 -0.19537
      15     H     0.44615  0.44615  0.00000  0.10769
      16     H     0.45085  0.45085  0.00000  0.09830
      17     C     3.10095  3.10095  0.00000 -0.20189
      18     H     0.45215  0.45215  0.00000  0.09571
      19     H     0.44530  0.44530  0.00000  0.10940
      20     C     3.14857  3.14857  0.00000 -0.29713
      21     H     0.44354  0.44354  0.00000  0.11293
      22     H     0.44937  0.44937  0.00000  0.10127
      23     H     0.45381  0.45381  0.00000  0.09239
      24     H     0.45743  0.45743  0.00000  0.08514
      25     H     0.44603  0.44603  0.00000  0.10793

   Total alpha = 36.00000, Total beta = 36.00000, Total charge = -0.00000

*** Psi4 exiting successfully. Buy a developer a beer!
