  ==> Input File <==

--------------------------------------------------------------------------
set {
	reference rhf
	basis 6-31G*
}

set_num_threads( 4 )
memory 2 gb

molecule MOL {
0 1

O	 -1.487788	 1.240889	 -0.102860
C	 -1.083277	 0.139568	 0.115197
C	 0.323299	 -0.082943	 0.642902
C	 -1.933017	 -1.084621	 -0.143902
C	 1.355627	 -0.005344	 -0.493127
H	 0.396251	 -1.044647	 1.143147
H	 0.528637	 0.693580	 1.371677
C	 2.336697	 -1.175863	 -0.467928
H	 0.844324	 0.016132	 -1.453012
H	 1.895253	 0.931871	 -0.406116
H	 3.057824	 -1.095126	 -1.274866
H	 1.820536	 -2.125226	 -0.577986
H	 2.887128	 -1.203738	 0.467644
H	 -1.393885	 -1.806447	 -0.750509
H	 -2.850323	 -0.799888	 -0.640100
H	 -2.169004	 -1.571158	 0.798858

	symmetry c1
}
set optking {
	frozen_dihedral = ("
		9 5 3 2
	")
}

ee = optimize('scf')
oeprop('DIPOLE', 'QUADRUPOLE', 'MULLIKEN_CHARGES')
f=open( 'psi4out.xyz', 'w' )
f.write( "16  " )
f.write( str(ee) + "\n" )
f.write( MOL.save_string_xyz() )
f.close()
--------------------------------------------------------------------------

    Molecular point group: c1
  Charge       = 0
  Multiplicity = 1
  Basis Set: 6-31G*
  Basis Set:
  @DF-RHF Final Energy:  -270.02461746736810
    Total Energy =                       -270.0246174673682162
    Molecular point group: c1
  Basis Set: 6-31G*
  Basis Set:
  Basis Set: 6-31G*
  Basis Set:
  @DF-RHF Final Energy:  -270.02483385489904
    Total Energy =                       -270.0248338548990432
  Basis Set: 6-31G*
  Basis Set:
  Basis Set: 6-31G*
  Basis Set:
  @DF-RHF Final Energy:  -270.02513684146578
    Total Energy =                       -270.0251368414657236
  Basis Set: 6-31G*
  Basis Set:
  Basis Set: 6-31G*
  Basis Set:
  @DF-RHF Final Energy:  -270.02529709307538
    Total Energy =                       -270.0252970930755509
  Basis Set: 6-31G*
  Basis Set:
  @DF-RHF Final Energy:  -270.02537253529158
    Total Energy =                       -270.0253725352915808
  Basis Set: 6-31G*
  Basis Set:
  @DF-RHF Final Energy:  -270.02540182660124
    Total Energy =                       -270.0254018266011826
  Basis Set: 6-31G*
  Basis Set:
  Basis Set: 6-31G*
  Basis Set:
  @DF-RHF Final Energy:  -270.02541495079220
    Total Energy =                       -270.0254149507923103
  Basis Set: 6-31G*
  Basis Set:
  Basis Set: 6-31G*
  Basis Set:
  @DF-RHF Final Energy:  -270.02541879304886
    Total Energy =                       -270.0254187930486864
  Basis Set: 6-31G*
  Basis Set:
  Charge       = 0
  Multiplicity = 1
  Basis Set: 6-31G*
  Basis Set:

    Orbital Energies (a.u.)
    -----------------------

    Doubly Occupied:

       1A    -20.547686     2A    -11.324670     3A    -11.235857
       4A    -11.229980     5A    -11.228384     6A    -11.222490
       7A     -1.393203     8A     -1.082581     9A     -1.011738
      10A     -0.951465    11A     -0.833241    12A     -0.735483
      13A     -0.654403    14A     -0.651225    15A     -0.613214
      16A     -0.600179    17A     -0.584592    18A     -0.560524
      19A     -0.539203    20A     -0.516660    21A     -0.503840
      22A     -0.483132    23A     -0.473398    24A     -0.397730

  @DF-RHF Final Energy:  -270.02541959210009

   => Energetics <=

    Nuclear Repulsion Energy =            237.7754648725657773
    One-Electron Energy =                -836.8520118918252138
    Two-Electron Energy =                 329.0511274271592583
    DFT Exchange-Correlation Energy =       0.0000000000000000
    Empirical Dispersion Energy =           0.0000000000000000
    PCM Polarization Energy =               0.0000000000000000
    EFP Energy =                            0.0000000000000000
    Total Energy =                       -270.0254195921002065
    Molecular point group: c1
  Basis Set: 6-31G*
  Basis Set:

  -Total Gradient:
     Atom            X                  Y                   Z
    ------   -----------------  -----------------  -----------------
       1        0.000016890183    -0.000020916904     0.000006607426
       2       -0.000241423835    -0.001767389000    -0.000073795549
       3        0.000334611324     0.003055651625    -0.000075190294
       4       -0.000037406943    -0.000016901701     0.000036660119
       5       -0.000061977481    -0.003739417170     0.000239208731
       6       -0.000010339285    -0.000009601041     0.000026781318
       7        0.000005740274     0.000007799998     0.000021622980
       8        0.000023884966    -0.000009465001     0.000003793043
       9       -0.000057690415     0.002458479070    -0.000143380745
      10        0.000018603290     0.000006094016    -0.000005247857
      11        0.000013214464     0.000014457637     0.000004491321
      12       -0.000001336914     0.000013165017    -0.000019271096
      13       -0.000026463383    -0.000004513705     0.000002643269
      14        0.000018492817    -0.000007189110    -0.000008302219
      15       -0.000001791550     0.000008414763     0.000003764484
      16        0.000006992490     0.000011331502    -0.000020384932

  **** Optimization is complete! (in 9 steps) ****
    Final optimized geometry and variables:
    Molecular point group: c1

    Geometry (in Angstrom), charge = 0, multiplicity = 1:

    O           -1.528449095709     1.412661263999     0.266004395994
    C           -1.003130859169     0.341612638156     0.249230784296
    C            0.434873124907     0.152214422104     0.692669598978
    C           -1.743529875164    -0.893453851401    -0.220661124086
    C            1.408280926096     0.097070127240    -0.514163992302
    H            0.506220039834    -0.771228273827     1.261807837216
    H            0.690814252863     0.969471917125     1.354129396005
    C            2.417103436349    -1.046253408097    -0.428575988940
    H            0.853209674858     0.028776121414    -1.446066328663
    H            1.937979569875     1.041808938934    -0.572389320418
    H            3.102322815387    -1.025464672167    -1.269882966278
    H            1.918857937811    -2.011609906757    -0.428746324795
    H            3.005858405389    -0.978735233089     0.481484654947
    H           -1.135636163429    -1.493060682672    -0.890479145649
    H           -2.661863663979    -0.606369684482    -0.713797333570
    H           -1.982303785921    -1.513497473029     0.639627882953

  Mulliken Charges: (a.u.)
   Center  Symbol    Alpha    Beta     Spin     Total
       1     O     4.26001  4.26001  0.00000 -0.52001
       2     C     2.74086  2.74086  0.00000  0.51828
       3     C     3.20298  3.20298  0.00000 -0.40595
       4     C     3.28937  3.28937  0.00000 -0.57874
       5     C     3.16210  3.16210  0.00000 -0.32421
       6     H     0.41414  0.41414  0.00000  0.17171
       7     H     0.39788  0.39788  0.00000  0.20424
       8     C     3.24119  3.24119  0.00000 -0.48237
       9     H     0.41512  0.41512  0.00000  0.16975
      10     H     0.40839  0.40839  0.00000  0.18322
      11     H     0.41584  0.41584  0.00000  0.16832
      12     H     0.42125  0.42125  0.00000  0.15750
      13     H     0.41771  0.41771  0.00000  0.16457
      14     H     0.41054  0.41054  0.00000  0.17892
      15     H     0.39672  0.39672  0.00000  0.20656
      16     H     0.40589  0.40589  0.00000  0.18822

   Total alpha = 24.00000, Total beta = 24.00000, Total charge =  0.00000
