  ==> Input File <==

--------------------------------------------------------------------------
set {
	reference rhf
	basis 6-31G*
}

set_num_threads( 4 )
memory 2 gb

molecule MOL {
0 1

H	 -3.042581	 -0.665861	 0.004336
O	 -2.245037	 -1.176175	 0.000806
C	 -1.162163	 -0.365336	 0.001020
C	 -1.017520	 0.681459	 -0.891521
C	 -0.175987	 -0.624498	 0.945012
H	 -1.779799	 0.881862	 -1.625511
C	 0.124802	 1.467071	 -0.829675
H	 -0.319944	 -1.447233	 1.621401
C	 0.962165	 0.160304	 1.006724
H	 0.241646	 2.280463	 -1.523780
C	 1.108110	 1.215042	 0.105504
C	 2.024062	 -0.105570	 2.048254
H	 1.989113	 1.831505	 0.139226
H	 3.018215	 -0.036291	 1.619711
H	 1.913245	 -1.091526	 2.483538
H	 1.964004	 0.621219	 2.853560

	symmetry c1
}
set optking {
	frozen_dihedral = ("
		5 3 2 1
	")
}

ee = optimize('scf')
oeprop('DIPOLE', 'QUADRUPOLE', 'MULLIKEN_CHARGES')
f=open( 'psi4out.xyz', 'w' )
f.write( "16  " )
f.write( str(ee) + "\n" )
f.write( MOL.save_string_xyz() )
f.close()
--------------------------------------------------------------------------

    Molecular point group: c1
  Charge       = 0
  Multiplicity = 1
  Basis Set: 6-31G*
  Basis Set:
  @DF-RHF Final Energy:  -344.59206776791075
    Total Energy =                       -344.5920677679105779
    Molecular point group: c1
  Basis Set: 6-31G*
  Basis Set:
  Basis Set: 6-31G*
  Basis Set:
  @DF-RHF Final Energy:  -344.59228414209139
    Total Energy =                       -344.5922841420911027
  Basis Set: 6-31G*
  Basis Set:
  Basis Set: 6-31G*
  Basis Set:
  @DF-RHF Final Energy:  -344.59231165974023
    Total Energy =                       -344.5923116597404032
  Basis Set: 6-31G*
  Basis Set:
  Basis Set: 6-31G*
  Basis Set:
  @DF-RHF Final Energy:  -344.59231454808247
    Total Energy =                       -344.5923145480822996
  Basis Set: 6-31G*
  Basis Set:
  Charge       = 0
  Multiplicity = 1
  Basis Set: 6-31G*
  Basis Set:

    Orbital Energies (a.u.)
    -----------------------

    Doubly Occupied:

       1A    -20.579948     2A    -11.290291     3A    -11.241210
       4A    -11.233893     5A    -11.222582     6A    -11.220908
       7A    -11.219489     8A    -11.218225     9A     -1.396287
      10A     -1.149706    11A     -1.042921    12A     -1.003946
      13A     -0.936029    14A     -0.823805    15A     -0.815078
      16A     -0.713314    17A     -0.677864    18A     -0.653328
      19A     -0.616668    20A     -0.589290    21A     -0.574385
      22A     -0.567977    23A     -0.551865    24A     -0.517944
      25A     -0.503965    26A     -0.481155    27A     -0.464802
      28A     -0.328594    29A     -0.313165

  @DF-RHF Final Energy:  -344.59231528436283

   => Energetics <=

    Nuclear Repulsion Energy =            345.1935608966555264
    One-Electron Energy =               -1151.6744797762571579
    Two-Electron Energy =                 461.8886035952386919
    DFT Exchange-Correlation Energy =       0.0000000000000000
    Empirical Dispersion Energy =           0.0000000000000000
    PCM Polarization Energy =               0.0000000000000000
    EFP Energy =                            0.0000000000000000
    Total Energy =                       -344.5923152843629396
    Molecular point group: c1
  Basis Set: 6-31G*
  Basis Set:

  -Total Gradient:
     Atom            X                  Y                   Z
    ------   -----------------  -----------------  -----------------
       1       -0.000040735319    -0.000026430022     0.002591056438
       2       -0.000445223415     0.000502074398    -0.002600951192
       3        0.001395918340    -0.001507196549    -0.001282495384
       4       -0.000082912394    -0.000110554767     0.000020234469
       5       -0.000852265378     0.001112557988     0.001266161216
       6       -0.000010018898    -0.000001075916    -0.000012986539
       7        0.000103287791     0.000059872564     0.000074681588
       8        0.000004599247    -0.000001520657    -0.000011548693
       9       -0.000061213473    -0.000086261728     0.000042208713
      10        0.000001426391    -0.000018048557     0.000002482168
      11       -0.000044127692     0.000057407929    -0.000092845190
      12        0.000004827795     0.000022824483    -0.000005748586
      13        0.000014829015    -0.000004204646     0.000015679113
      14        0.000006434888    -0.000006429568     0.000001105626
      15       -0.000004435692     0.000008243965    -0.000000036880
      16        0.000009608801    -0.000001258912    -0.000006996868

  **** Optimization is complete! (in 5 steps) ****
    Final optimized geometry and variables:
    Molecular point group: c1

    Geometry (in Angstrom), charge = 0, multiplicity = 1:

    H           -2.959322570719    -0.780580166080    -0.336982311571
    O           -2.165457478652    -1.297144635233    -0.335388156767
    C           -1.071485858334    -0.481974950878    -0.309045694720
    C           -0.929806753980     0.563403780248    -1.203851035800
    C           -0.089855925759    -0.737052012326     0.635998998247
    H           -1.690291496831     0.746358384717    -1.942573989152
    C            0.208823945775     1.351983760368    -1.142481144889
    H           -0.236587528288    -1.555422102648     1.317182922902
    C            1.056138897880     0.042081330004     0.691538099431
    H            0.327285840785     2.165429587342    -1.836183939736
    C            1.195733669078     1.095126873993    -0.209025934440
    C            2.121257608293    -0.224030630610     1.730067928460
    H            2.077558392571     1.711117836126    -0.178868903001
    H            3.114145488169    -0.158048979003     1.297951390489
    H            2.010106328848    -1.209693476134     2.166224660478
    H            2.066891804850     0.502970570076     2.535689818845

  Mulliken Charges: (a.u.)
   Center  Symbol    Alpha    Beta     Spin     Total
       1     H     0.27221  0.27221  0.00000  0.45558
       2     O     4.38554  4.38554  0.00000 -0.77108
       3     C     2.80327  2.80327  0.00000  0.39346
       4     C     3.13610  3.13610  0.00000 -0.27220
       5     C     3.13625  3.13625  0.00000 -0.27251
       6     H     0.40030  0.40030  0.00000  0.19939
       7     C     3.09072  3.09072  0.00000 -0.18145
       8     H     0.39478  0.39478  0.00000  0.21044
       9     C     2.97240  2.97240  0.00000  0.05519
      10     H     0.39876  0.39876  0.00000  0.20248
      11     C     3.11980  3.11980  0.00000 -0.23961
      12     C     3.25433  3.25433  0.00000 -0.50865
      13     H     0.40283  0.40283  0.00000  0.19434
      14     H     0.41156  0.41156  0.00000  0.17688
      15     H     0.41153  0.41153  0.00000  0.17694
      16     H     0.40961  0.40961  0.00000  0.18078

   Total alpha = 29.00000, Total beta = 29.00000, Total charge = -0.00000
