                              Psi4 1.0.54 Driver

  ==> Input File <==

--------------------------------------------------------------------------
set {
	reference rhf
	basis cc-pvtz
}

set_num_threads( 4 )
memory 2 gb

molecule MOL {
0 1

O	 0.889549	 0.158854	 0.857704
C	 1.704209	 0.119472	 -0.000093
C	 1.738798	 1.009048	 -1.216275
O	 2.715427	 -0.733672	 0.000025
C	 0.597730	 2.014534	 -1.273569
H	 2.702602	 1.507547	 -1.221723
H	 1.736530	 0.361860	 -2.087243
C	 0.663742	 2.897349	 -2.516267
H	 0.619773	 2.631167	 -0.382193
H	 -0.347440	 1.484144	 -1.248456
C	 -0.473252	 3.912257	 -2.591596
H	 1.615024	 3.424508	 -2.536674
H	 0.644461	 2.272624	 -3.406540
C	 -0.407053	 4.794937	 -3.833331
H	 -0.454366	 4.537398	 -1.703340
H	 -1.423859	 3.386749	 -2.572930
H	 0.518502	 5.360350	 -3.863144
H	 -1.227278	 5.503085	 -3.855501
H	 -0.459056	 4.200643	 -4.739613
C	 4.020999	 -0.192556	 0.000019
H	 4.182809	 0.412891	 -0.879449
H	 4.692590	 -1.035653	 0.000152
H	 4.182726	 0.413087	 0.879368

	symmetry c1
}
set optking {
	frozen_dihedral = ("
		1 2 4 20
	")
}

ee,wfn = optimize('scf', return_wfn=True)
oeprop( wfn, 'DIPOLE', 'QUADRUPOLE', 'MULLIKEN_CHARGES')
f=open( 'psi4out.xyz', 'w' )
f.write( "23  " )
f.write( str(ee) + "\n" )
f.write( MOL.save_string_xyz() )
f.close()
--------------------------------------------------------------------------

    Molecular point group: c1
  Charge       = 0
  Multiplicity = 1
  Basis Set: CC-PVTZ
  Basis Set:
  @DF-RHF Final Energy:  -423.10686354901861
    Total Energy =                       -423.1068635490184988
    Molecular point group: c1
  Basis Set: CC-PVTZ
  Basis Set:
  Basis Set: CC-PVTZ
  Basis Set:
  @DF-RHF Final Energy:  -423.10646012960768
    Total Energy =                       -423.1064601296080809
  Basis Set: CC-PVTZ
  Basis Set:
  Basis Set: CC-PVTZ
  Basis Set:
  @DF-RHF Final Energy:  -423.11055187492281
    Total Energy =                       -423.1105518749228622
  Basis Set: CC-PVTZ
  Basis Set:
  Basis Set: CC-PVTZ
  Basis Set:
  @DF-RHF Final Energy:  -423.11128971730329
    Total Energy =                       -423.1112897173028387
  Basis Set: CC-PVTZ
  Basis Set:
  @DF-RHF Final Energy:  -423.11142780687805
    Total Energy =                       -423.1114278068778276
  Basis Set: CC-PVTZ
  Basis Set:
  @DF-RHF Final Energy:  -423.11150178693981
    Total Energy =                       -423.1115017869398116
  Basis Set: CC-PVTZ
  Basis Set:
  Basis Set: CC-PVTZ
  Basis Set:
  @DF-RHF Final Energy:  -423.11150734201232
    Total Energy =                       -423.1115073420116914
  Basis Set: CC-PVTZ
  Basis Set:
  Basis Set: CC-PVTZ
  Basis Set:
  @DF-RHF Final Energy:  -423.11151039168840
    Total Energy =                       -423.1115103916882845
  Basis Set: CC-PVTZ
  Basis Set:
  Charge       = 0
  Multiplicity = 1
  Basis Set: CC-PVTZ
  Basis Set:

    Orbital Energies (a.u.)
    -----------------------

    Doubly Occupied:

       1A    -20.581612     2A    -20.541260     3A    -11.367158
       4A    -11.291469     5A    -11.240226     6A    -11.221057
       7A    -11.219231     8A    -11.217021     9A    -11.209939
      10A     -1.461696    11A     -1.369936    12A     -1.096967
      13A     -1.042588    14A     -0.981604    15A     -0.949200
      16A     -0.853306    17A     -0.798953    18A     -0.766448
      19A     -0.699131    20A     -0.682992    21A     -0.677220
      22A     -0.653695    23A     -0.620217    24A     -0.607472
      25A     -0.581210    26A     -0.570486    27A     -0.557673
      28A     -0.539833    29A     -0.511520    30A     -0.501216
      31A     -0.487324    32A     -0.480099    33A     -0.471155
      34A     -0.468908    35A     -0.452757    36A     -0.434229

  @DF-RHF Final Energy:  -423.11151086458932

   => Energetics <=

    Nuclear Repulsion Energy =            454.2955749066966860
    One-Electron Energy =               -1476.4005517550210698
    Two-Electron Energy =                 598.9934659837354047
    DFT Exchange-Correlation Energy =       0.0000000000000000
    Empirical Dispersion Energy =           0.0000000000000000
    PCM Polarization Energy =               0.0000000000000000
    EFP Energy =                            0.0000000000000000
    Total Energy =                       -423.1115108645890359
    Molecular point group: c1
  Basis Set: CC-PVTZ
  Basis Set:

  -Total Gradient:
     Atom            X                  Y                   Z
    ------   -----------------  -----------------  -----------------
       1        0.001652237586     0.001994650705     0.001234029081
       2       -0.002503535650    -0.002515076706    -0.000533696212
       3       -0.000028672265    -0.000025406889    -0.000010922054
       4        0.000927932416     0.000292697416    -0.003117657274
       5        0.000019363862    -0.000018868638    -0.000006310341
       6       -0.000011847482    -0.000011358937    -0.000001099546
       7        0.000002433506    -0.000012626621     0.000001407602
       8       -0.000007609276     0.000007333340     0.000006658128
       9       -0.000003705941     0.000007556359     0.000004666882
      10       -0.000006314032    -0.000001210729     0.000002545072
      11        0.000003805712     0.000001705329    -0.000004920549
      12        0.000003038359     0.000003776793    -0.000000016901
      13        0.000000697173    -0.000003464455    -0.000003074268
      14        0.000001581880    -0.000004191095     0.000004114411
      15        0.000001091106     0.000003125013     0.000003405802
      16       -0.000002340655    -0.000002448093     0.000000353690
      17        0.000001332838     0.000002603689     0.000001168446
      18       -0.000002248886     0.000000381152    -0.000000389209
      19       -0.000000422866    -0.000002856830    -0.000003887490
      20       -0.000056591161     0.000288049103     0.002414434376
      21        0.000011721095    -0.000006044783     0.000012504005
      22        0.000001341665     0.000004326655    -0.000003080056
      23       -0.000003288984    -0.000002651779    -0.000000233592

  **** Optimization is complete! (in 9 steps) ****
    Final optimized geometry and variables:
    Molecular point group: c1

    Geometry (in Angstrom), charge = 0, multiplicity = 1:

    O           -0.259414556410    -1.060372042289     2.159932197015
    C            0.542347475863    -1.174118772812     1.307161349613
    C            0.519052012879    -0.401131695631     0.009027007998
    O            1.544027875992    -2.064916792167     1.431391683950
    C           -0.744258024695     0.425985848481    -0.187797555182
    H            1.394370638108     0.241254357387    -0.014420474325
    H            0.651732918180    -1.115593062018    -0.797090146099
    C           -0.736405611935     1.194738553519    -1.505774452562
    H           -0.851451937357     1.114909272869     0.641610710123
    H           -1.607514922725    -0.228666234884    -0.148409969041
    C           -1.998160351038     2.025266677740    -1.721888187821
    H            0.131793980704     1.849588737309    -1.539032281783
    H           -0.622151166783     0.497318686633    -2.332690691298
    C           -1.990602454515     2.794331138760    -3.038605582137
    H           -2.112951882022     2.722880079765    -0.897145000480
    H           -2.865741262905     1.372357113281    -1.690519844944
    H           -1.152979948891     3.482418797148    -3.085739215762
    H           -2.899442238426     3.372060420881    -3.160402208670
    H           -1.911448861811     2.120593616775    -3.885389511547
    C            2.876958059504    -1.613265132473     1.413567758234
    H            3.178073173162    -1.280179217968     0.428130470890
    H            3.487077067648    -2.454323198624     1.699980024228
    H            3.023063863485    -0.812721907581     2.128919097028

  Mulliken Charges: (a.u.)
   Center  Symbol    Alpha    Beta     Spin     Total
       1     O     4.16804  4.16804  0.00000 -0.33609
       2     C     2.79281  2.79281  0.00000  0.41438
       3     C     3.13142  3.13142  0.00000 -0.26285
       4     O     4.15430  4.15430  0.00000 -0.30860
       5     C     3.08392  3.08392  0.00000 -0.16784
       6     H     0.44517  0.44517  0.00000  0.10967
       7     H     0.43616  0.43616  0.00000  0.12767
       8     C     3.08773  3.08773  0.00000 -0.17546
       9     H     0.44380  0.44380  0.00000  0.11240
      10     H     0.44495  0.44495  0.00000  0.11011
      11     C     3.08490  3.08490  0.00000 -0.16980
      12     H     0.45654  0.45654  0.00000  0.08692
      13     H     0.45555  0.45555  0.00000  0.08890
      14     C     3.15026  3.15026  0.00000 -0.30052
      15     H     0.45283  0.45283  0.00000  0.09435
      16     H     0.45255  0.45255  0.00000  0.09490
      17     H     0.45551  0.45551  0.00000  0.08898
      18     H     0.44726  0.44726  0.00000  0.10548
      19     H     0.45520  0.45520  0.00000  0.08959
      20     C     3.04517  3.04517  0.00000 -0.09034
      21     H     0.46141  0.46141  0.00000  0.07719
      22     H     0.43674  0.43674  0.00000  0.12653
      23     H     0.45779  0.45779  0.00000  0.08442

   Total alpha = 36.00000, Total beta = 36.00000, Total charge = -0.00000

*** Psi4 exiting successfully. Buy a developer a beer!
