  ==> Input File <==

--------------------------------------------------------------------------
set {
	reference rhf
	basis cc-pvtz
}

set_num_threads( 4 )
memory 2 gb

molecule MOL {
0 1

H	 0.048256	 -0.204856	 0.559472
N	 -0.625934	 -0.663929	 -0.000707
C	 -1.978635	 -0.158664	 0.001017
C	 -0.227138	 -1.730831	 -0.728213
H	 -2.519057	 -0.493535	 -0.876362
H	 -1.938890	 0.917202	 -0.004137
H	 -2.514266	 -0.485137	 0.884506
C	 1.237015	 -2.082092	 -0.580939
O	 -0.961039	 -2.351236	 -1.439242
H	 1.467391	 -2.317670	 0.451548
H	 1.456054	 -2.935460	 -1.201303
H	 1.859235	 -1.247369	 -0.882103

	symmetry c1
}
set optking {
	frozen_dihedral = ("
		4 2 3 5
	")
}

ee = optimize('scf')
oeprop('DIPOLE', 'QUADRUPOLE', 'MULLIKEN_CHARGES')
f=open( 'psi4out.xyz', 'w' )
f.write( "12  " )
f.write( str(ee) + "\n" )
f.write( MOL.save_string_xyz() )
f.close()
--------------------------------------------------------------------------

    Molecular point group: c1
  Charge       = 0
  Multiplicity = 1
  Basis Set: CC-PVTZ
  Basis Set:
  @DF-RHF Final Energy:  -247.10070151253822
    Total Energy =                       -247.1007015125382509
    Molecular point group: c1
  Basis Set: CC-PVTZ
  Basis Set:
  Basis Set: CC-PVTZ
  Basis Set:
  @DF-RHF Final Energy:  -247.10096851099917
    Total Energy =                       -247.1009685109991665
  Basis Set: CC-PVTZ
  Basis Set:
  Basis Set: CC-PVTZ
  Basis Set:
  @DF-RHF Final Energy:  -247.10084886010455
    Total Energy =                       -247.1008488601042927
  Basis Set: CC-PVTZ
  Basis Set:
  Basis Set: CC-PVTZ
  Basis Set:
  @DF-RHF Final Energy:  -247.10104412177728
    Total Energy =                       -247.1010441217773632
  Basis Set: CC-PVTZ
  Basis Set:
  @DF-RHF Final Energy:  -247.10105453230918
    Total Energy =                       -247.1010545323090923
  @DF-RHF Final Energy:  -247.10106660018673
    Total Energy =                       -247.1010666001866412
  @DF-RHF Final Energy:  -247.10106840828115
    Total Energy =                       -247.1010684082812645
  @DF-RHF Final Energy:  -247.10106965582995
    Total Energy =                       -247.1010696558299173
  @DF-RHF Final Energy:  -247.10107128672280
    Total Energy =                       -247.1010712867230268
  @DF-RHF Final Energy:  -247.10107694816077
    Total Energy =                       -247.1010769481609373
  @DF-RHF Final Energy:  -247.10108649120502
    Total Energy =                       -247.1010864912050238
  @DF-RHF Final Energy:  -247.10112001583730
    Total Energy =                       -247.1011200158372390
  @DF-RHF Final Energy:  -247.10118910299187
    Total Energy =                       -247.1011891029917251
  @DF-RHF Final Energy:  -247.10121524462357
    Total Energy =                       -247.1012152446235177
  Basis Set: CC-PVTZ
  Basis Set:
  @DF-RHF Final Energy:  -247.10123089971484
    Total Energy =                       -247.1012308997147784
  Basis Set: CC-PVTZ
  Basis Set:
  Basis Set: CC-PVTZ
  Basis Set:
  @DF-RHF Final Energy:  -247.10124022872651
    Total Energy =                       -247.1012402287263967
  Basis Set: CC-PVTZ
  Basis Set:
  Basis Set: CC-PVTZ
  Basis Set:
  @DF-RHF Final Energy:  -247.10124187829283
    Total Energy =                       -247.1012418782928535
  Basis Set: CC-PVTZ
  Basis Set:
  Charge       = 0
  Multiplicity = 1
  Basis Set: CC-PVTZ
  Basis Set:

    Orbital Energies (a.u.)
    -----------------------

    Doubly Occupied:

       1A    -20.504035     2A    -15.577148     3A    -11.336635
       4A    -11.253087     5A    -11.228405     6A     -1.387299
       7A     -1.232028     8A     -1.016168     9A     -0.934196
      10A     -0.789651    11A     -0.691058    12A     -0.652408
      13A     -0.635160    14A     -0.587016    15A     -0.583147
      16A     -0.554341    17A     -0.546943    18A     -0.508047
      19A     -0.416631    20A     -0.390174

  @DF-RHF Final Energy:  -247.10124219161489

   => Energetics <=

    Nuclear Repulsion Energy =            181.7105723984361418
    One-Electron Energy =                -695.9764699785457651
    Two-Electron Energy =                 267.1646553884947934
    DFT Exchange-Correlation Energy =       0.0000000000000000
    Empirical Dispersion Energy =           0.0000000000000000
    PCM Polarization Energy =               0.0000000000000000
    EFP Energy =                            0.0000000000000000
    Total Energy =                       -247.1012421916148014
    Molecular point group: c1
  Basis Set: CC-PVTZ
  Basis Set:

  -Total Gradient:
     Atom            X                  Y                   Z
    ------   -----------------  -----------------  -----------------
       1       -0.000000192894    -0.000001246395    -0.000000266366
       2       -0.000039212909    -0.000209805541     0.000321471548
       3        0.000056466764     0.000253416109    -0.000296029635
       4        0.000046197878     0.000153126751    -0.000159029399
       5       -0.000044877954    -0.000169292452     0.000158957521
       6        0.000006253363    -0.000002521468     0.000000790194
       7        0.000001938188     0.000001104482     0.000001480717
       8       -0.000001263483     0.000004174921    -0.000012947294
       9       -0.000025939309    -0.000022761209    -0.000025976440
      10        0.000000157801     0.000001718002     0.000008357557
      11       -0.000004665598    -0.000007058947     0.000008490378
      12        0.000005138155    -0.000000854255    -0.000005298782

  **** Optimization is complete! (in 18 steps) ****
    Final optimized geometry and variables:
    Molecular point group: c1

    Geometry (in Angstrom), charge = 0, multiplicity = 1:

    H            0.619191916446     1.360707993680     0.858534155690
    N           -0.074772797990     0.823792574071     0.402539849506
    C           -1.446420959977     1.270516916554     0.472886815119
    C            0.289633927102    -0.350074700803    -0.154710026156
    H           -2.022345523190     0.732995457063    -0.261478500679
    H           -1.500903259376     2.330276563470     0.260496683562
    H           -1.878905738819     1.088334501559     1.450516450811
    C            1.761799945441    -0.685189404460    -0.068139344447
    O           -0.487286793644    -1.095090849878    -0.676396112284
    H            1.895719818949    -1.438133033415     0.698971555915
    H            2.073469367018    -1.110494347922    -1.010412184705
    H            2.382502793885     0.169021846981     0.168086307566

  Mulliken Charges: (a.u.)
   Center  Symbol    Alpha    Beta     Spin     Total
       1     H     0.40996  0.40996  0.00000  0.18007
       2     N     3.61623  3.61623  0.00000 -0.23246
       3     C     3.08308  3.08308  0.00000 -0.16615
       4     C     2.84143  2.84143  0.00000  0.31714
       5     H     0.43224  0.43224  0.00000  0.13551
       6     H     0.45529  0.45529  0.00000  0.08941
       7     H     0.45716  0.45716  0.00000  0.08568
       8     C     3.14407  3.14407  0.00000 -0.28813
       9     O     4.22071  4.22071  0.00000 -0.44141
      10     H     0.44340  0.44340  0.00000  0.11320
      11     H     0.43765  0.43765  0.00000  0.12470
      12     H     0.45878  0.45878  0.00000  0.08244

   Total alpha = 20.00000, Total beta = 20.00000, Total charge =  0.00000
