  ==> Input File <==

--------------------------------------------------------------------------
set {
	reference rhf
	basis cc-pvtz
}

set_num_threads( 4 )
memory 2 gb

molecule MOL {
0 1

H	 -1.752232	 -2.214755	 -0.011938
C	 -1.343852	 -1.221619	 -0.018179
N	 -0.058800	 -1.097635	 -0.261688
C	 -2.148159	 -0.124236	 0.219734
C	 0.449026	 0.119242	 -0.273393
H	 -3.196988	 -0.237571	 0.417076
N	 -1.655094	 1.094230	 0.209506
C	 -0.370318	 1.215445	 -0.035100
C	 1.924033	 0.265863	 -0.538106
H	 0.033214	 2.210441	 -0.046812
C	 2.341365	 -0.318661	 -1.888519
H	 2.168578	 1.320978	 -0.511794
H	 2.481415	 -0.213305	 0.258097
H	 3.400346	 -0.164098	 -2.057645
H	 1.795356	 0.155084	 -2.693763
H	 2.146639	 -1.384474	 -1.929397

	symmetry c1
}
set optking {
	frozen_dihedral = ("
		12 9 5 3
	")
}

ee = optimize('scf')
oeprop('DIPOLE', 'QUADRUPOLE', 'MULLIKEN_CHARGES')
f=open( 'psi4out.xyz', 'w' )
f.write( "16  " )
f.write( str(ee) + "\n" )
f.write( MOL.save_string_xyz() )
f.close()
--------------------------------------------------------------------------

    Molecular point group: c1
  Charge       = 0
  Multiplicity = 1
  Basis Set: CC-PVTZ
  Basis Set:
  @DF-RHF Final Energy:  -340.87206412187669
    Total Energy =                       -340.8720641218767469
    Molecular point group: c1
  Basis Set: CC-PVTZ
  Basis Set:
  Basis Set: CC-PVTZ
  Basis Set:
  @DF-RHF Final Energy:  -340.87214593007189
    Total Energy =                       -340.8721459300718948
  Basis Set: CC-PVTZ
  Basis Set:
  Basis Set: CC-PVTZ
  Basis Set:
  @DF-RHF Final Energy:  -340.87219677348310
    Total Energy =                       -340.8721967734828695
  Basis Set: CC-PVTZ
  Basis Set:
  Basis Set: CC-PVTZ
  Basis Set:
  @DF-RHF Final Energy:  -340.87219843284441
    Total Energy =                       -340.8721984328440726
  Basis Set: CC-PVTZ
  Basis Set:
  Basis Set: CC-PVTZ
  Basis Set:
  @DF-RHF Final Energy:  -340.87220004093490
    Total Energy =                       -340.8722000409351267
  Basis Set: CC-PVTZ
  Basis Set:
  Charge       = 0
  Multiplicity = 1
  Basis Set: CC-PVTZ
  Basis Set:

    Orbital Energies (a.u.)
    -----------------------

    Doubly Occupied:

       1A    -15.580712     2A    -15.576094     3A    -11.278502
       4A    -11.273038     5A    -11.268243     6A    -11.268209
       7A    -11.231943     8A    -11.214523     9A     -1.316345
      10A     -1.224380    11A     -1.085814    12A     -1.015028
      13A     -0.908263    14A     -0.894046    15A     -0.828362
      16A     -0.719892    17A     -0.712194    18A     -0.659862
      19A     -0.618420    20A     -0.603640    21A     -0.580061
      22A     -0.562458    23A     -0.523542    24A     -0.505852
      25A     -0.500900    26A     -0.489778    27A     -0.433272
      28A     -0.397672    29A     -0.347110

  @DF-RHF Final Energy:  -340.87220016768657

   => Energetics <=

    Nuclear Repulsion Energy =            350.5703220880710091
    One-Electron Energy =               -1155.6487395854076112
    Two-Electron Energy =                 464.2062173296499168
    DFT Exchange-Correlation Energy =       0.0000000000000000
    Empirical Dispersion Energy =           0.0000000000000000
    PCM Polarization Energy =               0.0000000000000000
    EFP Energy =                            0.0000000000000000
    Total Energy =                       -340.8722001676867421
    Molecular point group: c1
  Basis Set: CC-PVTZ
  Basis Set:

  -Total Gradient:
     Atom            X                  Y                   Z
    ------   -----------------  -----------------  -----------------
       1       -0.000004547450     0.000000305205    -0.000003363732
       2        0.000004415546    -0.000009670102     0.000010888718
       3       -0.000145578161     0.000044398503    -0.000684939848
       4       -0.000005106924     0.000008149573    -0.000008467193
       5        0.000160004746    -0.000039378973     0.000789072062
       6        0.000000628306    -0.000001926932     0.000003320903
       7       -0.000007842886    -0.000007400880     0.000001887225
       8        0.000011167122    -0.000002920228    -0.000007681982
       9        0.000133891223    -0.000047392354     0.000676794630
      10        0.000000410576    -0.000000763914     0.000000889607
      11        0.000001306116     0.000003726888    -0.000006397420
      12       -0.000148709793     0.000056522890    -0.000773386868
      13       -0.000000853523     0.000001241228    -0.000005453644
      14        0.000001442470     0.000000805440    -0.000000138716
      15       -0.000000541640    -0.000000547170     0.000006364474
      16       -0.000000085728    -0.000005149176     0.000000611784

  **** Optimization is complete! (in 6 steps) ****
    Final optimized geometry and variables:
    Molecular point group: c1

    Geometry (in Angstrom), charge = 0, multiplicity = 1:

    H           -1.684950106669    -2.205986546470     0.340618981071
    C           -1.279762374718    -1.211599563048     0.332493492682
    N            0.004396929200    -1.084006804905     0.087323068011
    C           -2.086772012742    -0.116753018674     0.572008441912
    C            0.510054997907     0.133703962988     0.077759518601
    H           -3.134886575566    -0.232962739718     0.771155606640
    N           -1.596571427364     1.102690745600     0.563017273603
    C           -0.312092619153     1.227172120692     0.318123918105
    C            1.982814293709     0.289916860218    -0.200026662648
    H            0.089147249896     2.222945076787     0.310144382519
    C            2.406602876563    -0.307750183526    -1.541434205700
    H            2.239041645385     1.342270143431    -0.172772397639
    H            2.533646688139    -0.193550723143     0.599536043365
    H            3.473874162919    -0.189938176039    -1.686197344559
    H            1.899801815118     0.184661992744    -2.363734169347
    H            2.170161098505    -1.361953684516    -1.582997222141

  Mulliken Charges: (a.u.)
   Center  Symbol    Alpha    Beta     Spin     Total
       1     H     0.41406  0.41406  0.00000  0.17187
       2     C     3.04275  3.04275  0.00000 -0.08551
       3     N     3.59585  3.59585  0.00000 -0.19169
       4     C     3.04781  3.04781  0.00000 -0.09562
       5     C     2.93997  2.93997  0.00000  0.12006
       6     H     0.41367  0.41367  0.00000  0.17266
       7     N     3.58658  3.58658  0.00000 -0.17316
       8     C     3.07863  3.07863  0.00000 -0.15725
       9     C     3.07519  3.07519  0.00000 -0.15039
      10     H     0.41611  0.41611  0.00000  0.16778
      11     C     3.14483  3.14483  0.00000 -0.28967
      12     H     0.44964  0.44964  0.00000  0.10072
      13     H     0.44676  0.44676  0.00000  0.10647
      14     H     0.45002  0.45002  0.00000  0.09997
      15     H     0.45428  0.45428  0.00000  0.09143
      16     H     0.44384  0.44384  0.00000  0.11232

   Total alpha = 29.00000, Total beta = 29.00000, Total charge =  0.00000
