  ==> Input File <==

--------------------------------------------------------------------------
set {
	reference rhf
	basis 6-31G*
}

set_num_threads( 4 )
memory 2 gb

molecule MOL {
0 1

H	 -0.863651	 1.935055	 -1.471830
C	 -1.463221	 1.194737	 -0.950671
O	 -0.774054	 0.001095	 -0.743181
H	 -2.317108	 0.953488	 -1.569546
H	 -1.826377	 1.630603	 -0.024749
C	 0.406953	 0.000033	 0.038965
C	 1.527284	 -0.003667	 -0.998752
C	 0.498933	 1.262172	 0.902524
C	 0.494271	 -1.259566	 0.906664
H	 1.452513	 0.873252	 -1.631882
H	 1.448863	 -0.881882	 -1.629595
H	 2.502020	 -0.005104	 -0.521731
H	 0.364280	 2.147110	 0.289513
H	 1.472180	 1.321775	 1.378800
H	 -0.247853	 1.275162	 1.689097
H	 0.356778	 -2.146106	 0.296587
H	 1.467182	 -1.320941	 1.383330
H	 -0.252763	 -1.267328	 1.693119

	symmetry c1
}
set optking {
	frozen_dihedral = ("
		2 3 6 7
	")
}

ee = optimize('scf')
oeprop('DIPOLE', 'QUADRUPOLE', 'MULLIKEN_CHARGES')
f=open( 'psi4out.xyz', 'w' )
f.write( "18  " )
f.write( str(ee) + "\n" )
f.write( MOL.save_string_xyz() )
f.close()
--------------------------------------------------------------------------

    Molecular point group: c1
  Charge       = 0
  Multiplicity = 1
  Basis Set: 6-31G*
  Basis Set:
  @DF-RHF Final Energy:  -271.16765851047796
    Total Energy =                       -271.1676585104779633
    Molecular point group: c1
  Basis Set: 6-31G*
  Basis Set:
  Basis Set: 6-31G*
  Basis Set:
  @DF-RHF Final Energy:  -271.17011997169351
    Total Energy =                       -271.1701199716935662
  Basis Set: 6-31G*
  Basis Set:
  Basis Set: 6-31G*
  Basis Set:
  @DF-RHF Final Energy:  -271.17247388513101
    Total Energy =                       -271.1724738851311827
  Basis Set: 6-31G*
  Basis Set:
  Basis Set: 6-31G*
  Basis Set:
  @DF-RHF Final Energy:  -271.17265738139218
    Total Energy =                       -271.1726573813922414
  Basis Set: 6-31G*
  Basis Set:
  Basis Set: 6-31G*
  Basis Set:
  @DF-RHF Final Energy:  -271.17269849123818
    Total Energy =                       -271.1726984912381226
  Basis Set: 6-31G*
  Basis Set:
  Basis Set: 6-31G*
  Basis Set:
  @DF-RHF Final Energy:  -271.17275275869537
    Total Energy =                       -271.1727527586954238
  Basis Set: 6-31G*
  Basis Set:
  Charge       = 0
  Multiplicity = 1
  Basis Set: 6-31G*
  Basis Set:

    Orbital Energies (a.u.)
    -----------------------

    Doubly Occupied:

       1A    -20.544767     2A    -11.281512     3A    -11.261914
       4A    -11.213494     5A    -11.204425     6A    -11.202885
       7A     -1.367631     8A     -1.073678     9A     -0.950580
      10A     -0.934782    11A     -0.911763    12A     -0.751585
      13A     -0.656259    14A     -0.645744    15A     -0.637196
      16A     -0.585252    17A     -0.575178    18A     -0.550226
      19A     -0.538875    20A     -0.525780    21A     -0.514839
      22A     -0.490052    23A     -0.483633    24A     -0.441828
      25A     -0.397769

  @DF-RHF Final Energy:  -271.17275275531904

   => Energetics <=

    Nuclear Repulsion Energy =            271.9479352125280229
    One-Electron Energy =                -906.7580816796510135
    Two-Electron Energy =                 363.6373937118039521
    DFT Exchange-Correlation Energy =       0.0000000000000000
    Empirical Dispersion Energy =           0.0000000000000000
    PCM Polarization Energy =               0.0000000000000000
    EFP Energy =                            0.0000000000000000
    Total Energy =                       -271.1727527553190384
    Molecular point group: c1
  Basis Set: 6-31G*
  Basis Set:

  -Total Gradient:
     Atom            X                  Y                   Z
    ------   -----------------  -----------------  -----------------
       1        0.000005833661    -0.000003096455     0.000005635941
       2       -0.001644091663    -0.000459974473     0.002925603843
       3        0.002622934897    -0.000256697099    -0.004334643087
       4        0.000004121265     0.000010403956    -0.000001627122
       5       -0.000004438921     0.000022480101     0.000002797791
       6       -0.001047211182     0.003421305047     0.001275159575
       7        0.000014905092    -0.002740231881     0.000173421762
       8       -0.000002835384     0.000012809316    -0.000005165836
       9        0.000091312210    -0.000033077100    -0.000012143981
      10        0.000003337655     0.000013105994     0.000010639289
      11       -0.000010215934     0.000012027613    -0.000000741908
      12       -0.000009813508    -0.000011665131     0.000018089314
      13        0.000004878445     0.000011687702    -0.000013048780
      14       -0.000015723570     0.000005202827     0.000009597389
      15       -0.000021576449     0.000012109806    -0.000022227815
      16       -0.000051492060    -0.000045367034     0.000030666269
      17        0.000029414757    -0.000050409093    -0.000036817393
      18        0.000030660691     0.000079385903    -0.000025195252

  **** Optimization is complete! (in 7 steps) ****
    Final optimized geometry and variables:
    Molecular point group: c1

    Geometry (in Angstrom), charge = 0, multiplicity = 1:

    H           -1.074381606156     1.664621026513    -1.348995304731
    C           -1.635324481617     0.916539874765    -0.793421600050
    O           -0.891676388167    -0.234629491352    -0.545774862389
    H           -2.479656016481     0.611160864447    -1.397149699832
    H           -2.012717737764     1.372020724250     0.116548080407
    C            0.337099012655    -0.169078811565     0.165216552214
    C            1.469252973423    -0.208863513447    -0.863560282548
    C            0.463207074077     1.059977269556     1.068827505718
    C            0.361861011948    -1.438227372812     1.017014886034
    H            1.435917910806     0.664046976553    -1.509006823571
    H            1.370112149336    -1.090138482280    -1.486632432822
    H            2.441756874017    -0.232899179575    -0.381199561526
    H            0.476879748158     1.986573206513     0.505738483276
    H            1.393728777475     1.001517703384     1.623000791321
    H           -0.347376908816     1.106403194957     1.788097736910
    H            0.219100993387    -2.309649490685     0.388258033972
    H            1.306866812496    -1.541945208714     1.541364638590
    H           -0.439019191119    -1.417200616501     1.748245388562

  Mulliken Charges: (a.u.)
   Center  Symbol    Alpha    Beta     Spin     Total
       1     H     0.43203  0.43203  0.00000  0.13594
       2     C     3.07636  3.07636  0.00000 -0.15272
       3     O     4.32333  4.32333  0.00000 -0.64667
       4     H     0.41249  0.41249  0.00000  0.17501
       5     H     0.42869  0.42869  0.00000  0.14263
       6     C     2.84062  2.84062  0.00000  0.31877
       7     C     3.23397  3.23397  0.00000 -0.46793
       8     C     3.25719  3.25719  0.00000 -0.51438
       9     C     3.23179  3.23179  0.00000 -0.46358
      10     H     0.42167  0.42167  0.00000  0.15667
      11     H     0.41339  0.41339  0.00000  0.17323
      12     H     0.42522  0.42522  0.00000  0.14956
      13     H     0.41694  0.41694  0.00000  0.16612
      14     H     0.41471  0.41471  0.00000  0.17057
      15     H     0.41445  0.41445  0.00000  0.17110
      16     H     0.41295  0.41295  0.00000  0.17410
      17     H     0.42596  0.42596  0.00000  0.14808
      18     H     0.41825  0.41825  0.00000  0.16350

   Total alpha = 25.00000, Total beta = 25.00000, Total charge =  0.00000
