                              Psi4 1.0.54 Driver

  ==> Input File <==

--------------------------------------------------------------------------
set {
	reference rhf
	basis cc-pvtz
}

set_num_threads( 4 )
memory 2 gb

molecule MOL {
0 1

H	 5.269878	 0.195679	 1.068175
C	 4.673900	 -0.208485	 0.258034
C	 3.190199	 -0.204714	 0.610086
H	 4.865136	 0.391893	 -0.624684
H	 5.027838	 -1.214511	 0.056939
C	 2.319208	 -0.778154	 -0.505491
H	 2.876954	 0.809861	 0.827925
H	 3.035335	 -0.782733	 1.518235
C	 1.793260	 0.272108	 -1.478741
H	 2.880890	 -1.521070	 -1.058137
H	 1.468760	 -1.289123	 -0.063415
C	 2.842066	 0.855313	 -2.410600
H	 1.031594	 -0.166653	 -2.118366
H	 1.300766	 1.081808	 -0.948313
C	 2.505245	 2.154236	 -3.116803
O	 3.881039	 0.309610	 -2.600382
C	 1.319306	 2.043024	 -4.080931
H	 3.392925	 2.463465	 -3.651817
H	 2.288299	 2.907657	 -2.364149
C	 1.067135	 3.339769	 -4.845477
H	 1.508848	 1.240408	 -4.788375
H	 0.420205	 1.771639	 -3.536900
C	 -0.106202	 3.240488	 -5.814264
H	 1.964915	 3.612734	 -5.391878
H	 0.884308	 4.143271	 -4.137288
H	 0.062057	 2.465480	 -6.554354
H	 -1.027239	 3.003831	 -5.292014
H	 -0.256835	 4.174595	 -6.342530

	symmetry c1
}
set optking {
	frozen_dihedral = ("
		10 6 3 2
	")
}

ee,wfn = optimize('scf', return_wfn=True)
oeprop( wfn, 'DIPOLE', 'QUADRUPOLE', 'MULLIKEN_CHARGES')
f=open( 'psi4out.xyz', 'w' )
f.write( "28  " )
f.write( str(ee) + "\n" )
f.write( MOL.save_string_xyz() )
f.close()
--------------------------------------------------------------------------

    Molecular point group: c1
  Charge       = 0
  Multiplicity = 1
  Basis Set: CC-PVTZ
  Basis Set:
  @DF-RHF Final Energy:  -426.31142640231576
    Total Energy =                       -426.3114264023162150
    Molecular point group: c1
  Basis Set: CC-PVTZ
  Basis Set:
  Basis Set: CC-PVTZ
  Basis Set:
  @DF-RHF Final Energy:  -426.31341852488629
    Total Energy =                       -426.3134185248859467
  Basis Set: CC-PVTZ
  Basis Set:
  Basis Set: CC-PVTZ
  Basis Set:
  @DF-RHF Final Energy:  -426.31356002759867
    Total Energy =                       -426.3135600275991237
  Basis Set: CC-PVTZ
  Basis Set:
  Basis Set: CC-PVTZ
  Basis Set:
  @DF-RHF Final Energy:  -426.31383957414801
    Total Energy =                       -426.3138395741476643
  Basis Set: CC-PVTZ
  Basis Set:
  @DF-RHF Final Energy:  -426.31428022682007
    Total Energy =                       -426.3142802268207561
  @DF-RHF Final Energy:  -426.31436379796799
    Total Energy =                       -426.3143637979683263
  @DF-RHF Final Energy:  -426.31434986520867
    Total Energy =                       -426.3143498652086691
  Basis Set: CC-PVTZ
  Basis Set:
  @DF-RHF Final Energy:  -426.31441153301739
    Total Energy =                       -426.3144115330173918
  Basis Set: CC-PVTZ
  Basis Set:
  Basis Set: CC-PVTZ
  Basis Set:
  @DF-RHF Final Energy:  -426.31441982749050
    Total Energy =                       -426.3144198274907239
  Basis Set: CC-PVTZ
  Basis Set:
  Basis Set: CC-PVTZ
  Basis Set:
  @DF-RHF Final Energy:  -426.31442162563701
    Total Energy =                       -426.3144216256368964
  Basis Set: CC-PVTZ
  Basis Set:
  Charge       = 0
  Multiplicity = 1
  Basis Set: CC-PVTZ
  Basis Set:

    Orbital Energies (a.u.)
    -----------------------

    Doubly Occupied:

       1A    -20.536305     2A    -11.316759     3A    -11.230043
       4A    -11.228262     5A    -11.227187     6A    -11.223967
       7A    -11.216014     8A    -11.214332     9A    -11.213736
      10A    -11.198843    11A     -1.396633    12A     -1.096170
      13A     -1.076568    14A     -1.022605    15A     -0.989944
      16A     -0.909071    17A     -0.877683    18A     -0.809250
      19A     -0.796064    20A     -0.724444    21A     -0.668947
      22A     -0.650205    23A     -0.637174    24A     -0.627007
      25A     -0.600605    26A     -0.589276    27A     -0.581540
      28A     -0.563760    29A     -0.550730    30A     -0.536375
      31A     -0.520582    32A     -0.507780    33A     -0.502715
      34A     -0.485319    35A     -0.479361    36A     -0.476616
      37A     -0.469441    38A     -0.464335    39A     -0.452005
      40A     -0.393820

  @DF-RHF Final Energy:  -426.31442212662114

   => Energetics <=

    Nuclear Repulsion Energy =            538.6476146409443118
    One-Electron Energy =               -1645.8011283833307061
    Two-Electron Energy =                 680.8390916157650281
    DFT Exchange-Correlation Energy =       0.0000000000000000
    Empirical Dispersion Energy =           0.0000000000000000
    PCM Polarization Energy =               0.0000000000000000
    EFP Energy =                            0.0000000000000000
    Total Energy =                       -426.3144221266213663
    Molecular point group: c1
  Basis Set: CC-PVTZ
  Basis Set:

  -Total Gradient:
     Atom            X                  Y                   Z
    ------   -----------------  -----------------  -----------------
       1        0.000011216116     0.000013701846     0.000025564408
       2        0.000204534142    -0.001445799583     0.000607423160
       3       -0.000127833470     0.002444684336    -0.001189581462
       4        0.000007749500     0.000002853779     0.000011390266
       5        0.000008993439    -0.000010338200     0.000000256345
       6       -0.000784001042    -0.002632367837     0.001805990386
       7       -0.000008218508     0.000001551015    -0.000000936494
       8        0.000007420519    -0.000003618747    -0.000001358745
       9        0.000006177188    -0.000004776527    -0.000000060993
      10        0.000683718891     0.001618921228    -0.001249183571
      11        0.000005095652    -0.000000419944     0.000011932911
      12        0.000019940937     0.000003371984     0.000001955180
      13       -0.000011171467     0.000004570230    -0.000004019541
      14       -0.000008326381     0.000003678821    -0.000002845245
      15       -0.000032715441    -0.000029150490    -0.000030301335
      16       -0.000004483988     0.000008655829     0.000005052997
      17       -0.000006702651     0.000008054578     0.000005659694
      18        0.000000978714     0.000006158835     0.000000534871
      19        0.000009517520    -0.000002208572     0.000018341766
      20        0.000028998450    -0.000009050481    -0.000016016540
      21        0.000003948818    -0.000002068031     0.000005932767
      22        0.000005948838    -0.000003684354    -0.000002995075
      23       -0.000012709446     0.000018101072     0.000015613073
      24       -0.000006906806     0.000007916957    -0.000006665952
      25       -0.000001213082     0.000006443760    -0.000008670866
      26        0.000005046095    -0.000001419995     0.000000361044
      27       -0.000000732165    -0.000006803260    -0.000004226569
      28       -0.000004270376     0.000003041753     0.000000853521

  **** Optimization is complete! (in 11 steps) ****
    Final optimized geometry and variables:
    Molecular point group: c1

    Geometry (in Angstrom), charge = 0, multiplicity = 1:

    H            2.704981269960    -0.717715040367     3.812976580715
    C            2.275732761455    -1.130462193141     2.906409519076
    C            0.764756277967    -1.294043802798     3.058112009292
    H            2.537940467841    -0.478561005880     2.084175934245
    H            2.747499975819    -2.088950704890     2.721784837453
    C            0.047509823185    -1.926719033616     1.852721122196
    H            0.311687672961    -0.333772931929     3.290129736226
    H            0.584346622139    -1.920681231617     3.925713348046
    C           -0.499224055270    -0.930034607454     0.827785678467
    H            0.715106653002    -2.607776428912     1.340591862214
    H           -0.792238534612    -2.509090231485     2.214026955196
    C            0.523709837204    -0.336262693283    -0.126220153996
    H           -1.222837336005    -1.432735657158     0.189823134003
    H           -1.045138587392    -0.131754341477     1.319611380597
    C            0.192111982482     0.998215824534    -0.763914970713
    O            1.529943393879    -0.908620603163    -0.396289752030
    C           -1.039931626046     0.951615543663    -1.674205443152
    H            1.061389576295     1.307243699997    -1.328450088573
    H            0.028690411792     1.725398561327     0.027190042014
    C           -1.307079035860     2.287771533577    -2.361827032662
    H           -0.896355631925     0.182293580518    -2.427788289626
    H           -1.916410762687     0.665442781604    -1.101484040634
    C           -2.528211755598     2.253138940763    -3.274323603521
    H           -0.432788890611     2.574055011172    -2.938660593978
    H           -1.441256081048     3.058191880974    -1.607528847567
    H           -2.408836816350     1.514413235258    -4.059616107454
    H           -3.425908876718     2.002483874383    -2.719033171891
    H           -2.690010832423     3.214708154859    -3.747084116658

  Mulliken Charges: (a.u.)
   Center  Symbol    Alpha    Beta     Spin     Total
       1     H     0.45223  0.45223  0.00000  0.09553
       2     C     3.14101  3.14101  0.00000 -0.28203
       3     C     3.09541  3.09541  0.00000 -0.19083
       4     H     0.44995  0.44995  0.00000  0.10009
       5     H     0.45441  0.45441  0.00000  0.09118
       6     C     3.09849  3.09849  0.00000 -0.19699
       7     H     0.45694  0.45694  0.00000  0.08612
       8     H     0.44884  0.44884  0.00000  0.10233
       9     C     3.12100  3.12100  0.00000 -0.24200
      10     H     0.44272  0.44272  0.00000  0.11457
      11     H     0.44211  0.44211  0.00000  0.11578
      12     C     2.86699  2.86699  0.00000  0.26603
      13     H     0.43618  0.43618  0.00000  0.12764
      14     H     0.44304  0.44304  0.00000  0.11392
      15     C     3.09281  3.09281  0.00000 -0.18563
      16     O     4.17881  4.17881  0.00000 -0.35762
      17     C     3.10028  3.10028  0.00000 -0.20056
      18     H     0.43817  0.43817  0.00000  0.12366
      19     H     0.44965  0.44965  0.00000  0.10070
      20     C     3.08751  3.08751  0.00000 -0.17503
      21     H     0.44546  0.44546  0.00000  0.10907
      22     H     0.44999  0.44999  0.00000  0.10002
      23     C     3.14924  3.14924  0.00000 -0.29848
      24     H     0.44973  0.44973  0.00000  0.10055
      25     H     0.45365  0.45365  0.00000  0.09270
      26     H     0.45340  0.45340  0.00000  0.09320
      27     H     0.45517  0.45517  0.00000  0.08966
      28     H     0.44679  0.44679  0.00000  0.10641

   Total alpha = 40.00000, Total beta = 40.00000, Total charge =  0.00000

*** Psi4 exiting successfully. Buy a developer a beer!
