  ==> Input File <==

--------------------------------------------------------------------------
set {
	reference rhf
	basis 6-31G*
}

set_num_threads( 4 )
memory 2 gb

molecule MOL {
0 1

O	 1.846825	 1.296220	 0.000415
C	 1.705091	 0.115954	 0.001797
C	 0.381791	 -0.609817	 0.001258
O	 2.721346	 -0.737485	 -0.000216
C	 -0.823008	 0.326187	 0.001381
H	 0.371250	 -1.265087	 -0.865474
H	 0.370908	 -1.265746	 0.867490
C	 -0.414697	 1.797810	 -0.080287
H	 -1.408672	 0.155041	 0.899097
H	 -1.470377	 0.075944	 -0.833245
C	 -1.611089	 2.750966	 -0.080356
H	 0.237199	 2.041583	 0.757331
H	 0.174270	 1.962502	 -0.981328
C	 -1.202534	 4.221160	 -0.163201
H	 -2.199076	 2.589486	 0.820386
H	 -2.262785	 2.509281	 -0.917027
H	 -0.577526	 4.502819	 0.679561
H	 -2.071896	 4.871281	 -0.161558
H	 -0.641299	 4.421877	 -1.071518
C	 4.024888	 -0.184556	 -0.001949
H	 4.179030	 0.422472	 -0.882452
H	 4.701782	 -1.024608	 -0.003642
H	 4.181981	 0.421185	 0.878906

	symmetry c1
}
set optking {
	frozen_dihedral = ("
		9 5 3 6
	")
}

ee = optimize('scf')
oeprop('DIPOLE', 'QUADRUPOLE', 'MULLIKEN_CHARGES')
f=open( 'psi4out.xyz', 'w' )
f.write( "23  " )
f.write( str(ee) + "\n" )
f.write( MOL.save_string_xyz() )
f.close()
--------------------------------------------------------------------------

    Molecular point group: c1
  Charge       = 0
  Multiplicity = 1
  Basis Set: 6-31G*
  Basis Set:
  @DF-RHF Final Energy:  -422.93654624840656
    Total Energy =                       -422.9365462484067848
    Molecular point group: c1
  Basis Set: 6-31G*
  Basis Set:
  Basis Set: 6-31G*
  Basis Set:
  @DF-RHF Final Energy:  -422.95757355902845
    Total Energy =                       -422.9575735590290151
  Basis Set: 6-31G*
  Basis Set:
  Basis Set: 6-31G*
  Basis Set:
  @DF-RHF Final Energy:  -422.96172828418406
    Total Energy =                       -422.9617282841835504
  Basis Set: 6-31G*
  Basis Set:
  Basis Set: 6-31G*
  Basis Set:
  @DF-RHF Final Energy:  -422.96043028925459
    Total Energy =                       -422.9604302892546457
  Basis Set: 6-31G*
  Basis Set:
  @DF-RHF Final Energy:  -422.96332752064143
    Total Energy =                       -422.9633275206416556
  @DF-RHF Final Energy:  -422.96379933851097
    Total Energy =                       -422.9637993385106256
  @DF-RHF Final Energy:  -422.96380777188460
    Total Energy =                       -422.9638077718848308
  @DF-RHF Final Energy:  -422.96400890961223
    Total Energy =                       -422.9640089096119482
  @DF-RHF Final Energy:  -422.96433571311138
    Total Energy =                       -422.9643357131111543
  @DF-RHF Final Energy:  -422.96464249664933
    Total Energy =                       -422.9646424966492759
  @DF-RHF Final Energy:  -422.96420451683292
    Total Energy =                       -422.9642045168330924
  @DF-RHF Final Energy:  -422.96503403483609
    Total Energy =                       -422.9650340348354121
  @DF-RHF Final Energy:  -422.96515897832393
    Total Energy =                       -422.9651589783237569
  @DF-RHF Final Energy:  -422.96564512608319
    Total Energy =                       -422.9656451260839276
  @DF-RHF Final Energy:  -422.96584926675251
    Total Energy =                       -422.9658492667520022
  @DF-RHF Final Energy:  -422.96606547491615
    Total Energy =                       -422.9660654749160358
  @DF-RHF Final Energy:  -422.96627231814392
    Total Energy =                       -422.9662723181442061
  @DF-RHF Final Energy:  -422.96664904420163
    Total Energy =                       -422.9666490442016311
  @DF-RHF Final Energy:  -422.96627103875988
    Total Energy =                       -422.9662710387599418
  Basis Set: 6-31G*
  Basis Set:
  @DF-RHF Final Energy:  -422.96680553545389
    Total Energy =                       -422.9668055354543412
  Basis Set: 6-31G*
  Basis Set:
  Basis Set: 6-31G*
  Basis Set:
  @DF-RHF Final Energy:  -422.96690785370401
    Total Energy =                       -422.9669078537037876
  Basis Set: 6-31G*
  Basis Set:
  Basis Set: 6-31G*
  Basis Set:
  @DF-RHF Final Energy:  -422.96691871852988
    Total Energy =                       -422.9669187185295414
  Basis Set: 6-31G*
  Basis Set:
  Charge       = 0
  Multiplicity = 1
  Basis Set: 6-31G*
  Basis Set:

    Orbital Energies (a.u.)
    -----------------------

    Doubly Occupied:

       1A    -20.604718     2A    -20.542597     3A    -11.371038
       4A    -11.280448     5A    -11.233675     6A    -11.230452
       7A    -11.218632     8A    -11.217660     9A    -11.210279
      10A     -1.468764    11A     -1.360861    12A     -1.092608
      13A     -1.041762    14A     -0.983224    15A     -0.935828
      16A     -0.848236    17A     -0.801966    18A     -0.768132
      19A     -0.687169    20A     -0.678116    21A     -0.673325
      22A     -0.650685    23A     -0.605521    24A     -0.598585
      25A     -0.577695    26A     -0.569362    27A     -0.544127
      28A     -0.533285    29A     -0.524696    30A     -0.509200
      31A     -0.486747    32A     -0.474230    33A     -0.466971
      34A     -0.457388    35A     -0.450982    36A     -0.431134

  @DF-RHF Final Energy:  -422.96691953648229

   => Energetics <=

    Nuclear Repulsion Energy =            471.1792302968011086
    One-Electron Energy =               -1510.0321077680584949
    Two-Electron Energy =                 615.8859579347748650
    DFT Exchange-Correlation Energy =       0.0000000000000000
    Empirical Dispersion Energy =           0.0000000000000000
    PCM Polarization Energy =               0.0000000000000000
    EFP Energy =                            0.0000000000000000
    Total Energy =                       -422.9669195364825782
    Molecular point group: c1
  Basis Set: 6-31G*
  Basis Set:

  -Total Gradient:
     Atom            X                  Y                   Z
    ------   -----------------  -----------------  -----------------
       1        0.000192049104    -0.000137943871     0.000010956638
       2       -0.000169920571     0.000488776310    -0.000168621667
       3        0.000458960777     0.000601047061    -0.000491376190
       4        0.000090345685    -0.000217830376     0.000124459841
       5        0.000377755187     0.000468729106     0.000685101290
       6       -0.000568444028    -0.000537878902     0.000399093662
       7       -0.000000153039    -0.000113012683    -0.000123344019
       8        0.000222842423    -0.000026086709    -0.000282271572
       9       -0.000516665687    -0.000622543223    -0.000433632381
      10        0.000080175673     0.000018757677     0.000084105046
      11        0.000029417116    -0.000093990622     0.000038297421
      12        0.000030995718     0.000047731178     0.000076357641
      13       -0.000105623623     0.000047079151     0.000085858651
      14       -0.000024265558     0.000021158547     0.000012082787
      15       -0.000052891974     0.000025609002    -0.000019469681
      16       -0.000055363962     0.000019767381    -0.000037567823
      17        0.000020531258     0.000015159965     0.000009591672
      18        0.000002134476     0.000007522637     0.000012258403
      19       -0.000004580398    -0.000005375583    -0.000002016359
      20       -0.000012047224     0.000009058006     0.000017739799
      21        0.000008807955     0.000003459551    -0.000003034986
      22       -0.000003736095    -0.000004661270     0.000001310475
      23       -0.000000323221    -0.000014532327     0.000004121356

  **** Optimization is complete! (in 23 steps) ****
    Final optimized geometry and variables:
    Molecular point group: c1

    Geometry (in Angstrom), charge = 0, multiplicity = 1:

    O            1.373002947347    -0.817923041532     1.554378805893
    C            0.907375470042    -1.152564794117     0.512093255201
    C           -0.488839496728    -1.697000910817     0.327846630735
    O            1.574920931608    -1.084755733588    -0.632682099348
    C           -1.573318668509    -0.616995688778     0.034145256082
    H           -0.465579048825    -2.425651298972    -0.472017143420
    H           -0.731731113373    -2.219061888311     1.243566446469
    C           -1.076874228279     0.820361495889    -0.153026312760
    H           -2.298343175226    -0.633963032417     0.841034863915
    H           -2.113684065505    -0.914631605466    -0.858481076673
    C           -2.223226609724     1.797496167663    -0.421114144720
    H           -0.535577740799     1.139243219868     0.733998792373
    H           -0.373091954429     0.859855554326    -0.980452174138
    C           -1.743949417532     3.236658690240    -0.607793310585
    H           -2.931247140599     1.757744860875     0.403808084940
    H           -2.768812803620     1.481111647613    -1.307712930490
    H           -1.221622150584     3.593282912222     0.275273395269
    H           -2.577379288267     3.907183314380    -0.792732993804
    H           -1.061970192162     3.316624556433    -1.449607574889
    C            2.892439494483    -0.568614680076    -0.576859026074
    H            2.887504027478     0.446047556017    -0.205426020994
    H            3.262820716940    -0.594726613126    -1.589827918866
    H            3.511683158724    -1.178739313707     0.064643107568

  Mulliken Charges: (a.u.)
   Center  Symbol    Alpha    Beta     Spin     Total
       1     O     4.28509  4.28509  0.00000 -0.57017
       2     C     2.61883  2.61883  0.00000  0.76234
       3     C     3.19811  3.19811  0.00000 -0.39623
       4     O     4.30202  4.30202  0.00000 -0.60404
       5     C     3.15522  3.15522  0.00000 -0.31043
       6     H     0.40183  0.40183  0.00000  0.19635
       7     H     0.39817  0.39817  0.00000  0.20366
       8     C     3.17012  3.17012  0.00000 -0.34024
       9     H     0.41336  0.41336  0.00000  0.17329
      10     H     0.41526  0.41526  0.00000  0.16947
      11     C     3.15177  3.15177  0.00000 -0.30354
      12     H     0.41080  0.41080  0.00000  0.17840
      13     H     0.41576  0.41576  0.00000  0.16848
      14     C     3.23976  3.23976  0.00000 -0.47952
      15     H     0.42166  0.42166  0.00000  0.15668
      16     H     0.42276  0.42276  0.00000  0.15448
      17     H     0.41980  0.41980  0.00000  0.16039
      18     H     0.41870  0.41870  0.00000  0.16261
      19     H     0.42169  0.42169  0.00000  0.15661
      20     C     3.09291  3.09291  0.00000 -0.18582
      21     H     0.40923  0.40923  0.00000  0.18153
      22     H     0.40889  0.40889  0.00000  0.18222
      23     H     0.40826  0.40826  0.00000  0.18348

   Total alpha = 36.00000, Total beta = 36.00000, Total charge = -0.00000
