                              Psi4 1.0.54 Driver

  ==> Input File <==

--------------------------------------------------------------------------
set {
	reference rhf
	basis cc-pvtz
}

set_num_threads( 4 )
memory 2 gb

molecule MOL {
0 1

O	 3.219313	 0.959291	 -0.614106
C	 2.698710	 0.058177	 -0.050237
C	 1.246364	 -0.005813	 0.348416
O	 3.344101	 -1.038700	 0.312317
C	 0.453207	 1.232821	 -0.049003
H	 0.839270	 -0.907818	 -0.092281
H	 1.216683	 -0.160521	 1.422434
C	 -0.998367	 1.217982	 0.432195
H	 0.481498	 1.345443	 -1.127236
H	 0.951413	 2.105557	 0.354893
C	 -1.882951	 0.151251	 -0.211235
H	 -1.429490	 2.193659	 0.228843
H	 -1.019755	 1.099323	 1.513279
C	 -3.342450	 0.243269	 0.226009
H	 -1.826223	 0.246578	 -1.293162
H	 -1.508033	 -0.839650	 0.027695
C	 -4.285633	 0.677936	 -0.892135
H	 -3.425256	 0.941605	 1.055352
H	 -3.663990	 -0.722299	 0.609620
C	 -5.741458	 0.769272	 -0.447155
H	 -3.965733	 1.642708	 -1.276321
H	 -4.206140	 -0.020602	 -1.720737
H	 -6.383367	 1.079668	 -1.263605
H	 -5.860261	 1.486872	 0.357857
H	 -6.102180	 -0.189333	 -0.089153
C	 4.720529	 -1.114346	 0.001449
H	 4.874321	 -1.055557	 -1.065852
H	 5.057824	 -2.067950	 0.373977
H	 5.264321	 -0.313596	 0.480350

	symmetry c1
}
set optking {
	frozen_dihedral = ("
		17 14 11 15
	")
}

ee,wfn = optimize('scf', return_wfn=True)
oeprop( wfn, 'DIPOLE', 'QUADRUPOLE', 'MULLIKEN_CHARGES')
f=open( 'psi4out.xyz', 'w' )
f.write( "29  " )
f.write( str(ee) + "\n" )
f.write( MOL.save_string_xyz() )
f.close()
--------------------------------------------------------------------------

    Molecular point group: c1
  Charge       = 0
  Multiplicity = 1
  Basis Set: CC-PVTZ
  Basis Set:
  @DF-RHF Final Energy:  -501.21951368134091
    Total Energy =                       -501.2195136813413683
    Molecular point group: c1
  Basis Set: CC-PVTZ
  Basis Set:
  Basis Set: CC-PVTZ
  Basis Set:
  @DF-RHF Final Energy:  -501.21974396009352
    Total Energy =                       -501.2197439600934104
  Basis Set: CC-PVTZ
  Basis Set:
  Basis Set: CC-PVTZ
  Basis Set:
  @DF-RHF Final Energy:  -501.21980415169025
    Total Energy =                       -501.2198041516903686
  Basis Set: CC-PVTZ
  Basis Set:
  Basis Set: CC-PVTZ
  Basis Set:
  @DF-RHF Final Energy:  -501.21959669381533
    Total Energy =                       -501.2195966938148786
  Basis Set: CC-PVTZ
  Basis Set:
  Basis Set: CC-PVTZ
  Basis Set:
  @DF-RHF Final Energy:  -501.21981872675292
    Total Energy =                       -501.2198187267524645
  Basis Set: CC-PVTZ
  Basis Set:
  Charge       = 0
  Multiplicity = 1
  Basis Set: CC-PVTZ
  Basis Set:

    Orbital Energies (a.u.)
    -----------------------

    Doubly Occupied:

       1A    -20.595992     2A    -20.533840     3A    -11.364250
       4A    -11.278246     5A    -11.232958     6A    -11.216860
       7A    -11.215895     8A    -11.214131     9A    -11.213469
      10A    -11.212006    11A    -11.206720    12A     -1.471869
      13A     -1.365475    14A     -1.098402    15A     -1.067023
      16A     -1.019823    17A     -0.977309    18A     -0.928669
      19A     -0.862926    20A     -0.804331    21A     -0.788132
      22A     -0.765789    23A     -0.703208    24A     -0.685397
      25A     -0.675799    26A     -0.641593    27A     -0.627425
      28A     -0.613250    29A     -0.598138    30A     -0.580583
      31A     -0.562576    32A     -0.556800    33A     -0.535543
      34A     -0.530087    35A     -0.522701    36A     -0.504983
      37A     -0.497403    38A     -0.478313    39A     -0.474029
      40A     -0.463222    41A     -0.459232    42A     -0.448098
      43A     -0.444765    44A     -0.438422

  @DF-RHF Final Energy:  -501.21981869041008

   => Energetics <=

    Nuclear Repulsion Energy =            611.6820351245354459
    One-Electron Energy =               -1894.8523420671274380
    Two-Electron Energy =                 781.9504882521814579
    DFT Exchange-Correlation Energy =       0.0000000000000000
    Empirical Dispersion Energy =           0.0000000000000000
    PCM Polarization Energy =               0.0000000000000000
    EFP Energy =                            0.0000000000000000
    Total Energy =                       -501.2198186904106478
    Molecular point group: c1
  Basis Set: CC-PVTZ
  Basis Set:

  -Total Gradient:
     Atom            X                  Y                   Z
    ------   -----------------  -----------------  -----------------
       1       -0.000008624985     0.000074314308     0.000032267835
       2       -0.000017544603    -0.000073651989    -0.000135362812
       3        0.000035533575     0.000013034086     0.000039622733
       4       -0.000008446627    -0.000023063507     0.000063911247
       5       -0.000004454820    -0.000001558916    -0.000023949941
       6        0.000034733946     0.000011426856     0.000001152615
       7       -0.000006609548    -0.000001912072     0.000009523873
       8       -0.000023867945    -0.000030423401     0.000028293374
       9        0.000005245819    -0.000006154173    -0.000008196960
      10       -0.000010008851     0.000001308733    -0.000005170873
      11       -0.000251222466    -0.002491435136    -0.000288207883
      12       -0.000009245225     0.000011036079     0.000021738776
      13        0.000024821898    -0.000003819821     0.000007601944
      14        0.000256631945     0.002009841291     0.000456022709
      15        0.000151360768     0.001649074328     0.000140031054
      16       -0.000053660315     0.000022053558     0.000012395616
      17       -0.000168426839    -0.001196095486    -0.000349175252
      18        0.000020248578     0.000001749844     0.000001207201
      19        0.000030789412     0.000011400828    -0.000014760107
      20        0.000008052073     0.000024334599     0.000036036367
      21       -0.000007692792    -0.000015756023    -0.000015927466
      22       -0.000007529239     0.000004695800     0.000009217644
      23        0.000009727881     0.000005771027     0.000002768178
      24       -0.000005277923    -0.000019389127    -0.000004484255
      25        0.000011231023     0.000014739010    -0.000014737709
      26       -0.000003063054     0.000013593930    -0.000010084293
      27        0.000002222873    -0.000001287316     0.000002292695
      28       -0.000008674291    -0.000001637450     0.000005242787
      29        0.000003749729    -0.000002189853     0.000000730902

  **** Optimization is complete! (in 6 steps) ****
    Final optimized geometry and variables:
    Molecular point group: c1

    Geometry (in Angstrom), charge = 0, multiplicity = 1:

    O            3.226469239060     0.681599771129    -0.525520475732
    C            2.711065351900    -0.218598488909     0.044588286974
    C            1.259429026691    -0.287615108043     0.445004136181
    O            3.362597639450    -1.309533179680     0.414080055913
    C            0.459607203474     0.944699776322     0.040969991730
    H            0.856636181600    -1.194254674653     0.009873643735
    H            1.231412593266    -0.436280057810     1.519921958968
    C           -0.990076022033     0.926621540130     0.526272704661
    H            0.484453345697     1.049642350443    -1.038192991524
    H            0.955041602562     1.822556069202     0.437246806319
    C           -1.873788217544    -0.150220915907    -0.106267577505
    H           -1.427715230857     1.898393412559     0.316081058071
    H           -1.009024405723     0.816762523401     1.608286654007
    C           -3.353963359992    -0.036693640121     0.310036898130
    H           -1.794504694667    -0.061381909434    -1.186167441992
    H           -1.496278840292    -1.133091440460     0.149727853170
    C           -4.276649636040     0.404413657789    -0.824380728207
    H           -3.448490678859     0.661264416351     1.136875949894
    H           -3.705597992442    -0.992091354870     0.687008525731
    C           -5.731429729891     0.550441463426    -0.392625550277
    H           -3.923707757033     1.349861296425    -1.228539876730
    H           -4.210860952942    -0.315378857094    -1.635397711272
    H           -6.358432201927     0.858843539489    -1.221340041471
    H           -5.834183497000     1.291230268617     0.393379498917
    H           -6.122772763044    -0.387803414921    -0.013296077395
    C            4.739178153805    -1.379926677159     0.102643260588
    H            4.891881020584    -1.327531043850    -0.965148811523
    H            5.081849719477    -2.329184893507     0.481339736668
    H            5.279073129535    -0.573087314947     0.575710037819

  Mulliken Charges: (a.u.)
   Center  Symbol    Alpha    Beta     Spin     Total
       1     O     4.19698  4.19698  0.00000 -0.39397
       2     C     2.80512  2.80512  0.00000  0.38977
       3     C     3.10165  3.10165  0.00000 -0.20329
       4     O     4.14719  4.14719  0.00000 -0.29439
       5     C     3.09325  3.09325  0.00000 -0.18650
       6     H     0.43916  0.43916  0.00000  0.12168
       7     H     0.43984  0.43984  0.00000  0.12032
       8     C     3.10252  3.10252  0.00000 -0.20505
       9     H     0.44598  0.44598  0.00000  0.10805
      10     H     0.43961  0.43961  0.00000  0.12077
      11     C     3.10437  3.10437  0.00000 -0.20874
      12     H     0.44456  0.44456  0.00000  0.11087
      13     H     0.45299  0.45299  0.00000  0.09402
      14     C     3.09441  3.09441  0.00000 -0.18882
      15     H     0.45284  0.45284  0.00000  0.09433
      16     H     0.44579  0.44579  0.00000  0.10841
      17     C     3.08130  3.08130  0.00000 -0.16260
      18     H     0.45437  0.45437  0.00000  0.09126
      19     H     0.44886  0.44886  0.00000  0.10229
      20     C     3.15091  3.15091  0.00000 -0.30182
      21     H     0.45423  0.45423  0.00000  0.09153
      22     H     0.45363  0.45363  0.00000  0.09274
      23     H     0.44840  0.44840  0.00000  0.10320
      24     H     0.45485  0.45485  0.00000  0.09029
      25     H     0.45523  0.45523  0.00000  0.08955
      26     C     3.03809  3.03809  0.00000 -0.07618
      27     H     0.45436  0.45436  0.00000  0.09129
      28     H     0.44527  0.44527  0.00000  0.10946
      29     H     0.45424  0.45424  0.00000  0.09153

   Total alpha = 44.00000, Total beta = 44.00000, Total charge = -0.00000

*** Psi4 exiting successfully. Buy a developer a beer!
