  ==> Input File <==

--------------------------------------------------------------------------
set {
	reference rhf
	basis 6-31G*
}

set_num_threads( 4 )
memory 2 gb

molecule MOL {
0 1

O	 -1.158117	 2.403412	 1.032091
C	 -1.255578	 1.768351	 0.026291
C	 -0.031503	 1.148559	 -0.624712
C	 -2.595575	 1.521637	 -0.630152
C	 0.379448	 -0.143569	 0.099626
H	 0.775333	 1.870652	 -0.562258
H	 -0.220116	 0.941935	 -1.674358
C	 1.631333	 -0.777471	 -0.511575
H	 0.542491	 0.092155	 1.145206
H	 -0.439376	 -0.860457	 0.062945
C	 2.915987	 -0.544314	 0.291766
H	 1.766672	 -0.399098	 -1.523130
H	 1.471257	 -1.849544	 -0.605828
C	 3.373361	 0.914346	 0.347591
H	 3.708709	 -1.142521	 -0.150311
H	 2.780642	 -0.921148	 1.303579
H	 3.506512	 1.320010	 -0.651625
H	 4.322697	 0.999599	 0.867103
H	 2.660624	 1.545032	 0.868198
H	 -2.627965	 2.022879	 -1.593983
H	 -3.390566	 1.899244	 -0.002310
H	 -2.743503	 0.461660	 -0.815545

	symmetry c1
}
set optking {
	frozen_dihedral = ("
		3 5 8 12
	")
}

ee = optimize('scf')
oeprop('DIPOLE', 'QUADRUPOLE', 'MULLIKEN_CHARGES')
f=open( 'psi4out.xyz', 'w' )
f.write( "22  " )
f.write( str(ee) + "\n" )
f.write( MOL.save_string_xyz() )
f.close()
--------------------------------------------------------------------------

    Molecular point group: c1
  Charge       = 0
  Multiplicity = 1
  Basis Set: 6-31G*
  Basis Set:
  @DF-RHF Final Energy:  -348.09320111603597
    Total Energy =                       -348.0932011160361981
    Molecular point group: c1
  Basis Set: 6-31G*
  Basis Set:
  Basis Set: 6-31G*
  Basis Set:
  @DF-RHF Final Energy:  -348.09338120269797
    Total Energy =                       -348.0933812026984242
  Basis Set: 6-31G*
  Basis Set:
  Basis Set: 6-31G*
  Basis Set:
  @DF-RHF Final Energy:  -348.09270951934877
    Total Energy =                       -348.0927095193483751
  Basis Set: 6-31G*
  Basis Set:
  Basis Set: 6-31G*
  Basis Set:
  @DF-RHF Final Energy:  -348.09354346761819
    Total Energy =                       -348.0935434676183604
  Basis Set: 6-31G*
  Basis Set:
  @DF-RHF Final Energy:  -348.09326052787560
    Total Energy =                       -348.0932605278757705
  @DF-RHF Final Energy:  -348.09357441707039
    Total Energy =                       -348.0935744170702719
  @DF-RHF Final Energy:  -348.09354983828746
    Total Energy =                       -348.0935498382873448
  Basis Set: 6-31G*
  Basis Set:
  @DF-RHF Final Energy:  -348.09362780472327
    Total Energy =                       -348.0936278047231554
  Basis Set: 6-31G*
  Basis Set:
  Basis Set: 6-31G*
  Basis Set:
  @DF-RHF Final Energy:  -348.09362833051171
    Total Energy =                       -348.0936283305117627
  Basis Set: 6-31G*
  Basis Set:
  Basis Set: 6-31G*
  Basis Set:
  @DF-RHF Final Energy:  -348.09364129596850
    Total Energy =                       -348.0936412959686095
  Basis Set: 6-31G*
  Basis Set:
  Charge       = 0
  Multiplicity = 1
  Basis Set: 6-31G*
  Basis Set:

    Orbital Energies (a.u.)
    -----------------------

    Doubly Occupied:

       1A    -20.547418     2A    -11.324292     3A    -11.229625
       4A    -11.228668     5A    -11.228195     6A    -11.221903
       7A    -11.219178     8A    -11.209737     9A     -1.393076
      10A     -1.093455    11A     -1.042147    12A     -0.997920
      13A     -0.940100    14A     -0.856149    15A     -0.784580
      16A     -0.733982    17A     -0.657642    18A     -0.648955
      19A     -0.626807    20A     -0.613277    21A     -0.598721
      22A     -0.579926    23A     -0.559117    24A     -0.549230
      25A     -0.530856    26A     -0.517666    27A     -0.503427
      28A     -0.486422    29A     -0.466912    30A     -0.463571
      31A     -0.454877    32A     -0.395813

  @DF-RHF Final Energy:  -348.09364152037142

   => Energetics <=

    Nuclear Repulsion Energy =            378.8242723478421112
    One-Electron Energy =               -1222.4285421831075382
    Two-Electron Energy =                 495.5106283148941202
    DFT Exchange-Correlation Energy =       0.0000000000000000
    Empirical Dispersion Energy =           0.0000000000000000
    PCM Polarization Energy =               0.0000000000000000
    EFP Energy =                            0.0000000000000000
    Total Energy =                       -348.0936415203713068
    Molecular point group: c1
  Basis Set: 6-31G*
  Basis Set:

  -Total Gradient:
     Atom            X                  Y                   Z
    ------   -----------------  -----------------  -----------------
       1       -0.000004103471     0.000004485990    -0.000004848680
       2        0.000013819432     0.000004645453     0.000001413325
       3       -0.000374456961    -0.000349896601    -0.000406537205
       4       -0.000000914499    -0.000017056730     0.000002332498
       5        0.000629259005     0.000655344240     0.000632668157
       6        0.000000553015    -0.000005778232     0.000006680549
       7       -0.000003252755     0.000000231508    -0.000001508193
       8       -0.000759034175    -0.000978939955    -0.000544344847
       9        0.000002395872     0.000002322848     0.000005445358
      10        0.000002496458    -0.000000281180    -0.000001012931
      11        0.000001773922    -0.000000834198    -0.000004905567
      12        0.000494412645     0.000681645056     0.000307181406
      13        0.000001429275     0.000001193227     0.000003285852
      14        0.000002116833    -0.000003419704     0.000006338377
      15        0.000000593912    -0.000002737440    -0.000000794370
      16       -0.000000135899     0.000003748398     0.000000554732
      17       -0.000002983821    -0.000001668553    -0.000000526202
      18       -0.000000712667    -0.000003455989    -0.000000915321
      19       -0.000000669973     0.000003023482     0.000000510832
      20        0.000000330198     0.000003815394     0.000001627604
      21       -0.000000084895     0.000000685380    -0.000000108269
      22       -0.000002831454     0.000002927601    -0.000002537108

  **** Optimization is complete! (in 11 steps) ****
    Final optimized geometry and variables:
    Molecular point group: c1

    Geometry (in Angstrom), charge = 0, multiplicity = 1:

    O           -1.537667193393     1.626943918163     1.000047904933
    C           -1.666505112055     0.975785645047     0.007998515491
    C           -0.462141082020     0.344313764311    -0.668385509648
    C           -3.025266821302     0.727317302733    -0.607967147681
    C           -0.031712744593    -0.936777177965     0.067393174266
    H            0.340866198665     1.071434379447    -0.652821466686
    H           -0.684459732542     0.111019710392    -1.705685126339
    C            1.236261915582    -1.593236607921    -0.519568763170
    H            0.118125106696    -0.702010719918     1.116233756732
    H           -0.853862647195    -1.647101347468     0.030568286377
    C            2.517036609959    -1.351380233593     0.289530012473
    H            1.391839162182    -1.244760880323    -1.538585981270
    H            1.081905275786    -2.666041963150    -0.588381936398
    C            2.956539629231     0.110736419885     0.376760994117
    H            3.318958428573    -1.933387127536    -0.158263198864
    H            2.380560534132    -1.745528457919     1.294219069372
    H            3.105830403737     0.535102551945    -0.612580335339
    H            3.894593270586     0.197090113532     0.916153101971
    H            2.226767468007     0.723238052300     0.895983540749
    H           -3.080802832292     1.213189335454    -1.578564279265
    H           -3.800666490921     1.119861173671     0.035019898423
    H           -3.184295791135    -0.334551417528    -0.772141417429

  Mulliken Charges: (a.u.)
   Center  Symbol    Alpha    Beta     Spin     Total
       1     O     4.26279  4.26279  0.00000 -0.52558
       2     C     2.73792  2.73792  0.00000  0.52415
       3     C     3.20180  3.20180  0.00000 -0.40360
       4     C     3.28952  3.28952  0.00000 -0.57903
       5     C     3.16749  3.16749  0.00000 -0.33497
       6     H     0.39889  0.39889  0.00000  0.20223
       7     H     0.41664  0.41664  0.00000  0.16673
       8     C     3.15562  3.15562  0.00000 -0.31124
       9     H     0.40393  0.40393  0.00000  0.19213
      10     H     0.41838  0.41838  0.00000  0.16325
      11     C     3.15251  3.15251  0.00000 -0.30502
      12     H     0.42151  0.42151  0.00000  0.15698
      13     H     0.41745  0.41745  0.00000  0.16510
      14     C     3.24465  3.24465  0.00000 -0.48929
      15     H     0.42094  0.42094  0.00000  0.15812
      16     H     0.42124  0.42124  0.00000  0.15751
      17     H     0.42335  0.42335  0.00000  0.15331
      18     H     0.41764  0.41764  0.00000  0.16471
      19     H     0.41404  0.41404  0.00000  0.17193
      20     H     0.40688  0.40688  0.00000  0.18624
      21     H     0.39711  0.39711  0.00000  0.20578
      22     H     0.40971  0.40971  0.00000  0.18057

   Total alpha = 32.00000, Total beta = 32.00000, Total charge = -0.00000
