  ==> Input File <==

--------------------------------------------------------------------------
set {
	reference rhf
	basis 6-31G*
}

set_num_threads( 4 )
memory 2 gb

molecule MOL {
0 1

H	 -1.254611	 0.704788	 -0.948585
C	 -0.790252	 0.431209	 0.000000
N	 0.538815	 0.649616	 0.000000
O	 -1.426053	 -0.009469	 0.911466
C	 1.521968	 -0.411503	 0.000000
H	 0.852804	 1.592852	 0.000000
H	 2.150599	 -0.357004	 -0.881901
H	 0.999455	 -1.354525	 0.000000
H	 2.150599	 -0.357004	 0.881901

	symmetry c1
}
set optking {
	frozen_dihedral = ("
		1 2 3 6
	")
}

ee = optimize('scf')
oeprop('DIPOLE', 'QUADRUPOLE', 'MULLIKEN_CHARGES')
f=open( 'psi4out.xyz', 'w' )
f.write( "9  " )
f.write( str(ee) + "\n" )
f.write( MOL.save_string_xyz() )
f.close()
--------------------------------------------------------------------------

    Molecular point group: c1
  Charge       = 0
  Multiplicity = 1
  Basis Set: 6-31G*
  Basis Set:
  @DF-RHF Final Energy:  -207.92238766807463
    Total Energy =                       -207.9223876680746628
    Molecular point group: c1
  Basis Set: 6-31G*
  Basis Set:
  Basis Set: 6-31G*
  Basis Set:
  @DF-RHF Final Energy:  -207.92955178203070
    Total Energy =                       -207.9295517820306713
  Basis Set: 6-31G*
  Basis Set:
  Basis Set: 6-31G*
  Basis Set:
  @DF-RHF Final Energy:  -207.93571560637295
    Total Energy =                       -207.9357156063729803
  Basis Set: 6-31G*
  Basis Set:
  Basis Set: 6-31G*
  Basis Set:
  @DF-RHF Final Energy:  -207.94342180515204
    Total Energy =                       -207.9434218051521270
  Basis Set: 6-31G*
  Basis Set:
  @DF-RHF Final Energy:  -207.94325096773878
    Total Energy =                       -207.9432509677386633
  @DF-RHF Final Energy:  -207.94563205828860
    Total Energy =                       -207.9456320582885951
  @DF-RHF Final Energy:  -207.94683382063695
    Total Energy =                       -207.9468338206369253
  @DF-RHF Final Energy:  -207.94738077943327
    Total Energy =                       -207.9473807794332174
  Basis Set: 6-31G*
  Basis Set:
  @DF-RHF Final Energy:  -207.94774210935293
    Total Energy =                       -207.9477421093530154
  Basis Set: 6-31G*
  Basis Set:
  Basis Set: 6-31G*
  Basis Set:
  @DF-RHF Final Energy:  -207.94785806561310
    Total Energy =                       -207.9478580656130475
  Basis Set: 6-31G*
  Basis Set:
  Basis Set: 6-31G*
  Basis Set:
  @DF-RHF Final Energy:  -207.94786739817278
    Total Energy =                       -207.9478673981727752
  Basis Set: 6-31G*
  Basis Set:
  Charge       = 0
  Multiplicity = 1
  Basis Set: 6-31G*
  Basis Set:

    Orbital Energies (a.u.)
    -----------------------

    Doubly Occupied:

       1A    -20.554368     2A    -15.582567     3A    -11.350839
       4A    -11.252905     5A     -1.410856     6A     -1.229301
       7A     -0.952559     8A     -0.807739     9A     -0.730566
      10A     -0.651044    11A     -0.644334    12A     -0.571609
      13A     -0.548484    14A     -0.531385    15A     -0.439748
      16A     -0.409331

  @DF-RHF Final Energy:  -207.94786811358861

   => Energetics <=

    Nuclear Repulsion Energy =            122.7468792862235603
    One-Electron Energy =                -526.0542224759760757
    Two-Electron Energy =                 195.3594750761638466
    DFT Exchange-Correlation Energy =       0.0000000000000000
    Empirical Dispersion Energy =           0.0000000000000000
    PCM Polarization Energy =               0.0000000000000000
    EFP Energy =                            0.0000000000000000
    Total Energy =                       -207.9478681135886404
    Molecular point group: c1
  Basis Set: 6-31G*
  Basis Set:

  -Total Gradient:
     Atom            X                  Y                   Z
    ------   -----------------  -----------------  -----------------
       1       -0.002456452271    -0.010252816458    -0.007184878035
       2        0.004565887165     0.012394627181     0.012471081785
       3       -0.007567986527     0.001848856967    -0.017288468469
       4        0.000009222406    -0.000003912201     0.000015665364
       5        0.000047712180    -0.000031678377    -0.000026870241
       6        0.005352412583    -0.003918830921     0.011980703384
       7        0.000010701878    -0.000022422811     0.000013587614
       8        0.000028566855     0.000006573247     0.000018528625
       9        0.000009935732    -0.000020396625     0.000000649972

  **** Optimization is complete! (in 12 steps) ****
    Final optimized geometry and variables:
    Molecular point group: c1

    Geometry (in Angstrom), charge = 0, multiplicity = 1:

    H           -1.543327096266     0.976977274535    -0.648760911002
    C           -0.806522929032     0.404077552665    -0.085643309878
    N            0.468886143055     0.480201467259    -0.628535783565
    O           -1.135353023916    -0.340849290405     0.780226667439
    C            1.412819882621    -0.513982508769    -0.121432082018
    H            0.861421782235     1.395177050059    -0.506881026323
    H            2.351438154349    -0.387181477470    -0.645017991956
    H            1.031714636762    -1.502895843847    -0.330524469812
    H            1.583686652449    -0.436019317953     0.947128539251

  Mulliken Charges: (a.u.)
   Center  Symbol    Alpha    Beta     Spin     Total
       1     H     0.41655  0.41655  0.00000  0.16689
       2     C     2.76942  2.76942  0.00000  0.46117
       3     N     3.86278  3.86278  0.00000 -0.72555
       4     O     4.25275  4.25275  0.00000 -0.50551
       5     C     3.15264  3.15264  0.00000 -0.30528
       6     H     0.31654  0.31654  0.00000  0.36692
       7     H     0.41391  0.41391  0.00000  0.17218
       8     H     0.40220  0.40220  0.00000  0.19559
       9     H     0.41321  0.41321  0.00000  0.17358

   Total alpha = 16.00000, Total beta = 16.00000, Total charge =  0.00000
