                              Psi4 1.0.54 Driver

  ==> Input File <==

--------------------------------------------------------------------------
set {
	reference rhf
	basis cc-pvtz
}

set_num_threads( 4 )
memory 2 gb

molecule MOL {
0 1

H	 2.646708	 0.758099	 0.000000
O	 2.258158	 -0.097743	 0.000000
C	 0.911162	 -0.015915	 0.000000
C	 0.297347	 0.442235	 -1.154180
C	 0.147962	 -0.369485	 1.096784
H	 0.905206	 0.711965	 -1.995164
C	 -1.076299	 0.542476	 -1.200238
H	 0.624182	 -0.725055	 1.992571
C	 -1.230301	 -0.263697	 1.036284
H	 -1.546533	 0.898158	 -2.097328
C	 -1.851801	 0.191207	 -0.107713
H	 -1.815511	 -0.540398	 1.892610
H	 -2.920212	 0.271920	 -0.151066

	symmetry c1
}
set optking {
	frozen_dihedral = ("
		4 3 2 1
	")
}

ee,wfn = optimize('scf', return_wfn=True)
oeprop( wfn, 'DIPOLE', 'QUADRUPOLE', 'MULLIKEN_CHARGES')
f=open( 'psi4out.xyz', 'w' )
f.write( "13  " )
f.write( str(ee) + "\n" )
f.write( MOL.save_string_xyz() )
f.close()
--------------------------------------------------------------------------

    Molecular point group: c1
  Charge       = 0
  Multiplicity = 1
  Basis Set: CC-PVTZ
  Basis Set:
  @DF-RHF Final Energy:  -305.66552210122501
    Total Energy =                       -305.6655221012247239
    Molecular point group: c1
  Basis Set: CC-PVTZ
  Basis Set:
  Basis Set: CC-PVTZ
  Basis Set:
  @DF-RHF Final Energy:  -305.66668451858135
    Total Energy =                       -305.6666845185812349
  Basis Set: CC-PVTZ
  Basis Set:
  Basis Set: CC-PVTZ
  Basis Set:
  @DF-RHF Final Energy:  -305.66675691759730
    Total Energy =                       -305.6667569175974677
  Basis Set: CC-PVTZ
  Basis Set:
  Basis Set: CC-PVTZ
  Basis Set:
  @DF-RHF Final Energy:  -305.66676457267948
    Total Energy =                       -305.6667645726794262
  Basis Set: CC-PVTZ
  Basis Set:
  Charge       = 0
  Multiplicity = 1
  Basis Set: CC-PVTZ
  Basis Set:

    Orbital Energies (a.u.)
    -----------------------

    Doubly Occupied:

       1A    -20.572684     2A    -11.289773     3A    -11.233768
       4A    -11.233062     5A    -11.226151     6A    -11.225010
       7A    -11.224164     8A     -1.399861     9A     -1.153233
      10A     -1.022357    11A     -1.008362    12A     -0.841148
      13A     -0.828236    14A     -0.738509    15A     -0.684724
      16A     -0.651819    17A     -0.630862    18A     -0.597346
      19A     -0.591972    20A     -0.529703    21A     -0.517494
      22A     -0.498053    23A     -0.473544    24A     -0.341954
      25A     -0.327530

  @DF-RHF Final Energy:  -305.66676632031260

   => Energetics <=

    Nuclear Repulsion Energy =            273.3673228477784960
    One-Electron Energy =                -956.3855352146845235
    Two-Electron Energy =                 377.3514460465935940
    DFT Exchange-Correlation Energy =       0.0000000000000000
    Empirical Dispersion Energy =           0.0000000000000000
    PCM Polarization Energy =               0.0000000000000000
    EFP Energy =                            0.0000000000000000
    Total Energy =                       -305.6667663203124334
    Molecular point group: c1
  Basis Set: CC-PVTZ
  Basis Set:

  -Total Gradient:
     Atom            X                  Y                   Z
    ------   -----------------  -----------------  -----------------
       1       -0.000053898456     0.000017812492     0.001611607702
       2        0.000145289853    -0.000586934545    -0.002224470248
       3       -0.000086600383     0.001626944819     0.001132722869
       4       -0.000045381887    -0.001107572783    -0.000450999115
       5        0.000162262298     0.000004418937    -0.000007097202
       6       -0.000042488220    -0.000007891078     0.000020412734
       7        0.000068969144     0.000050089864    -0.000024331681
       8        0.000051403486     0.000001041220    -0.000030289497
       9       -0.000175424466     0.000068109641    -0.000074926547
      10       -0.000045288950    -0.000010832139     0.000005750921
      11        0.000013501483    -0.000071774210     0.000120566679
      12        0.000013334410     0.000001775460    -0.000021106880
      13       -0.000005678314     0.000014812322    -0.000057839732

  **** Optimization is complete! (in 5 steps) ****
    Final optimized geometry and variables:
    Molecular point group: c1

    Geometry (in Angstrom), charge = 0, multiplicity = 1:

    H            2.681623035312     0.649149418979     0.076964263335
    O            2.261553095383    -0.192631842052     0.088196922400
    C            0.903919857114    -0.053810456208     0.035797302698
    C            0.284738776672     0.387667276526    -1.118699584462
    C            0.149941101161    -0.420859592633     1.132635447028
    H            0.882052365030     0.645946821723    -1.972165742489
    C           -1.093035752235     0.480699078304    -1.164084072330
    H            0.649153880656    -0.774641154238     2.013351827763
    C           -1.228537552513    -0.334100020220     1.075794382989
    H           -1.571208192661     0.826640355619    -2.060668185770
    C           -1.855455548273     0.120396333272    -0.068728713489
    H           -1.812098785438    -0.621144741341     1.929679779824
    H           -2.925321855543     0.188115142852    -0.109484160088

  Mulliken Charges: (a.u.)
   Center  Symbol    Alpha    Beta     Spin     Total
       1     H     0.38710  0.38710  0.00000  0.22581
       2     O     4.19082  4.19082  0.00000 -0.38165
       3     C     2.87157  2.87157  0.00000  0.25687
       4     C     3.11638  3.11638  0.00000 -0.23276
       5     C     3.10716  3.10716  0.00000 -0.21432
       6     H     0.41994  0.41994  0.00000  0.16011
       7     C     3.06886  3.06886  0.00000 -0.13772
       8     H     0.41636  0.41636  0.00000  0.16729
       9     C     3.06703  3.06703  0.00000 -0.13406
      10     H     0.42185  0.42185  0.00000  0.15630
      11     C     3.08806  3.08806  0.00000 -0.17613
      12     H     0.42171  0.42171  0.00000  0.15659
      13     H     0.42317  0.42317  0.00000  0.15367

   Total alpha = 25.00000, Total beta = 25.00000, Total charge =  0.00000

*** Psi4 exiting successfully. Buy a developer a beer!
