  ==> Input File <==

--------------------------------------------------------------------------
set {
	reference rhf
	basis cc-pvtz
}

set_num_threads( 4 )
memory 2 gb

molecule MOL {
0 1

H	 -2.266619	 1.169943	 0.000098
O	 -1.438073	 1.611259	 0.000041
C	 -0.408657	 0.734701	 0.000005
C	 0.759404	 1.143104	 0.616647
C	 -0.505125	 -0.521096	 -0.588026
H	 0.794076	 2.119461	 1.058753
C	 1.849632	 0.299913	 0.654056
C	 0.605752	 -1.347362	 -0.535450
C	 -1.780511	 -0.965291	 -1.260548
H	 2.753103	 0.623770	 1.134510
C	 1.778694	 -0.953137	 0.076766
H	 0.547226	 -2.321095	 -0.985324
H	 -2.047997	 -0.313859	 -2.087836
H	 -1.673861	 -1.963758	 -1.659460
H	 -2.616976	 -0.982059	 -0.567461
H	 2.622769	 -1.614401	 0.102009

	symmetry c1
}
set optking {
	frozen_dihedral = ("
		4 3 2 1
	")
}

ee = optimize('scf')
oeprop('DIPOLE', 'QUADRUPOLE', 'MULLIKEN_CHARGES')
f=open( 'psi4out.xyz', 'w' )
f.write( "16  " )
f.write( str(ee) + "\n" )
f.write( MOL.save_string_xyz() )
f.close()
--------------------------------------------------------------------------

    Molecular point group: c1
  Charge       = 0
  Multiplicity = 1
  Basis Set: CC-PVTZ
  Basis Set:
  @DF-RHF Final Energy:  -344.71840193142765
    Total Energy =                       -344.7184019314279340
    Molecular point group: c1
  Basis Set: CC-PVTZ
  Basis Set:
  Basis Set: CC-PVTZ
  Basis Set:
  @DF-RHF Final Energy:  -344.71850944207472
    Total Energy =                       -344.7185094420750033
  Basis Set: CC-PVTZ
  Basis Set:
  Basis Set: CC-PVTZ
  Basis Set:
  @DF-RHF Final Energy:  -344.71852920493541
    Total Energy =                       -344.7185292049355212
  Basis Set: CC-PVTZ
  Basis Set:
  Basis Set: CC-PVTZ
  Basis Set:
  @DF-RHF Final Energy:  -344.71853184440005
    Total Energy =                       -344.7185318444001041
  Basis Set: CC-PVTZ
  Basis Set:
  Charge       = 0
  Multiplicity = 1
  Basis Set: CC-PVTZ
  Basis Set:

    Orbital Energies (a.u.)
    -----------------------

    Doubly Occupied:

       1A    -20.578818     2A    -11.288970     3A    -11.233780
       4A    -11.230113     5A    -11.228192     6A    -11.227193
       7A    -11.218596     8A    -11.218327     9A     -1.408157
      10A     -1.153579    11A     -1.051311    12A     -1.007808
      13A     -0.942560    14A     -0.828430    15A     -0.821742
      16A     -0.733597    17A     -0.679327    18A     -0.648688
      19A     -0.618957    20A     -0.600165    21A     -0.576940
      22A     -0.572555    23A     -0.554829    24A     -0.546393
      25A     -0.505014    26A     -0.486912    27A     -0.475967
      28A     -0.333585    29A     -0.312509

  @DF-RHF Final Energy:  -344.71853218460831

   => Energetics <=

    Nuclear Repulsion Energy =            350.9369129634632145
    One-Electron Energy =               -1163.1448605854691323
    Two-Electron Energy =                 467.4894154373973834
    DFT Exchange-Correlation Energy =       0.0000000000000000
    Empirical Dispersion Energy =           0.0000000000000000
    PCM Polarization Energy =               0.0000000000000000
    EFP Energy =                            0.0000000000000000
    Total Energy =                       -344.7185321846085344
    Molecular point group: c1
  Basis Set: CC-PVTZ
  Basis Set:

  -Total Gradient:
     Atom            X                  Y                   Z
    ------   -----------------  -----------------  -----------------
       1       -0.000011273997     0.000036084984     0.001670388380
       2       -0.000228107049    -0.000192982055    -0.001598659060
       3        0.000657793227     0.000544466224    -0.001125156971
       4       -0.000407718045    -0.000428583980     0.001058676714
       5       -0.000036594319     0.000033674147     0.000012311795
       6        0.000002582038     0.000001125034    -0.000011141759
       7        0.000000541967     0.000013956503     0.000006619226
       8        0.000031212091    -0.000014675004     0.000034498737
       9        0.000019595221     0.000006628606    -0.000043171264
      10        0.000002920719    -0.000009481416    -0.000004553550
      11       -0.000015755100    -0.000003153424    -0.000031052692
      12       -0.000000218380     0.000009069771    -0.000001260774
      13       -0.000006745552    -0.000001236890    -0.000004288024
      14       -0.000002677214     0.000009867432     0.000014362953
      15       -0.000014992172    -0.000007395458     0.000014732643
      16        0.000009436558     0.000002635530     0.000007693647

  **** Optimization is complete! (in 5 steps) ****
    Final optimized geometry and variables:
    Molecular point group: c1

    Geometry (in Angstrom), charge = 0, multiplicity = 1:

    H           -2.291201433985     1.141309690912     0.120374521483
    O           -1.463181019829     1.585407777072     0.118140691557
    C           -0.431466435296     0.704498337634     0.145260290030
    C            0.735007558654     1.114235576618     0.760349776695
    C           -0.530836168895    -0.553945768523    -0.436888350159
    H            0.769215978516     2.091250763549     1.201005376640
    C            1.828622459271     0.272961406422     0.794471220907
    C            0.577112689925    -1.382692547304    -0.378897622268
    C           -1.805674086885    -0.991299071446    -1.113242633309
    H            2.733899942001     0.598398293539     1.270318434459
    C            1.752909572841    -0.983039554108     0.226625078666
    H            0.518050679004    -2.358765148063    -0.823464056114
    H           -2.098283817636    -0.296587503104    -1.892820373916
    H           -1.684387947060    -1.965896085319    -1.564185075604
    H           -2.632580671100    -1.064883527012    -0.410980442288
    H            2.596976776609    -1.644523823544     0.252423614897

  Mulliken Charges: (a.u.)
   Center  Symbol    Alpha    Beta     Spin     Total
       1     H     0.38564  0.38564  0.00000  0.22871
       2     O     4.17841  4.17841  0.00000 -0.35681
       3     C     2.87758  2.87758  0.00000  0.24485
       4     C     3.11135  3.11135  0.00000 -0.22270
       5     C     3.00669  3.00669  0.00000 -0.01337
       6     H     0.41906  0.41906  0.00000  0.16189
       7     C     3.06776  3.06776  0.00000 -0.13552
       8     C     3.08651  3.08651  0.00000 -0.17302
       9     C     3.15916  3.15916  0.00000 -0.31832
      10     H     0.42244  0.42244  0.00000  0.15513
      11     C     3.08839  3.08839  0.00000 -0.17677
      12     H     0.42542  0.42542  0.00000  0.14915
      13     H     0.44241  0.44241  0.00000  0.11517
      14     H     0.44721  0.44721  0.00000  0.10557
      15     H     0.45719  0.45719  0.00000  0.08561
      16     H     0.42478  0.42478  0.00000  0.15043

   Total alpha = 29.00000, Total beta = 29.00000, Total charge = -0.00000
