  ==> Input File <==

--------------------------------------------------------------------------
set {
	reference rhf
	basis cc-pvtz
}

set_num_threads( 4 )
memory 2 gb

molecule MOL {
0 1

H	 0.939115	 -2.679183	 -0.019564
C	 0.551641	 -2.374616	 0.961637
C	 -0.713967	 -1.563659	 0.924449
O	 1.127371	 -2.684045	 1.946738
C	 -0.554654	 -0.292621	 0.086567
H	 -1.002833	 -1.331938	 1.941158
H	 -1.488875	 -2.189642	 0.486797
C	 -1.846385	 0.513195	 -0.016346
H	 0.223572	 0.327134	 0.522693
H	 -0.215401	 -0.555952	 -0.912050
C	 -3.089953	 -0.365049	 -0.098564
H	 -1.798267	 1.154820	 -0.891143
H	 -1.925398	 1.173265	 0.842889
H	 -3.055079	 -1.012299	 -0.968245
H	 -3.988403	 0.236438	 -0.170014
H	 -3.183055	 -0.995885	 0.779079

	symmetry c1
}
set optking {
	frozen_dihedral = ("
		9 5 8 12
	")
}

ee = optimize('scf')
oeprop('DIPOLE', 'QUADRUPOLE', 'MULLIKEN_CHARGES')
f=open( 'psi4out.xyz', 'w' )
f.write( "16  " )
f.write( str(ee) + "\n" )
f.write( MOL.save_string_xyz() )
f.close()
--------------------------------------------------------------------------

    Molecular point group: c1
  Charge       = 0
  Multiplicity = 1
  Basis Set: CC-PVTZ
  Basis Set:
  @DF-RHF Final Energy:  -270.11241857501659
    Total Energy =                       -270.1124185750167044
    Molecular point group: c1
  Basis Set: CC-PVTZ
  Basis Set:
  Basis Set: CC-PVTZ
  Basis Set:
  @DF-RHF Final Energy:  -270.11322955008325
    Total Energy =                       -270.1132295500834744
  Basis Set: CC-PVTZ
  Basis Set:
  Basis Set: CC-PVTZ
  Basis Set:
  @DF-RHF Final Energy:  -270.11460708721825
    Total Energy =                       -270.1146070872182463
  Basis Set: CC-PVTZ
  Basis Set:
  Basis Set: CC-PVTZ
  Basis Set:
  @DF-RHF Final Energy:  -270.11447283707639
    Total Energy =                       -270.1144728370762778
  Basis Set: CC-PVTZ
  Basis Set:
  @DF-RHF Final Energy:  -270.11468154155096
    Total Energy =                       -270.1146815415509650
  Basis Set: CC-PVTZ
  Basis Set:
  @DF-RHF Final Energy:  -270.11475343116319
    Total Energy =                       -270.1147534311631944
  Basis Set: CC-PVTZ
  Basis Set:
  Basis Set: CC-PVTZ
  Basis Set:
  @DF-RHF Final Energy:  -270.11475583357094
    Total Energy =                       -270.1147558335709391
  Basis Set: CC-PVTZ
  Basis Set:
  Basis Set: CC-PVTZ
  Basis Set:
  @DF-RHF Final Energy:  -270.11475851273531
    Total Energy =                       -270.1147585127353068
  Basis Set: CC-PVTZ
  Basis Set:
  Charge       = 0
  Multiplicity = 1
  Basis Set: CC-PVTZ
  Basis Set:

    Orbital Energies (a.u.)
    -----------------------

    Doubly Occupied:

       1A    -20.551481     2A    -11.320769     3A    -11.235285
       4A    -11.233049     5A    -11.228116     6A    -11.217546
       7A     -1.406270     8A     -1.096684     9A     -1.015926
      10A     -0.915984    11A     -0.809692    12A     -0.787972
      13A     -0.678704    14A     -0.652662    15A     -0.640776
      16A     -0.590225    17A     -0.577846    18A     -0.570327
      19A     -0.527494    20A     -0.520705    21A     -0.487898
      22A     -0.477638    23A     -0.471539    24A     -0.411672

  @DF-RHF Final Energy:  -270.11475912743219

   => Energetics <=

    Nuclear Repulsion Energy =            232.7836262557752320
    One-Electron Energy =                -826.9442510441381273
    Two-Electron Energy =                 324.0458656609306445
    DFT Exchange-Correlation Energy =       0.0000000000000000
    Empirical Dispersion Energy =           0.0000000000000000
    PCM Polarization Energy =               0.0000000000000000
    EFP Energy =                            0.0000000000000000
    Total Energy =                       -270.1147591274321940
    Molecular point group: c1
  Basis Set: CC-PVTZ
  Basis Set:

  -Total Gradient:
     Atom            X                  Y                   Z
    ------   -----------------  -----------------  -----------------
       1        0.000001925483     0.000006214319    -0.000001205077
       2        0.000009233468    -0.000004768669     0.000014759494
       3        0.000005015366     0.000067639806    -0.000023444497
       4       -0.000013780542    -0.000015500944    -0.000006836458
       5        0.001131004063     0.001315117102    -0.006844461006
       6       -0.000004584963    -0.000007277233     0.000006172887
       7        0.000008768007    -0.000018928180     0.000008730935
       8        0.002644182274     0.004306681591     0.004915239384
       9       -0.001388868027    -0.001797734657     0.005050227219
      10        0.000018750377     0.000014154627    -0.000011483403
      11        0.000004139038    -0.000016739694    -0.000008762523
      12       -0.002419108049    -0.003883836249    -0.003090910279
      13        0.000001920089     0.000032201939    -0.000010730938
      14       -0.000012055989     0.000004502433    -0.000007364695
      15        0.000000802529    -0.000000371806     0.000004969916
      16        0.000012656873    -0.000001354382     0.000005099040

  **** Optimization is complete! (in 9 steps) ****
    Final optimized geometry and variables:
    Molecular point group: c1

    Geometry (in Angstrom), charge = 0, multiplicity = 1:

    H            1.779366685925    -1.527641653458    -0.636820999855
    C            1.374480495115    -1.220694858492     0.336723824834
    C            0.059146696027    -0.495111897820     0.280227335487
    O            1.971403809652    -1.463440371882     1.328066670478
    C            0.163488053840     0.772556265672    -0.578757704855
    H           -0.245974295734    -0.262682235369     1.292508225768
    H           -0.667461940850    -1.180916460313    -0.145162372701
    C           -1.117549313496     1.618993151524    -0.629181958710
    H            0.953992853417     1.377526913606    -0.146404221087
    H            0.466904814656     0.500464416225    -1.584631981359
    C           -2.417976334613     0.827942199286    -0.768440323586
    H           -1.050888550656     2.269711890251    -1.494604301532
    H           -1.173660203434     2.249069259587     0.251314378985
    H           -2.390720227204     0.171882362953    -1.632850355895
    H           -3.254733814784     1.504019259917    -0.898267423776
    H           -2.624113804282     0.220308916553     0.104023385473

  Mulliken Charges: (a.u.)
   Center  Symbol    Alpha    Beta     Spin     Total
       1     H     0.46614  0.46614  0.00000  0.06772
       2     C     2.91127  2.91127  0.00000  0.17747
       3     C     3.07909  3.07909  0.00000 -0.15817
       4     O     4.16403  4.16403  0.00000 -0.32807
       5     C     3.10935  3.10935  0.00000 -0.21871
       6     H     0.44236  0.44236  0.00000  0.11529
       7     H     0.44775  0.44775  0.00000  0.10450
       8     C     3.08792  3.08792  0.00000 -0.17583
       9     H     0.44246  0.44246  0.00000  0.11507
      10     H     0.44856  0.44856  0.00000  0.10287
      11     C     3.15841  3.15841  0.00000 -0.31682
      12     H     0.44792  0.44792  0.00000  0.10416
      13     H     0.44771  0.44771  0.00000  0.10459
      14     H     0.45348  0.45348  0.00000  0.09303
      15     H     0.44287  0.44287  0.00000  0.11425
      16     H     0.45068  0.45068  0.00000  0.09865

   Total alpha = 24.00000, Total beta = 24.00000, Total charge = -0.00000
