  ==> Input File <==

--------------------------------------------------------------------------
set {
	reference rhf
	basis 6-31G*
}

set_num_threads( 4 )
memory 2 gb

molecule MOL {
0 1

O	 0.401677	 -0.394716	 -2.184405
C	 -0.079732	 -0.770588	 -1.165415
C	 -1.457863	 -1.355976	 -1.021738
O	 0.550821	 -0.724572	 0.000672
H	 -1.389400	 -2.357366	 -0.612818
H	 -1.942384	 -1.382013	 -1.986338
H	 -2.039070	 -0.757674	 -0.329774
C	 1.863949	 -0.193559	 -0.000319
H	 2.028859	 0.409284	 -0.881648
H	 2.526261	 -1.045082	 -0.000003
H	 2.029520	 0.410555	 0.880008

	symmetry c1
}
set optking {
	frozen_dihedral = ("
		2 4 8 9
	")
}

ee = optimize('scf')
oeprop('DIPOLE', 'QUADRUPOLE', 'MULLIKEN_CHARGES')
f=open( 'psi4out.xyz', 'w' )
f.write( "11  " )
f.write( str(ee) + "\n" )
f.write( MOL.save_string_xyz() )
f.close()
--------------------------------------------------------------------------

    Molecular point group: c1
  Charge       = 0
  Multiplicity = 1
  Basis Set: 6-31G*
  Basis Set:
  @DF-RHF Final Energy:  -266.83351986436799
    Total Energy =                       -266.8335198643679291
    Molecular point group: c1
  Basis Set: 6-31G*
  Basis Set:
  Basis Set: 6-31G*
  Basis Set:
  @DF-RHF Final Energy:  -266.83437691114591
    Total Energy =                       -266.8343769111457391
  Basis Set: 6-31G*
  Basis Set:
  Basis Set: 6-31G*
  Basis Set:
  @DF-RHF Final Energy:  -266.83457651292366
    Total Energy =                       -266.8345765129234906
  Basis Set: 6-31G*
  Basis Set:
  Basis Set: 6-31G*
  Basis Set:
  @DF-RHF Final Energy:  -266.83452100465661
    Total Energy =                       -266.8345210046567217
  Basis Set: 6-31G*
  Basis Set:
  Basis Set: 6-31G*
  Basis Set:
  @DF-RHF Final Energy:  -266.83476942896948
    Total Energy =                       -266.8347694289692527
  Basis Set: 6-31G*
  Basis Set:
  Basis Set: 6-31G*
  Basis Set:
  @DF-RHF Final Energy:  -266.83477136146689
    Total Energy =                       -266.8347713614667782
  Basis Set: 6-31G*
  Basis Set:
  Charge       = 0
  Multiplicity = 1
  Basis Set: 6-31G*
  Basis Set:

    Orbital Energies (a.u.)
    -----------------------

    Doubly Occupied:

       1A    -20.605056     2A    -20.545877     3A    -11.377555
       4A    -11.281007     5A    -11.234143     6A     -1.468955
       7A     -1.364901     8A     -1.035961     9A     -0.953382
      10A     -0.777472    11A     -0.696736    12A     -0.679060
      13A     -0.677008    14A     -0.597036    15A     -0.591225
      16A     -0.560678    17A     -0.527984    18A     -0.519841
      19A     -0.454986    20A     -0.442303

  @DF-RHF Final Energy:  -266.83477161236385

   => Energetics <=

    Nuclear Repulsion Energy =            182.9352010573312270
    One-Electron Energy =                -726.7576129163044243
    Two-Electron Energy =                 276.9876402466093737
    DFT Exchange-Correlation Energy =       0.0000000000000000
    Empirical Dispersion Energy =           0.0000000000000000
    PCM Polarization Energy =               0.0000000000000000
    EFP Energy =                            0.0000000000000000
    Total Energy =                       -266.8347716123637952
    Molecular point group: c1
  Basis Set: 6-31G*
  Basis Set:

  -Total Gradient:
     Atom            X                  Y                   Z
    ------   -----------------  -----------------  -----------------
       1        0.000000625651     0.000003927438     0.000020589308
       2       -0.000443784975     0.001038890858     0.000172256741
       3       -0.000010043624     0.000001193116     0.000001187978
       4        0.000788690698    -0.001820253962    -0.000472595325
       5        0.000000445714     0.000002110793     0.000000699974
       6       -0.000000885785     0.000001234979     0.000002240475
       7       -0.000004279527    -0.000000106763     0.000000331651
       8       -0.000779872262     0.001858180900     0.000932899982
       9        0.000458176987    -0.001078247554    -0.000669265789
      10       -0.000004186248    -0.000001462921     0.000002015148
      11       -0.000004886629    -0.000005466886     0.000009639861

  **** Optimization is complete! (in 7 steps) ****
    Final optimized geometry and variables:
    Molecular point group: c1

    Geometry (in Angstrom), charge = 0, multiplicity = 1:

    O            0.104040431172     0.271229254656    -1.341379763692
    C           -0.355642752762    -0.090017617700    -0.307436289022
    C           -1.736718728773    -0.660246242827    -0.131337261761
    O            0.290217955502    -0.043595626791     0.851358779079
    H           -1.669232738734    -1.659454889490     0.283061569622
    H           -2.241111692453    -0.688255145769    -1.085547685173
    H           -2.297413314026    -0.051690477554     0.568585765411
    C            1.602319313491     0.492525060803     0.883425527514
    H            1.786194350967     1.110776630899     0.020663861040
    H            2.314919573176    -0.321438590613     0.901491685201
    H            1.684325260991     1.066203342109     1.794338518359

  Mulliken Charges: (a.u.)
   Center  Symbol    Alpha    Beta     Spin     Total
       1     O     4.28181  4.28181  0.00000 -0.56362
       2     C     2.62212  2.62212  0.00000  0.75575
       3     C     3.28201  3.28201  0.00000 -0.56402
       4     O     4.30113  4.30113  0.00000 -0.60226
       5     H     0.39994  0.39994  0.00000  0.20012
       6     H     0.39677  0.39677  0.00000  0.20645
       7     H     0.40017  0.40017  0.00000  0.19965
       8     C     3.09709  3.09709  0.00000 -0.19417
       9     H     0.39588  0.39588  0.00000  0.20824
      10     H     0.41292  0.41292  0.00000  0.17416
      11     H     0.41015  0.41015  0.00000  0.17969

   Total alpha = 20.00000, Total beta = 20.00000, Total charge =  0.00000
