  ==> Input File <==

--------------------------------------------------------------------------
set {
	reference rhf
	basis 6-31G*
}

set_num_threads( 4 )
memory 2 gb

molecule MOL {
0 1

O	 0.501101	 0.382679	 0.979300
C	 1.122059	 0.121804	 -0.000188
C	 0.838840	 0.648784	 -1.385819
O	 2.172624	 -0.688929	 0.000216
C	 -0.362236	 1.587621	 -1.443635
H	 1.741363	 1.142134	 -1.736265
H	 0.699374	 -0.209536	 -2.037426
C	 -0.627114	 2.106388	 -2.857879
H	 -0.196989	 2.422852	 -0.770147
H	 -1.240436	 1.069353	 -1.071256
C	 -1.829656	 3.046799	 -2.925132
H	 0.256167	 2.624099	 -3.226482
H	 -0.789430	 1.265398	 -3.529042
H	 -1.682947	 3.915873	 -2.290435
H	 -1.995376	 3.400258	 -3.937989
H	 -2.736100	 2.547290	 -2.595753
C	 3.452279	 -0.082609	 0.000533
H	 3.583069	 0.529321	 -0.880332
H	 4.163299	 -0.894027	 0.001117
H	 3.582335	 0.529955	 0.881077

	symmetry c1
}
set optking {
	frozen_dihedral = ("
		1 2 4 17
	")
}

ee = optimize('scf')
oeprop('DIPOLE', 'QUADRUPOLE', 'MULLIKEN_CHARGES')
f=open( 'psi4out.xyz', 'w' )
f.write( "20  " )
f.write( str(ee) + "\n" )
f.write( MOL.save_string_xyz() )
f.close()
--------------------------------------------------------------------------

    Molecular point group: c1
  Charge       = 0
  Multiplicity = 1
  Basis Set: 6-31G*
  Basis Set:
  @DF-RHF Final Energy:  -383.91851657601251
    Total Energy =                       -383.9185165760122800
    Molecular point group: c1
  Basis Set: 6-31G*
  Basis Set:
  Basis Set: 6-31G*
  Basis Set:
  @DF-RHF Final Energy:  -383.91687082599896
    Total Energy =                       -383.9168708259989558
  Basis Set: 6-31G*
  Basis Set:
  Basis Set: 6-31G*
  Basis Set:
  @DF-RHF Final Energy:  -383.91970151543819
    Total Energy =                       -383.9197015154384189
  Basis Set: 6-31G*
  Basis Set:
  Basis Set: 6-31G*
  Basis Set:
  @DF-RHF Final Energy:  -383.92062017063370
    Total Energy =                       -383.9206201706333559
  Basis Set: 6-31G*
  Basis Set:
  Basis Set: 6-31G*
  Basis Set:
  @DF-RHF Final Energy:  -383.92065273104390
    Total Energy =                       -383.9206527310443562
  Basis Set: 6-31G*
  Basis Set:
  Basis Set: 6-31G*
  Basis Set:
  @DF-RHF Final Energy:  -383.92065848045877
    Total Energy =                       -383.9206584804591103
  Basis Set: 6-31G*
  Basis Set:
  Basis Set: 6-31G*
  Basis Set:
  @DF-RHF Final Energy:  -383.92065958217006
    Total Energy =                       -383.9206595821701740
  Basis Set: 6-31G*
  Basis Set:
  Charge       = 0
  Multiplicity = 1
  Basis Set: 6-31G*
  Basis Set:

    Orbital Energies (a.u.)
    -----------------------

    Doubly Occupied:

       1A    -20.585960     2A    -20.557054     3A    -11.375296
       4A    -11.292982     5A    -11.240766     6A    -11.223330
       7A    -11.222638     8A    -11.212881     9A     -1.458672
      10A     -1.367802    11A     -1.090495    12A     -1.018617
      13A     -0.972698    14A     -0.897320    15A     -0.808224
      16A     -0.766086    17A     -0.696088    18A     -0.678637
      19A     -0.674861    20A     -0.644720    21A     -0.617133
      22A     -0.590061    23A     -0.589860    24A     -0.550384
      25A     -0.538289    26A     -0.514379    27A     -0.493673
      28A     -0.489144    29A     -0.479985    30A     -0.473165
      31A     -0.451849    32A     -0.433878

  @DF-RHF Final Energy:  -383.92065972686748

   => Energetics <=

    Nuclear Repulsion Energy =            381.4320574959828036
    One-Electron Energy =               -1278.6915767290774966
    Two-Electron Energy =                 513.3388595062273225
    DFT Exchange-Correlation Energy =       0.0000000000000000
    Empirical Dispersion Energy =           0.0000000000000000
    PCM Polarization Energy =               0.0000000000000000
    EFP Energy =                            0.0000000000000000
    Total Energy =                       -383.9206597268673704
    Molecular point group: c1
  Basis Set: 6-31G*
  Basis Set:

  -Total Gradient:
     Atom            X                  Y                   Z
    ------   -----------------  -----------------  -----------------
       1       -0.000901978209    -0.001358100957    -0.000391688085
       2        0.001310542165     0.002112194108    -0.000059946360
       3        0.000048506902    -0.000023742528    -0.000022970392
       4       -0.000441451024    -0.000782795495     0.001801842080
       5        0.000013603876    -0.000011082512    -0.000001082956
       6       -0.000011768785    -0.000011029188     0.000011464172
       7       -0.000001859000     0.000001942529    -0.000011142859
       8       -0.000027389209    -0.000013727523     0.000009844105
       9       -0.000019068780     0.000001892717     0.000007530671
      10        0.000007168954    -0.000003191976    -0.000010361769
      11        0.000012556658     0.000028510612    -0.000019770068
      12       -0.000003863158    -0.000013631075    -0.000003125884
      13       -0.000014683615     0.000002659162    -0.000002497792
      14       -0.000005322350    -0.000003643447     0.000004571105
      15       -0.000006305905     0.000018269943    -0.000002068274
      16        0.000009989857    -0.000004572223    -0.000007105029
      17        0.000014151561     0.000062223059    -0.001298520028
      18       -0.000021676645    -0.000005940232     0.000001602793
      19        0.000005723414    -0.000010984189    -0.000000152728
      20        0.000033123294     0.000014749221    -0.000006422709

  **** Optimization is complete! (in 8 steps) ****
    Final optimized geometry and variables:
    Molecular point group: c1

    Geometry (in Angstrom), charge = 0, multiplicity = 1:

    O           -0.187265213209    -0.549324400080     1.866955022983
    C            0.462168238979    -0.751007781591     0.901262012732
    C            0.144765729214    -0.217426610810    -0.476355194181
    O            1.533302540069    -1.579079660569     0.936983448829
    C           -1.053007798338     0.726974422680    -0.509824691009
    H            1.032376424089     0.269444575833    -0.872146625964
    H           -0.019878643178    -1.083732910219    -1.112788246184
    C           -1.357711058383     1.233137741634    -1.920640939728
    H           -0.864767209357     1.568826836462     0.150008867229
    H           -1.920691662693     0.215684444984    -0.105881854412
    C           -2.555008776694     2.181778650290    -1.960736768033
    H           -0.482804302783     1.740554572989    -2.322465565770
    H           -1.546930738337     0.386262096105    -2.577077598786
    H           -2.382962071887     3.055973839273    -1.339563011290
    H           -2.748942829713     2.526444407058    -2.971573346918
    H           -3.454299225617     1.692045293681    -1.598984574034
    C            2.811855158540    -0.991306243227     1.032712098699
    H            3.035314591094    -0.378794983737     0.166064840274
    H            3.519407064609    -1.804164136384     1.081711098748
    H            2.890721214552    -0.391715391948     1.931833645226

  Mulliken Charges: (a.u.)
   Center  Symbol    Alpha    Beta     Spin     Total
       1     O     4.25044  4.25044  0.00000 -0.50087
       2     C     2.61360  2.61360  0.00000  0.77280
       3     C     3.21559  3.21559  0.00000 -0.43117
       4     O     4.31505  4.31505  0.00000 -0.63011
       5     C     3.15100  3.15100  0.00000 -0.30200
       6     H     0.40823  0.40823  0.00000  0.18353
       7     H     0.39778  0.39778  0.00000  0.20444
       8     C     3.15424  3.15424  0.00000 -0.30849
       9     H     0.41378  0.41378  0.00000  0.17244
      10     H     0.40896  0.40896  0.00000  0.18208
      11     C     3.23945  3.23945  0.00000 -0.47889
      12     H     0.42398  0.42398  0.00000  0.15204
      13     H     0.42217  0.42217  0.00000  0.15565
      14     H     0.42007  0.42007  0.00000  0.15987
      15     H     0.41839  0.41839  0.00000  0.16323
      16     H     0.41913  0.41913  0.00000  0.16174
      17     C     3.09266  3.09266  0.00000 -0.18532
      18     H     0.42259  0.42259  0.00000  0.15482
      19     H     0.40177  0.40177  0.00000  0.19645
      20     H     0.41111  0.41111  0.00000  0.17778

   Total alpha = 32.00000, Total beta = 32.00000, Total charge =  0.00000
