                              Psi4 1.0.54 Driver

  ==> Input File <==

--------------------------------------------------------------------------
set {
	reference rhf
	basis cc-pvtz
}

set_num_threads( 4 )
memory 2 gb

molecule MOL {
0 1

H	 3.618404	 0.660029	 1.041528
N	 2.794565	 0.097090	 1.043996
C	 1.860978	 0.530248	 0.016256
H	 2.386627	 0.176094	 1.952123
C	 0.644130	 -0.381765	 -0.031064
H	 2.375960	 0.489282	 -0.937695
H	 1.531445	 1.561515	 0.149862
C	 -0.678115	 0.376691	 0.025731
H	 0.693998	 -0.977147	 -0.936845
H	 0.693309	 -1.082142	 0.800523
C	 -1.900706	 -0.535531	 -0.022488
H	 -0.725296	 1.079516	 -0.802982
H	 -0.715474	 0.974884	 0.933278
C	 -3.220513	 0.226854	 0.028039
H	 -1.865036	 -1.134397	 -0.928236
H	 -1.857948	 -1.236381	 0.806820
H	 -3.309098	 0.911849	 -0.808725
H	 -4.066838	 -0.449485	 -0.008086
H	 -3.301685	 0.809374	 0.939860

	symmetry c1
}
set optking {
	frozen_dihedral = ("
		6 3 5 9
	")
}

ee,wfn = optimize('scf', return_wfn=True)
oeprop( wfn, 'DIPOLE', 'QUADRUPOLE', 'MULLIKEN_CHARGES')
f=open( 'psi4out.xyz', 'w' )
f.write( "19  " )
f.write( str(ee) + "\n" )
f.write( MOL.save_string_xyz() )
f.close()
--------------------------------------------------------------------------

    Molecular point group: c1
  Charge       = 0
  Multiplicity = 1
  Basis Set: CC-PVTZ
  Basis Set:
  @DF-RHF Final Energy:  -251.44190566819077
    Total Energy =                       -251.4419056681908842
    Molecular point group: c1
  Basis Set: CC-PVTZ
  Basis Set:
  Basis Set: CC-PVTZ
  Basis Set:
  @DF-RHF Final Energy:  -251.44224654624233
    Total Energy =                       -251.4422465462423588
  Basis Set: CC-PVTZ
  Basis Set:
  Basis Set: CC-PVTZ
  Basis Set:
  @DF-RHF Final Energy:  -251.44234431099605
    Total Energy =                       -251.4423443109959635
  Basis Set: CC-PVTZ
  Basis Set:
  Basis Set: CC-PVTZ
  Basis Set:
  @DF-RHF Final Energy:  -251.44234538137110
    Total Energy =                       -251.4423453813709557
  Basis Set: CC-PVTZ
  Basis Set:
  Charge       = 0
  Multiplicity = 1
  Basis Set: CC-PVTZ
  Basis Set:

    Orbital Energies (a.u.)
    -----------------------

    Doubly Occupied:

       1A    -15.526477     2A    -11.238163     3A    -11.211969
       4A    -11.210853     5A    -11.207678     6A    -11.205903
       7A     -1.176851     8A     -1.073810     9A     -0.997760
      10A     -0.901160    11A     -0.814907    12A     -0.789067
      13A     -0.668759    14A     -0.637458    15A     -0.620172
      16A     -0.583642    17A     -0.568933    18A     -0.549080
      19A     -0.529447    20A     -0.503033    21A     -0.483722
      22A     -0.465298    23A     -0.461112    24A     -0.445491
      25A     -0.382701

  @DF-RHF Final Energy:  -251.44234598258294

   => Energetics <=

    Nuclear Repulsion Energy =            246.3288339250671584
    One-Electron Energy =                -827.0354696163988137
    Two-Electron Energy =                 329.2642897087487199
    DFT Exchange-Correlation Energy =       0.0000000000000000
    Empirical Dispersion Energy =           0.0000000000000000
    PCM Polarization Energy =               0.0000000000000000
    EFP Energy =                            0.0000000000000000
    Total Energy =                       -251.4423459825829923
    Molecular point group: c1
  Basis Set: CC-PVTZ
  Basis Set:

  -Total Gradient:
     Atom            X                  Y                   Z
    ------   -----------------  -----------------  -----------------
       1        0.000035349244    -0.000002345970     0.000024619327
       2       -0.000000358152     0.000024855161    -0.000060651872
       3       -0.001801720630     0.002399402911    -0.001109095225
       4       -0.000018709449     0.000010802258    -0.000037037139
       5        0.001646768842    -0.002284171110     0.001460663049
       6        0.001222877554    -0.001685277852     0.000750529243
       7       -0.000002799879    -0.000019991041     0.000000985865
       8        0.000029308293    -0.000009993538     0.000036793237
       9       -0.001085570025     0.001552701705    -0.001072378815
      10        0.000000680819     0.000019306758     0.000003447489
      11        0.000004023890     0.000007144605     0.000005295124
      12        0.000020032437    -0.000003857963     0.000004818708
      13       -0.000011892837     0.000000361908    -0.000000335028
      14       -0.000025263919    -0.000013106957    -0.000002457205
      15        0.000001991759    -0.000003265784     0.000003479244
      16       -0.000007087682     0.000006090935    -0.000004642571
      17        0.000001738551    -0.000002539176     0.000002156685
      18       -0.000011689417     0.000008395128    -0.000002114603
      19        0.000002320599    -0.000004511980    -0.000004075513

  **** Optimization is complete! (in 5 steps) ****
    Final optimized geometry and variables:
    Molecular point group: c1

    Geometry (in Angstrom), charge = 0, multiplicity = 1:

    H            3.704090263624     0.596072063159     0.822906646176
    N            2.881917322265     0.030042631602     0.837605418786
    C            1.926435919481     0.472210035714    -0.170322877084
    H            2.491071805379     0.104335492278     1.753894383932
    C            0.693034526064    -0.446545626020    -0.208547378027
    H            2.440763399113     0.436191078447    -1.122774289760
    H            1.608479565389     1.502839441926    -0.018935304613
    C           -0.633143350050     0.310067965906    -0.168116849161
    H            0.716355869242    -1.051840819493    -1.108556088144
    H            0.743690802242    -1.135937181182     0.626841866463
    C           -1.853452804637    -0.603790481901    -0.223612909664
    H           -0.674296423145     1.011444438454    -0.998619018180
    H           -0.676755232346     0.912200582539     0.737151398930
    C           -3.175377489399     0.155481624832    -0.178700141261
    H           -1.812420038751    -1.201600596173    -1.130025590817
    H           -1.813011075606    -1.306080074871     0.604616099387
    H           -3.261020328467     0.841905723384    -1.014613907147
    H           -4.020089072004    -0.522571268296    -0.220497873181
    H           -3.262663899980     0.736047152031     0.733782919016

  Mulliken Charges: (a.u.)
   Center  Symbol    Alpha    Beta     Spin     Total
       1     H     0.42978  0.42978  0.00000  0.14043
       2     N     3.68839  3.68839  0.00000 -0.37678
       3     C     3.03477  3.03477  0.00000 -0.06955
       4     H     0.43107  0.43107  0.00000  0.13786
       5     C     3.09100  3.09100  0.00000 -0.18200
       6     H     0.45494  0.45494  0.00000  0.09013
       7     H     0.46511  0.46511  0.00000  0.06979
       8     C     3.08964  3.08964  0.00000 -0.17929
       9     H     0.45137  0.45137  0.00000  0.09726
      10     H     0.44921  0.44921  0.00000  0.10158
      11     C     3.08510  3.08510  0.00000 -0.17021
      12     H     0.45510  0.45510  0.00000  0.08980
      13     H     0.45668  0.45668  0.00000  0.08664
      14     C     3.14957  3.14957  0.00000 -0.29914
      15     H     0.45435  0.45435  0.00000  0.09129
      16     H     0.45436  0.45436  0.00000  0.09128
      17     H     0.45541  0.45541  0.00000  0.08918
      18     H     0.44851  0.44851  0.00000  0.10298
      19     H     0.45563  0.45563  0.00000  0.08874

   Total alpha = 25.00000, Total beta = 25.00000, Total charge = -0.00000

*** Psi4 exiting successfully. Buy a developer a beer!
