  ==> Input File <==

--------------------------------------------------------------------------
set {
	reference rhf
	basis cc-pvtz
}

set_num_threads( 4 )
memory 2 gb

molecule MOL {
0 1

H	 -2.498963	 -0.741158	 -0.729149
O	 -2.346257	 -0.289210	 0.080372
C	 -1.183935	 0.486039	 -0.009831
C	 0.062853	 -0.375310	 0.027457
H	 -1.178881	 1.094526	 -0.908634
H	 -1.184406	 1.155156	 0.838676
O	 -0.271627	 -1.647655	 -0.420553
H	 0.454855	 -0.418796	 1.044973
H	 0.831794	 0.070896	 -0.599604
C	 0.790375	 -2.542666	 -0.468798
H	 1.228087	 -2.693427	 0.515556
H	 0.410926	 -3.487543	 -0.829232
H	 1.570500	 -2.197480	 -1.143165

	symmetry c1
}
set optking {
	frozen_dihedral = ("
		8 4 3 5
	")
}

ee = optimize('scf')
oeprop('DIPOLE', 'QUADRUPOLE', 'MULLIKEN_CHARGES')
f=open( 'psi4out.xyz', 'w' )
f.write( "13  " )
f.write( str(ee) + "\n" )
f.write( MOL.save_string_xyz() )
f.close()
--------------------------------------------------------------------------

    Molecular point group: c1
  Charge       = 0
  Multiplicity = 1
  Basis Set: CC-PVTZ
  Basis Set:
  @DF-RHF Final Energy:  -268.05476063436873
    Total Energy =                       -268.0547606343690177
    Molecular point group: c1
  Basis Set: CC-PVTZ
  Basis Set:
  Basis Set: CC-PVTZ
  Basis Set:
  @DF-RHF Final Energy:  -268.05714134887285
    Total Energy =                       -268.0571413488726762
  Basis Set: CC-PVTZ
  Basis Set:
  Basis Set: CC-PVTZ
  Basis Set:
  @DF-RHF Final Energy:  -268.05881339092070
    Total Energy =                       -268.0588133909208182
  Basis Set: CC-PVTZ
  Basis Set:
  Basis Set: CC-PVTZ
  Basis Set:
  @DF-RHF Final Energy:  -268.05920375243392
    Total Energy =                       -268.0592037524342572
  Basis Set: CC-PVTZ
  Basis Set:
  Basis Set: CC-PVTZ
  Basis Set:
  @DF-RHF Final Energy:  -268.05925152806003
    Total Energy =                       -268.0592515280599173
  Basis Set: CC-PVTZ
  Basis Set:
  Charge       = 0
  Multiplicity = 1
  Basis Set: CC-PVTZ
  Basis Set:

    Orbital Energies (a.u.)
    -----------------------

    Doubly Occupied:

       1A    -20.565735     2A    -20.538947     3A    -11.275368
       4A    -11.274299     5A    -11.266934     6A     -1.403216
       7A     -1.356984     8A     -1.019102     9A     -0.927105
      10A     -0.836646    11A     -0.703333    12A     -0.685787
      13A     -0.672798    14A     -0.635046    15A     -0.594647
      16A     -0.577051    17A     -0.547276    18A     -0.498049
      19A     -0.478494    20A     -0.445046    21A     -0.419570

  @DF-RHF Final Energy:  -268.05925725128338

   => Energetics <=

    Nuclear Repulsion Energy =            195.0934260733001793
    One-Electron Energy =                -752.8624947805508327
    Two-Electron Energy =                 289.7098114559671558
    DFT Exchange-Correlation Energy =       0.0000000000000000
    Empirical Dispersion Energy =           0.0000000000000000
    PCM Polarization Energy =               0.0000000000000000
    EFP Energy =                            0.0000000000000000
    Total Energy =                       -268.0592572512834977
    Molecular point group: c1
  Basis Set: CC-PVTZ
  Basis Set:

  -Total Gradient:
     Atom            X                  Y                   Z
    ------   -----------------  -----------------  -----------------
       1        0.000018140191     0.000017465441     0.000005976933
       2        0.000083639719     0.000009422402     0.000005270824
       3       -0.003446631998    -0.005451292228    -0.005373140704
       4       -0.005113505600    -0.006589931485     0.002305817776
       5        0.003788348064     0.005579871576     0.003999005949
       6        0.000002227371    -0.000016421069     0.000063825606
       7        0.000004896987     0.000032334025     0.000047729248
       8        0.004704484983     0.006282558625    -0.001055447290
       9        0.000018721430     0.000074296741    -0.000006444740
      10        0.000007382636    -0.000000006866    -0.000005089614
      11       -0.000012795805     0.000010947759     0.000009971542
      12       -0.000037183931     0.000041348159     0.000002933547
      13       -0.000017724053     0.000009406919    -0.000000409075

  **** Optimization is complete! (in 6 steps) ****
    Final optimized geometry and variables:
    Molecular point group: c1

    Geometry (in Angstrom), charge = 0, multiplicity = 1:

    H           -1.691021883639    -0.129463393788    -0.225732750444
    O           -1.776162379820     0.686721554200     0.235122005097
    C           -0.573847050147     1.377289980835     0.144890115718
    C            0.657160759636     0.471325075152     0.233350546332
    H           -0.515313199454     1.994429824954    -0.748206793673
    H           -0.542587047455     2.071182133383     0.976652922922
    O            0.356618540930    -0.774304576152    -0.305729031736
    H            1.015958900912     0.397054986003     1.257862047988
    H            1.467886931284     0.934413570522    -0.328641273375
    C            1.407293327578    -1.685896730934    -0.289365774191
    H            1.744234115311    -1.879880648961     0.725478581867
    H            1.050498687757    -2.608648547524    -0.722317295344
    H            2.251131730989    -1.326541028874    -0.872728752935

  Mulliken Charges: (a.u.)
   Center  Symbol    Alpha    Beta     Spin     Total
       1     H     0.38303  0.38303  0.00000  0.23394
       2     O     4.20547  4.20547  0.00000 -0.41094
       3     C     2.95837  2.95837  0.00000  0.08325
       4     C     2.96890  2.96890  0.00000  0.06219
       5     H     0.47602  0.47602  0.00000  0.04795
       6     H     0.46611  0.46611  0.00000  0.06777
       7     O     4.18193  4.18193  0.00000 -0.36385
       8     H     0.47312  0.47312  0.00000  0.05377
       9     H     0.47459  0.47459  0.00000  0.05082
      10     C     3.03023  3.03023  0.00000 -0.06047
      11     H     0.46779  0.46779  0.00000  0.06442
      12     H     0.44607  0.44607  0.00000  0.10787
      13     H     0.46836  0.46836  0.00000  0.06328

   Total alpha = 21.00000, Total beta = 21.00000, Total charge =  0.00000
