  ==> Input File <==

--------------------------------------------------------------------------
set {
	reference rhf
	basis 6-31G*
}

set_num_threads( 4 )
memory 2 gb

molecule MOL {
0 1

O	 1.641662	 -0.278553	 -0.730430
C	 0.861134	 0.272526	 -0.014869
C	 -0.623889	 -0.118271	 -0.003699
C	 1.336924	 1.386336	 0.901131
C	 -0.895332	 -1.256461	 -1.002431
C	 -1.473649	 1.103340	 -0.370799
C	 -0.983900	 -0.581483	 1.422328
H	 -0.615301	 -0.972064	 -2.012700
H	 -1.954261	 -1.493213	 -1.010207
H	 -0.360539	 -2.164946	 -0.747760
H	 -1.227476	 1.468527	 -1.361691
H	 -2.526716	 0.838935	 -0.358521
H	 -1.314819	 1.915855	 0.325860
H	 -2.039679	 -0.828001	 1.472951
H	 -0.427637	 -1.464071	 1.720694
H	 -0.789023	 0.202493	 2.147048
H	 1.453942	 1.000126	 1.909401
H	 2.299417	 1.734431	 0.552484
H	 0.641948	 2.215780	 0.948606

	symmetry c1
}
set optking {
	frozen_dihedral = ("
		1 2 3 5
	")
}

ee = optimize('scf')
oeprop('DIPOLE', 'QUADRUPOLE', 'MULLIKEN_CHARGES')
f=open( 'psi4out.xyz', 'w' )
f.write( "19  " )
f.write( str(ee) + "\n" )
f.write( MOL.save_string_xyz() )
f.close()
--------------------------------------------------------------------------

    Molecular point group: c1
  Charge       = 0
  Multiplicity = 1
  Basis Set: 6-31G*
  Basis Set:
  @DF-RHF Final Energy:  -309.06162572543633
    Total Energy =                       -309.0616257254367838
    Molecular point group: c1
  Basis Set: 6-31G*
  Basis Set:
  Basis Set: 6-31G*
  Basis Set:
  @DF-RHF Final Energy:  -309.06074174171761
    Total Energy =                       -309.0607417417174929
  Basis Set: 6-31G*
  Basis Set:
  Basis Set: 6-31G*
  Basis Set:
  @DF-RHF Final Energy:  -309.06089279953869
    Total Energy =                       -309.0608927995388058
  Basis Set: 6-31G*
  Basis Set:
  Basis Set: 6-31G*
  Basis Set:
  @DF-RHF Final Energy:  -309.06265554023003
    Total Energy =                       -309.0626555402299687
  Basis Set: 6-31G*
  Basis Set:
  @DF-RHF Final Energy:  -309.06256993403429
    Total Energy =                       -309.0625699340346273
  @DF-RHF Final Energy:  -309.06272834813655
    Total Energy =                       -309.0627283481363747
  @DF-RHF Final Energy:  -309.06273603097623
    Total Energy =                       -309.0627360309761684
  Basis Set: 6-31G*
  Basis Set:
  @DF-RHF Final Energy:  -309.06273801859703
    Total Energy =                       -309.0627380185972015
  Basis Set: 6-31G*
  Basis Set:
  Basis Set: 6-31G*
  Basis Set:
  @DF-RHF Final Energy:  -309.06274002660223
    Total Energy =                       -309.0627400266023983
  Basis Set: 6-31G*
  Basis Set:
  Basis Set: 6-31G*
  Basis Set:
  @DF-RHF Final Energy:  -309.06274112758450
    Total Energy =                       -309.0627411275842746
  Basis Set: 6-31G*
  Basis Set:
  Charge       = 0
  Multiplicity = 1
  Basis Set: 6-31G*
  Basis Set:

    Orbital Energies (a.u.)
    -----------------------

    Doubly Occupied:

       1A    -20.548257     2A    -11.322776     3A    -11.246547
       4A    -11.226403     5A    -11.225009     6A    -11.224478
       7A    -11.207668     8A     -1.394619     9A     -1.109568
      10A     -1.001332    11A     -0.947284    12A     -0.934385
      13A     -0.835335    14A     -0.703512    15A     -0.664413
      16A     -0.631245    17A     -0.618867    18A     -0.599202
      19A     -0.593100    20A     -0.564707    21A     -0.546179
      22A     -0.543506    23A     -0.523052    24A     -0.512624
      25A     -0.497701    26A     -0.471077    27A     -0.467296
      28A     -0.392836

  @DF-RHF Final Energy:  -309.06274127694388

   => Energetics <=

    Nuclear Repulsion Energy =            326.1956672086924414
    One-Electron Energy =               -1065.4108676434104837
    Two-Electron Energy =                 430.1524591577741603
    DFT Exchange-Correlation Energy =       0.0000000000000000
    Empirical Dispersion Energy =           0.0000000000000000
    PCM Polarization Energy =               0.0000000000000000
    EFP Energy =                            0.0000000000000000
    Total Energy =                       -309.0627412769439388
    Molecular point group: c1
  Basis Set: 6-31G*
  Basis Set:

  -Total Gradient:
     Atom            X                  Y                   Z
    ------   -----------------  -----------------  -----------------
       1        0.000294682143    -0.001019484575     0.001122550155
       2       -0.000473578507     0.001688437699    -0.001832348628
       3        0.000394679044    -0.001389570351     0.001504526809
       4       -0.000001687173     0.000000090751    -0.000007864433
       5       -0.000207092327     0.000727026615    -0.000784242594
       6       -0.000009534343     0.000011545057     0.000001043066
       7       -0.000004885319     0.000005147301    -0.000011869047
       8       -0.000001421455    -0.000001739193    -0.000004673979
       9        0.000000637572    -0.000000781206    -0.000000485411
      10       -0.000002736893    -0.000000731194     0.000000617470
      11        0.000002523184    -0.000003937326     0.000001718786
      12        0.000000775985    -0.000003058244    -0.000000076437
      13        0.000001514886    -0.000005339869    -0.000001658891
      14       -0.000000511277    -0.000001660310     0.000003526613
      15       -0.000001629837     0.000001449022     0.000000152602
      16       -0.000000361359    -0.000000351022     0.000005375930
      17        0.000003025939    -0.000001360886     0.000004154503
      18        0.000001736492     0.000000917667     0.000002428783
      19        0.000003863245    -0.000006599937    -0.000002875296

  **** Optimization is complete! (in 11 steps) ****
    Final optimized geometry and variables:
    Molecular point group: c1

    Geometry (in Angstrom), charge = 0, multiplicity = 1:

    O            1.646049317772    -0.363767328934    -0.782066633548
    C            0.878488733155     0.197687989248    -0.060432195292
    C           -0.608404855569    -0.183898109814    -0.021895728022
    C            1.393708912141     1.272136764567     0.882628056240
    C           -0.863577774745    -1.325906439281    -1.011312430673
    C           -1.466214927981     1.031418746736    -0.425926989342
    C           -0.980937621867    -0.630526891078     1.403523077868
    H           -0.608966591343    -1.032408320215    -2.022210377444
    H           -1.912477770256    -1.606128991475    -0.989504947687
    H           -0.271629015999    -2.199260286329    -0.766381710592
    H           -1.180977955248     1.406068721824    -1.404446623918
    H           -2.510356368370     0.740177308291    -0.476161553484
    H           -1.391197611131     1.847779569404     0.283439432998
    H           -2.020913741226    -0.939144622979     1.432832942510
    H           -0.376319075515    -1.474413977345     1.722377739463
    H           -0.856212521207     0.167768765139     2.127623311568
    H            1.607242374750     0.820213291836     1.847139066386
    H            2.317818067642     1.667842929640     0.484072971086
    H            0.689796106707     2.077439029023     1.045602886795

  Mulliken Charges: (a.u.)
   Center  Symbol    Alpha    Beta     Spin     Total
       1     O     4.26363  4.26363  0.00000 -0.52726
       2     C     2.72597  2.72597  0.00000  0.54807
       3     C     3.07088  3.07088  0.00000 -0.14175
       4     C     3.28793  3.28793  0.00000 -0.57586
       5     C     3.22522  3.22522  0.00000 -0.45043
       6     C     3.24143  3.24143  0.00000 -0.48287
       7     C     3.24199  3.24199  0.00000 -0.48399
       8     H     0.41103  0.41103  0.00000  0.17795
       9     H     0.42413  0.42413  0.00000  0.15174
      10     H     0.41119  0.41119  0.00000  0.17762
      11     H     0.41245  0.41245  0.00000  0.17509
      12     H     0.41292  0.41292  0.00000  0.17416
      13     H     0.41825  0.41825  0.00000  0.16349
      14     H     0.41298  0.41298  0.00000  0.17403
      15     H     0.41288  0.41288  0.00000  0.17424
      16     H     0.41704  0.41704  0.00000  0.16592
      17     H     0.40313  0.40313  0.00000  0.19374
      18     H     0.39624  0.39624  0.00000  0.20752
      19     H     0.41071  0.41071  0.00000  0.17858

   Total alpha = 28.00000, Total beta = 28.00000, Total charge = -0.00000
