  ==> Input File <==

--------------------------------------------------------------------------
set {
	reference rhf
	basis 6-31G*
}

set_num_threads( 4 )
memory 2 gb

molecule MOL {
0 1

H	 2.866480	 -0.465706	 0.876907
C	 2.405773	 -0.024801	 0.000000
N	 0.988830	 -0.304158	 0.000000
H	 2.866480	 -0.465706	 -0.876907
H	 2.629928	 1.045948	 0.000000
C	 0.670685	 -1.551075	 -0.670782
C	 0.209515	 0.788050	 -0.552919
H	 0.966727	 -1.528369	 -1.724510
H	 1.214389	 -2.359839	 -0.192731
C	 -0.822648	 -1.817906	 -0.577254
H	 0.415530	 1.692099	 0.011437
H	 0.471952	 0.981207	 -1.598058
C	 -1.271588	 0.459188	 -0.462517
H	 -1.091137	 -2.697321	 -1.147832
H	 -1.099768	 -1.980731	 0.462776
O	 -1.556191	 -0.750093	 -1.107957
H	 -1.863894	 1.222224	 -0.950336
H	 -1.569830	 0.403497	 0.582912

	symmetry c1
}
set optking {
	frozen_dihedral = ("
		6 3 2 5
	")
}

ee = optimize('scf')
oeprop('DIPOLE', 'QUADRUPOLE', 'MULLIKEN_CHARGES')
f=open( 'psi4out.xyz', 'w' )
f.write( "18  " )
f.write( str(ee) + "\n" )
f.write( MOL.save_string_xyz() )
f.close()
--------------------------------------------------------------------------

    Molecular point group: c1
  Charge       = 0
  Multiplicity = 1
  Basis Set: 6-31G*
  Basis Set:
  @DF-RHF Final Energy:  -325.02412315470116
    Total Energy =                       -325.0241231547006464
    Molecular point group: c1
  Basis Set: 6-31G*
  Basis Set:
  Basis Set: 6-31G*
  Basis Set:
  @DF-RHF Final Energy:  -325.02487150681810
    Total Energy =                       -325.0248715068180445
  Basis Set: 6-31G*
  Basis Set:
  Basis Set: 6-31G*
  Basis Set:
  @DF-RHF Final Energy:  -325.02498505521066
    Total Energy =                       -325.0249850552104931
  Basis Set: 6-31G*
  Basis Set:
  Basis Set: 6-31G*
  Basis Set:
  @DF-RHF Final Energy:  -325.02498752507438
    Total Energy =                       -325.0249875250744935
  Basis Set: 6-31G*
  Basis Set:
  Charge       = 0
  Multiplicity = 1
  Basis Set: 6-31G*
  Basis Set:

    Orbital Energies (a.u.)
    -----------------------

    Doubly Occupied:

       1A    -20.553611     2A    -15.548618     3A    -11.265775
       4A    -11.265751     5A    -11.244142     6A    -11.243879
       7A    -11.240957     8A     -1.383087     9A     -1.229963
      10A     -1.037919    11A     -0.980588    12A     -0.882102
      13A     -0.869570    14A     -0.775178    15A     -0.683152
      16A     -0.644036    17A     -0.642906    18A     -0.632126
      19A     -0.627895    20A     -0.571058    21A     -0.557961
      22A     -0.544130    23A     -0.526691    24A     -0.500826
      25A     -0.482512    26A     -0.451797    27A     -0.407337
      28A     -0.352574

  @DF-RHF Final Energy:  -325.02498807052120

   => Energetics <=

    Nuclear Repulsion Energy =            341.2664107140151373
    One-Electron Energy =               -1118.2905168918173331
    Two-Electron Energy =                 451.9991181072811059
    DFT Exchange-Correlation Energy =       0.0000000000000000
    Empirical Dispersion Energy =           0.0000000000000000
    PCM Polarization Energy =               0.0000000000000000
    EFP Energy =                            0.0000000000000000
    Total Energy =                       -325.0249880705210899
    Molecular point group: c1
  Basis Set: 6-31G*
  Basis Set:

  -Total Gradient:
     Atom            X                  Y                   Z
    ------   -----------------  -----------------  -----------------
       1       -0.000007542340    -0.000000830693    -0.000010556481
       2       -0.000169565734     0.000680392638     0.005091341295
       3        0.000480899778    -0.002563131374     0.003172404886
       4        0.000006330010    -0.000004743083    -0.000000806178
       5        0.000023523908     0.000019326575    -0.005013814267
       6       -0.000324743362     0.001895809148    -0.003233853465
       7        0.000010878057    -0.000043090026     0.000015489994
       8        0.000001295813    -0.000001529412    -0.000004456877
       9        0.000004380399     0.000002795158    -0.000001339564
      10       -0.000005389608    -0.000005421229    -0.000016849919
      11       -0.000005272628    -0.000005428053    -0.000002865200
      12        0.000006499596     0.000003995034    -0.000006116817
      13       -0.000021874079     0.000021631257     0.000021085403
      14       -0.000003851284    -0.000004200094    -0.000000544970
      15        0.000002634913     0.000003992569    -0.000002440164
      16        0.000006096636     0.000002098693    -0.000003566179
      17       -0.000004384878    -0.000003695651    -0.000003915138
      18        0.000000084806     0.000002028542     0.000000803641

  **** Optimization is complete! (in 5 steps) ****
    Final optimized geometry and variables:
    Molecular point group: c1

    Geometry (in Angstrom), charge = 0, multiplicity = 1:

    H            2.798518971507    -0.027086610025     1.367568610340
    C            2.326895064124     0.419703950789     0.499105227863
    N            0.898937550760     0.155896526613     0.493111122389
    H            2.819959170498     0.028520490337    -0.393003732003
    H            2.512215018516     1.487025935208     0.502064429073
    C            0.576244712946    -1.087638562360    -0.183449807993
    C            0.120292917505     1.244060849609    -0.074955069110
    H            0.868942825240    -1.054993689337    -1.237318002395
    H            1.123736313551    -1.900013789823     0.285145197456
    C           -0.915435534598    -1.359813426346    -0.085810261944
    H            0.323280103372     2.153560719947     0.480596605777
    H            0.378624601355     1.427045471729    -1.122766660866
    C           -1.361022196033     0.917889739586     0.022908999540
    H           -1.182433931498    -2.240033808413    -0.656048766899
    H           -1.189455375028    -1.523643222041     0.954743382460
    O           -1.652774356088    -0.293791532509    -0.614640687961
    H           -1.954000510277     1.680476700435    -0.465038696404
    H           -1.652914893628     0.867818888798     1.070369444321

  Mulliken Charges: (a.u.)
   Center  Symbol    Alpha    Beta     Spin     Total
       1     H     0.41378  0.41378  0.00000  0.17243
       2     C     3.14034  3.14034  0.00000 -0.28069
       3     N     3.78804  3.78804  0.00000 -0.57609
       4     H     0.42899  0.42899  0.00000  0.14202
       5     H     0.41840  0.41840  0.00000  0.16321
       6     C     3.07037  3.07037  0.00000 -0.14073
       7     C     3.07023  3.07023  0.00000 -0.14045
       8     H     0.42764  0.42764  0.00000  0.14473
       9     H     0.41629  0.41629  0.00000  0.16742
      10     C     2.99712  2.99712  0.00000  0.00575
      11     H     0.41627  0.41627  0.00000  0.16746
      12     H     0.42841  0.42841  0.00000  0.14318
      13     C     2.99743  2.99743  0.00000  0.00514
      14     H     0.41344  0.41344  0.00000  0.17312
      15     H     0.42382  0.42382  0.00000  0.15237
      16     O     4.31210  4.31210  0.00000 -0.62420
      17     H     0.41347  0.41347  0.00000  0.17306
      18     H     0.42386  0.42386  0.00000  0.15228

   Total alpha = 28.00000, Total beta = 28.00000, Total charge =  0.00000
