                              Psi4 1.0.54 Driver

  ==> Input File <==

--------------------------------------------------------------------------
set {
	reference rhf
	basis cc-pvtz
}

set_num_threads( 4 )
memory 2 gb

molecule MOL {
0 1

H	 -0.366580	 2.045936	 -0.305741
C	 0.351829	 1.335402	 0.083179
N	 -0.000018	 0.000080	 -0.334836
H	 1.327156	 1.599860	 -0.305475
H	 0.380566	 1.445403	 1.171445
C	 0.786388	 -1.002384	 0.342669
C	 -1.415821	 -0.249332	 -0.210192
H	 0.546264	 -1.984508	 -0.044455
H	 1.840345	 -0.824108	 0.170686
H	 0.617696	 -1.014625	 1.423624
H	 -1.971886	 0.479315	 -0.786427
H	 -1.653587	 -1.232367	 -0.596501
H	 -1.765770	 -0.199294	 0.825251

	symmetry c1
}
set optking {
	frozen_dihedral = ("
		6 3 2 1
	")
}

ee,wfn = optimize('scf', return_wfn=True)
oeprop( wfn, 'DIPOLE', 'QUADRUPOLE', 'MULLIKEN_CHARGES')
f=open( 'psi4out.xyz', 'w' )
f.write( "13  " )
f.write( str(ee) + "\n" )
f.write( MOL.save_string_xyz() )
f.close()
--------------------------------------------------------------------------

    Molecular point group: c1
  Charge       = 0
  Multiplicity = 1
  Basis Set: CC-PVTZ
  Basis Set:
  @DF-RHF Final Energy:  -173.33314917470705
    Total Energy =                       -173.3331491747071880
    Molecular point group: c1
  Basis Set: CC-PVTZ
  Basis Set:
  Basis Set: CC-PVTZ
  Basis Set:
  @DF-RHF Final Energy:  -173.33325750011437
    Total Energy =                       -173.3332575001143141
  Basis Set: CC-PVTZ
  Basis Set:
  Basis Set: CC-PVTZ
  Basis Set:
  @DF-RHF Final Energy:  -173.33326913664720
    Total Energy =                       -173.3332691366472034
  Basis Set: CC-PVTZ
  Basis Set:
  Charge       = 0
  Multiplicity = 1
  Basis Set: CC-PVTZ
  Basis Set:

    Orbital Energies (a.u.)
    -----------------------

    Doubly Occupied:

       1A    -15.539889     2A    -11.234338     3A    -11.234311
       4A    -11.234189     5A     -1.227043     6A     -0.952222
       7A     -0.951786     8A     -0.807471     9A     -0.643207
      10A     -0.631707    11A     -0.630743    12A     -0.545530
      13A     -0.543479    14A     -0.517032    15A     -0.501840
      16A     -0.501338    17A     -0.350317

  @DF-RHF Final Energy:  -173.33326960460838

   => Energetics <=

    Nuclear Repulsion Energy =            139.4861184325824581
    One-Electron Energy =                -509.5458932973851915
    Two-Electron Energy =                 196.7265052601943580
    DFT Exchange-Correlation Energy =       0.0000000000000000
    Empirical Dispersion Energy =           0.0000000000000000
    PCM Polarization Energy =               0.0000000000000000
    EFP Energy =                            0.0000000000000000
    Total Energy =                       -173.3332696046084038
    Molecular point group: c1
  Basis Set: CC-PVTZ
  Basis Set:

  -Total Gradient:
     Atom            X                  Y                   Z
    ------   -----------------  -----------------  -----------------
       1       -0.001754642303    -0.000360590975     0.002577711191
       2        0.001618019220     0.000390626650    -0.002637805929
       3        0.001740828956     0.000110681053    -0.001645544595
       4       -0.000000873953    -0.000010154872     0.000007136062
       5       -0.000002881552     0.000018939272     0.000020336730
       6       -0.001665124061    -0.000092078471     0.001676793224
       7        0.000062539386    -0.000037368034    -0.000040286034
       8        0.000007820108    -0.000010379119     0.000003920972
       9        0.000003389753    -0.000001263308     0.000001231118
      10        0.000006253399    -0.000008054491     0.000019356701
      11        0.000011706333     0.000005293777     0.000008338982
      12       -0.000032645252    -0.000016018412     0.000000300991
      13        0.000005609968     0.000010366929     0.000008510588

  **** Optimization is complete! (in 4 steps) ****
    Final optimized geometry and variables:
    Molecular point group: c1

    Geometry (in Angstrom), charge = 0, multiplicity = 1:

    H           -0.296760874172     2.026986066705    -0.293826389814
    C            0.421363487615     1.315453720556     0.092049070141
    N            0.072724813767    -0.020265686192    -0.334953197915
    H            1.406742145059     1.582859259538    -0.268608007145
    H            0.419952488731     1.419725503195     1.181476974389
    C            0.865609953977    -1.016627073606     0.344856963803
    C           -1.339848749622    -0.283610155203    -0.188983575173
    H            0.646534520278    -2.000331384387    -0.050811805387
    H            1.919449357296    -0.821567571385     0.187939722539
    H            0.683774207595    -1.035448940658     1.423546116518
    H           -1.912149865353     0.427848067538    -0.770332937518
    H           -1.569063280174    -1.275732847390    -0.557136786984
    H           -1.679365500637    -0.223939771171     0.849739925308

  Mulliken Charges: (a.u.)
   Center  Symbol    Alpha    Beta     Spin     Total
       1     H     0.45382  0.45382  0.00000  0.09236
       2     C     3.08891  3.08891  0.00000 -0.17782
       3     N     3.59605  3.59605  0.00000 -0.19210
       4     H     0.45081  0.45081  0.00000  0.09838
       5     H     0.47379  0.47379  0.00000  0.05241
       6     C     3.08980  3.08980  0.00000 -0.17961
       7     C     3.08915  3.08915  0.00000 -0.17830
       8     H     0.45257  0.45257  0.00000  0.09486
       9     H     0.45276  0.45276  0.00000  0.09448
      10     H     0.47331  0.47331  0.00000  0.05339
      11     H     0.45221  0.45221  0.00000  0.09558
      12     H     0.45260  0.45260  0.00000  0.09480
      13     H     0.47422  0.47422  0.00000  0.05156

   Total alpha = 17.00000, Total beta = 17.00000, Total charge = -0.00000

*** Psi4 exiting successfully. Buy a developer a beer!
