  ==> Input File <==

--------------------------------------------------------------------------
set {
	reference rhf
	basis 6-31G*
}

set_num_threads( 4 )
memory 2 gb

molecule MOL {
0 1

H	 -3.420663	 1.227371	 -1.044276
O	 -3.452007	 0.283848	 -0.965577
C	 -3.181085	 -0.079926	 0.364119
C	 -1.765924	 0.277073	 0.805136
H	 -3.327791	 -1.152017	 0.410903
H	 -3.905698	 0.375695	 1.036898
C	 -0.799647	 0.493497	 -0.360191
H	 -1.802838	 1.174475	 1.423416
H	 -1.396998	 -0.519355	 1.449199
C	 0.611665	 0.873263	 0.092750
H	 -1.195382	 1.265661	 -1.012776
H	 -0.754509	 -0.416261	 -0.956593
C	 1.574624	 1.082447	 -1.079017
H	 0.558451	 1.776602	 0.695714
H	 1.004850	 0.093954	 0.744431
C	 3.023364	 1.377864	 -0.674005
H	 1.206019	 1.891834	 -1.707283
H	 1.565599	 0.189299	 -1.700324
C	 3.221488	 2.709121	 0.053255
H	 3.638551	 1.376202	 -1.570572
H	 3.394937	 0.567018	 -0.050574
H	 2.847173	 3.537998	 -0.541714
H	 4.274631	 2.890576	 0.245092
H	 2.709090	 2.730223	 1.009376

	symmetry c1
}
set optking {
	frozen_dihedral = ("
		7 4 3 2
	")
}

ee = optimize('scf')
oeprop('DIPOLE', 'QUADRUPOLE', 'MULLIKEN_CHARGES')
f=open( 'psi4out.xyz', 'w' )
f.write( "24  " )
f.write( str(ee) + "\n" )
f.write( MOL.save_string_xyz() )
f.close()
--------------------------------------------------------------------------

    Molecular point group: c1
  Charge       = 0
  Multiplicity = 1
  Basis Set: 6-31G*
  Basis Set:
  @DF-RHF Final Energy:  -349.24046707129770
    Total Energy =                       -349.2404670712974166
    Molecular point group: c1
  Basis Set: 6-31G*
  Basis Set:
  Basis Set: 6-31G*
  Basis Set:
  @DF-RHF Final Energy:  -349.24095979122706
    Total Energy =                       -349.2409597912269419
  Basis Set: 6-31G*
  Basis Set:
  Basis Set: 6-31G*
  Basis Set:
  @DF-RHF Final Energy:  -349.24162280181804
    Total Energy =                       -349.2416228018180959
  Basis Set: 6-31G*
  Basis Set:
  Basis Set: 6-31G*
  Basis Set:
  @DF-RHF Final Energy:  -349.24163085156761
    Total Energy =                       -349.2416308515676064
  Basis Set: 6-31G*
  Basis Set:
  Basis Set: 6-31G*
  Basis Set:
  @DF-RHF Final Energy:  -349.24164535812884
    Total Energy =                       -349.2416453581288351
  Basis Set: 6-31G*
  Basis Set:
  Basis Set: 6-31G*
  Basis Set:
  @DF-RHF Final Energy:  -349.24164716115615
    Total Energy =                       -349.2416471611558109
  Basis Set: 6-31G*
  Basis Set:
  Charge       = 0
  Multiplicity = 1
  Basis Set: 6-31G*
  Basis Set:

    Orbital Energies (a.u.)
    -----------------------

    Doubly Occupied:

       1A    -20.554098     2A    -11.267937     3A    -11.216170
       4A    -11.214092     5A    -11.212625     6A    -11.212049
       7A    -11.211505     8A    -11.207522     9A     -1.360051
      10A     -1.087835    11A     -1.045973    12A     -0.984148
      13A     -0.916780    14A     -0.851838    15A     -0.795279
      16A     -0.776466    17A     -0.685508    18A     -0.650004
      19A     -0.626003    20A     -0.614236    21A     -0.599053
      22A     -0.586064    23A     -0.554417    24A     -0.544451
      25A     -0.513039    26A     -0.508872    27A     -0.498481
      28A     -0.476682    29A     -0.460315    30A     -0.457088
      31A     -0.453785    32A     -0.449645    33A     -0.421338

  @DF-RHF Final Energy:  -349.24164724538701

   => Energetics <=

    Nuclear Repulsion Energy =            385.2200477078861809
    One-Electron Energy =               -1236.8966868382981374
    Two-Electron Energy =                 502.4349918850249992
    DFT Exchange-Correlation Energy =       0.0000000000000000
    Empirical Dispersion Energy =           0.0000000000000000
    PCM Polarization Energy =               0.0000000000000000
    EFP Energy =                            0.0000000000000000
    Total Energy =                       -349.2416472453870142
    Molecular point group: c1
  Basis Set: 6-31G*
  Basis Set:

  -Total Gradient:
     Atom            X                  Y                   Z
    ------   -----------------  -----------------  -----------------
       1        0.000001150197    -0.000000593002     0.000005998242
       2        0.001586695780    -0.004050802360    -0.001181069840
       3       -0.002662486630     0.007224822493     0.001514500372
       4        0.002222048677    -0.007123021189    -0.000047256064
       5       -0.000004225325     0.000000929092    -0.000006657000
       6       -0.000000204911     0.000000230013     0.000000815977
       7       -0.001142727630     0.003959096086    -0.000290382422
       8        0.000002878044    -0.000000540793     0.000002385145
       9       -0.000001246668    -0.000005379408    -0.000005451668
      10       -0.000000780866     0.000010257018     0.000002003228
      11        0.000005501597    -0.000001206270     0.000002343139
      12       -0.000007475959    -0.000006651287    -0.000000411979
      13        0.000000329548    -0.000020036988     0.000003157546
      14        0.000006531450     0.000008479539     0.000008715306
      15        0.000001233280     0.000003422059    -0.000005644039
      16        0.000001178806     0.000010018306    -0.000010327219
      17       -0.000000591157    -0.000002456471     0.000005202120
      18        0.000002343645    -0.000001663214    -0.000003328114
      19       -0.000002017797    -0.000003977983     0.000004088699
      20        0.000001052911    -0.000000932190    -0.000002282124
      21       -0.000002631953     0.000002449361    -0.000000961228
      22        0.000000867549    -0.000001964715    -0.000000511337
      23       -0.000000295225    -0.000000686586     0.000000725490
      24       -0.000007127355     0.000000208490     0.000004347770

  **** Optimization is complete! (in 7 steps) ****
    Final optimized geometry and variables:
    Molecular point group: c1

    Geometry (in Angstrom), charge = 0, multiplicity = 1:

    H           -3.465727184718     0.215319286818    -0.858603569316
    O           -3.371500601861    -0.717389908118    -0.724490295517
    C           -3.031632886227    -0.975183397489     0.613796908313
    C           -1.609431522952    -0.533990598182     1.015921330547
    H           -3.115801491889    -2.049876799856     0.710459131230
    H           -3.765137457808    -0.538120185022     1.286919180844
    C           -0.643147037097    -0.341236470341    -0.155487564263
    H           -1.661035550677     0.403099462398     1.568668569938
    H           -1.206787302837    -1.265554871327     1.711713621990
    C            0.772568441554     0.010356816301     0.307246232535
    H           -1.011888742461     0.445725296249    -0.806772043660
    H           -0.616278877414    -1.242415962523    -0.762209275520
    C            1.738526902605     0.234695937060    -0.859318524510
    H            0.732242166585     0.899112332286     0.932584433577
    H            1.154966246027    -0.790101658398     0.939073118636
    C            3.191720903810     0.496561047675    -0.447307403484
    H            1.383413308163     1.066346782661    -1.466151309616
    H            1.715025673286    -0.641450395236    -1.503891904922
    C            3.410599034907     1.804498844658     0.315412953104
    H            3.806839244604     0.509145380727    -1.343793467583
    H            3.550333073311    -0.336411646219     0.154081688473
    H            3.049887236965     2.654959678400    -0.257145691252
    H            4.466394740749     1.964041475793     0.512070864894
    H            2.898042030017     1.808073593764     1.271646135686

  Mulliken Charges: (a.u.)
   Center  Symbol    Alpha    Beta     Spin     Total
       1     H     0.28272  0.28272  0.00000  0.43455
       2     O     4.36782  4.36782  0.00000 -0.73564
       3     C     2.99341  2.99341  0.00000  0.01318
       4     C     3.18276  3.18276  0.00000 -0.36552
       5     H     0.41549  0.41549  0.00000  0.16903
       6     H     0.42771  0.42771  0.00000  0.14458
       7     C     3.14237  3.14237  0.00000 -0.28474
       8     H     0.42445  0.42445  0.00000  0.15109
       9     H     0.41839  0.41839  0.00000  0.16321
      10     C     3.15496  3.15496  0.00000 -0.30991
      11     H     0.42734  0.42734  0.00000  0.14532
      12     H     0.41579  0.41579  0.00000  0.16843
      13     C     3.15217  3.15217  0.00000 -0.30435
      14     H     0.42336  0.42336  0.00000  0.15328
      15     H     0.42457  0.42457  0.00000  0.15086
      16     C     3.15226  3.15226  0.00000 -0.30452
      17     H     0.42495  0.42495  0.00000  0.15009
      18     H     0.42127  0.42127  0.00000  0.15746
      19     C     3.24104  3.24104  0.00000 -0.48208
      20     H     0.42110  0.42110  0.00000  0.15780
      21     H     0.42351  0.42351  0.00000  0.15299
      22     H     0.42273  0.42273  0.00000  0.15454
      23     H     0.41947  0.41947  0.00000  0.16106
      24     H     0.42036  0.42036  0.00000  0.15928

   Total alpha = 33.00000, Total beta = 33.00000, Total charge = -0.00000
