  ==> Input File <==

--------------------------------------------------------------------------
set {
	reference rhf
	basis 6-31G*
}

set_num_threads( 4 )
memory 2 gb

molecule MOL {
0 1

O	 0.074228	 1.262779	 -0.000085
C	 0.028650	 0.075053	 -0.000277
C	 -1.233602	 -0.752807	 0.000328
O	 1.109162	 -0.694619	 -0.000298
C	 -2.501530	 0.091881	 0.000126
H	 -1.193807	 -1.406641	 -0.865785
H	 -1.193516	 -1.405779	 0.867015
H	 -2.545121	 0.729328	 -0.874513
H	 -3.377167	 -0.548497	 0.000561
H	 -2.544818	 0.730135	 0.874258
C	 1.381828	 -1.419401	 -1.186018
H	 0.568557	 -2.092919	 -1.414879
H	 2.284872	 -1.976246	 -0.990319
H	 1.529938	 -0.745590	 -2.017591

	symmetry c1
}
set optking {
	frozen_dihedral = ("
		11 4 2 3
	")
}

ee = optimize('scf')
oeprop('DIPOLE', 'QUADRUPOLE', 'MULLIKEN_CHARGES')
f=open( 'psi4out.xyz', 'w' )
f.write( "14  " )
f.write( str(ee) + "\n" )
f.write( MOL.save_string_xyz() )
f.close()
--------------------------------------------------------------------------

    Molecular point group: c1
  Charge       = 0
  Multiplicity = 1
  Basis Set: 6-31G*
  Basis Set:
  @DF-RHF Final Energy:  -305.84779247292755
    Total Energy =                       -305.8477924729276651
    Molecular point group: c1
  Basis Set: 6-31G*
  Basis Set:
  Basis Set: 6-31G*
  Basis Set:
  @DF-RHF Final Energy:  -305.84968786959587
    Total Energy =                       -305.8496878695956411
  Basis Set: 6-31G*
  Basis Set:
  Basis Set: 6-31G*
  Basis Set:
  @DF-RHF Final Energy:  -305.85096736518801
    Total Energy =                       -305.8509673651880121
  Basis Set: 6-31G*
  Basis Set:
  Basis Set: 6-31G*
  Basis Set:
  @DF-RHF Final Energy:  -305.85106790038986
    Total Energy =                       -305.8510679003897508
  Basis Set: 6-31G*
  Basis Set:
  Basis Set: 6-31G*
  Basis Set:
  @DF-RHF Final Energy:  -305.85100351309683
    Total Energy =                       -305.8510035130967140
  Basis Set: 6-31G*
  Basis Set:
  Basis Set: 6-31G*
  Basis Set:
  @DF-RHF Final Energy:  -305.85113254535690
    Total Energy =                       -305.8511325453570748
  Basis Set: 6-31G*
  Basis Set:
  Basis Set: 6-31G*
  Basis Set:
  @DF-RHF Final Energy:  -305.85113358791159
    Total Energy =                       -305.8511335879116473
  Basis Set: 6-31G*
  Basis Set:
  Charge       = 0
  Multiplicity = 1
  Basis Set: 6-31G*
  Basis Set:

    Orbital Energies (a.u.)
    -----------------------

    Doubly Occupied:

       1A    -20.588777     2A    -20.555616     3A    -11.375576
       4A    -11.294875     5A    -11.244828     6A    -11.220332
       7A     -1.459634     8A     -1.368677     9A     -1.062491
      10A     -0.979233    11A     -0.895231    12A     -0.766970
      13A     -0.701520    14A     -0.677658    15A     -0.674173
      16A     -0.628374    17A     -0.612559    18A     -0.559125
      19A     -0.546250    20A     -0.524945    21A     -0.511536
      22A     -0.488591    23A     -0.457354    24A     -0.436644

  @DF-RHF Final Energy:  -305.85113392726691

   => Energetics <=

    Nuclear Repulsion Energy =            246.6511065285221775
    One-Electron Energy =                -905.7425484078079307
    Two-Electron Energy =                 353.2403079520190659
    DFT Exchange-Correlation Energy =       0.0000000000000000
    Empirical Dispersion Energy =           0.0000000000000000
    PCM Polarization Energy =               0.0000000000000000
    EFP Energy =                            0.0000000000000000
    Total Energy =                       -305.8511339272666874
    Molecular point group: c1
  Basis Set: 6-31G*
  Basis Set:

  -Total Gradient:
     Atom            X                  Y                   Z
    ------   -----------------  -----------------  -----------------
       1        0.000018175776    -0.000020034839     0.000013423360
       2        0.000230023785     0.000484364782    -0.001795811793
       3       -0.000032425746     0.000032633645     0.001028879904
       4       -0.000856362452    -0.001429753092     0.001146577178
       5        0.000018673212    -0.000011387766     0.000007788961
       6       -0.000002185674    -0.000005557649     0.000020502823
       7        0.000006232637     0.000000564636     0.000010892478
       8       -0.000007736192     0.000007579930    -0.000004792512
       9        0.000002765489     0.000000322495    -0.000002807686
      10        0.000001986739    -0.000001272348    -0.000002137266
      11        0.000610404683     0.000939423001    -0.000423611182
      12       -0.000002244351     0.000008307228     0.000014743754
      13        0.000005738479     0.000000272252     0.000001414532
      14        0.000006953615    -0.000005462276    -0.000015062552

  **** Optimization is complete! (in 8 steps) ****
    Final optimized geometry and variables:
    Molecular point group: c1

    Geometry (in Angstrom), charge = 0, multiplicity = 1:

    O            0.234575162580     1.480276124653     0.218909012106
    C            0.177740480606     0.301638945322     0.167999453705
    C           -1.113283625472    -0.487920037999     0.168871304768
    O            1.303600673917    -0.444827163807     0.196826171514
    C           -2.353730595460     0.391941567685     0.266701559881
    H           -1.150561754841    -1.098385702012    -0.729171963807
    H           -1.056252565814    -1.185850308339     0.999494229206
    H           -2.412979862247     1.075950634174    -0.571045170606
    H           -3.248130377010    -0.221816806341     0.271788224531
    H           -2.339245786948     0.983602247585     1.173546176229
    C            1.652083484518    -1.197214272642    -0.943955928835
    H            0.968392338501    -2.022366087691    -1.106381350540
    H            2.639205389613    -1.590080277924    -0.757208313010
    H            1.681349765357    -0.568118915776    -1.826151550884

  Mulliken Charges: (a.u.)
   Center  Symbol    Alpha    Beta     Spin     Total
       1     O     4.25067  4.25067  0.00000 -0.50133
       2     C     2.61453  2.61453  0.00000  0.77094
       3     C     3.21680  3.21680  0.00000 -0.43359
       4     O     4.31170  4.31170  0.00000 -0.62339
       5     C     3.23759  3.23759  0.00000 -0.47517
       6     H     0.40699  0.40699  0.00000  0.18603
       7     H     0.39848  0.39848  0.00000  0.20305
       8     H     0.40968  0.40968  0.00000  0.18064
       9     H     0.41809  0.41809  0.00000  0.16381
      10     H     0.40764  0.40764  0.00000  0.18472
      11     C     3.09308  3.09308  0.00000 -0.18616
      12     H     0.42056  0.42056  0.00000  0.15887
      13     H     0.40045  0.40045  0.00000  0.19909
      14     H     0.41375  0.41375  0.00000  0.17249

   Total alpha = 24.00000, Total beta = 24.00000, Total charge =  0.00000
