                              Psi4 1.0.54 Driver

  ==> Input File <==

--------------------------------------------------------------------------
set {
	reference rhf
	basis cc-pvtz
}

set_num_threads( 4 )
memory 2 gb

molecule MOL {
0 1

O	 -2.340050	 -0.076023	 -1.143983
C	 -1.922978	 0.063265	 -0.045005
C	 -2.774870	 0.152961	 1.189777
O	 -0.637375	 0.157174	 0.243149
H	 -2.596778	 1.098186	 1.686319
H	 -3.814387	 0.066561	 0.918527
H	 -2.501875	 -0.636409	 1.878208
C	 0.162530	 -1.009518	 0.097799
C	 1.587210	 -0.664190	 0.477086
H	 0.096803	 -1.356267	 -0.924704
H	 -0.233803	 -1.785900	 0.736810
C	 2.256770	 0.342732	 -0.454344
H	 2.154716	 -1.590834	 0.479041
H	 1.598751	 -0.289614	 1.496104
C	 3.698146	 0.643205	 -0.057145
H	 2.235038	 -0.042575	 -1.470299
H	 1.683491	 1.262594	 -0.461300
H	 4.150202	 1.356548	 -0.736242
H	 4.305463	 -0.255904	 -0.069842
H	 3.749130	 1.061068	 0.942759

	symmetry c1
}
set optking {
	frozen_dihedral = ("
		1 2 4 8
	")
}

ee,wfn = optimize('scf', return_wfn=True)
oeprop( wfn, 'DIPOLE', 'QUADRUPOLE', 'MULLIKEN_CHARGES')
f=open( 'psi4out.xyz', 'w' )
f.write( "20  " )
f.write( str(ee) + "\n" )
f.write( MOL.save_string_xyz() )
f.close()
--------------------------------------------------------------------------

    Molecular point group: c1
  Charge       = 0
  Multiplicity = 1
  Basis Set: CC-PVTZ
  Basis Set:
  @DF-RHF Final Energy:  -384.07085073215598
    Total Energy =                       -384.0708507321558045
    Molecular point group: c1
  Basis Set: CC-PVTZ
  Basis Set:
  Basis Set: CC-PVTZ
  Basis Set:
  @DF-RHF Final Energy:  -384.02769095208384
    Total Energy =                       -384.0276909520836170
  Basis Set: CC-PVTZ
  Basis Set:
  Basis Set: CC-PVTZ
  Basis Set:
  @DF-RHF Final Energy:  -384.06865995390422
    Total Energy =                       -384.0686599539037616
  Basis Set: CC-PVTZ
  Basis Set:
  Basis Set: CC-PVTZ
  Basis Set:
  @DF-RHF Final Energy:  -384.07162677414709
    Total Energy =                       -384.0716267741468073
  Basis Set: CC-PVTZ
  Basis Set:
  Basis Set: CC-PVTZ
  Basis Set:
  @DF-RHF Final Energy:  -384.07195709686590
    Total Energy =                       -384.0719570968661856
  Basis Set: CC-PVTZ
  Basis Set:
  Basis Set: CC-PVTZ
  Basis Set:
  @DF-RHF Final Energy:  -384.07199883589800
    Total Energy =                       -384.0719988358982846
  Basis Set: CC-PVTZ
  Basis Set:
  Basis Set: CC-PVTZ
  Basis Set:
  @DF-RHF Final Energy:  -384.07200357685139
    Total Energy =                       -384.0720035768517846
  Basis Set: CC-PVTZ
  Basis Set:
  Charge       = 0
  Multiplicity = 1
  Basis Set: CC-PVTZ
  Basis Set:

    Orbital Energies (a.u.)
    -----------------------

    Doubly Occupied:

       1A    -20.577515     2A    -20.542995     3A    -11.369495
       4A    -11.287730     5A    -11.234602     6A    -11.224431
       7A    -11.216087     8A    -11.209766     9A     -1.461749
      10A     -1.367936    11A     -1.084602    12A     -1.024409
      13A     -0.986248    14A     -0.880757    15A     -0.808921
      16A     -0.777038    17A     -0.697708    18A     -0.684795
      19A     -0.656960    20A     -0.632606    21A     -0.612731
      22A     -0.592451    23A     -0.578796    24A     -0.560380
      25A     -0.542820    26A     -0.531106    27A     -0.500712
      28A     -0.484906    29A     -0.480802    30A     -0.473605
      31A     -0.448947    32A     -0.438794

  @DF-RHF Final Energy:  -384.07200392785182

   => Energetics <=

    Nuclear Repulsion Energy =            384.6623964980050232
    One-Electron Energy =               -1285.5239987510603896
    Two-Electron Energy =                 516.7895983252035421
    DFT Exchange-Correlation Energy =       0.0000000000000000
    Empirical Dispersion Energy =           0.0000000000000000
    PCM Polarization Energy =               0.0000000000000000
    EFP Energy =                            0.0000000000000000
    Total Energy =                       -384.0720039278518243
    Molecular point group: c1
  Basis Set: CC-PVTZ
  Basis Set:

  -Total Gradient:
     Atom            X                  Y                   Z
    ------   -----------------  -----------------  -----------------
       1       -0.000484407314     0.006162374602    -0.002471669743
       2        0.000131980321    -0.009067242937     0.006064895872
       3       -0.000011001339    -0.000073898007    -0.000026652790
       4        0.001573139502     0.002982933483    -0.008652477742
       5       -0.000006034592     0.000027340449     0.000000272535
       6        0.000002139139     0.000016094130     0.000003278037
       7        0.000003117155     0.000020066556     0.000019834683
       8       -0.001189527987    -0.000079188601     0.005043432164
       9       -0.000017469926     0.000012929343     0.000010921139
      10        0.000005566137    -0.000005736650     0.000003017334
      11        0.000006438144     0.000013651007     0.000002437279
      12        0.000005479310    -0.000008023950    -0.000009694636
      13       -0.000009086929     0.000003940239    -0.000002188307
      14        0.000004549360     0.000002621540     0.000007156361
      15       -0.000009796665    -0.000003342886     0.000003627431
      16       -0.000002317094    -0.000001017807    -0.000004515131
      17        0.000005550718    -0.000005362390     0.000005585165
      18       -0.000005426612    -0.000001681073     0.000002852392
      19       -0.000005104049     0.000002823832    -0.000001947010
      20        0.000002212714     0.000000719119     0.000001834968

  **** Optimization is complete! (in 8 steps) ****
    Final optimized geometry and variables:
    Molecular point group: c1

    Geometry (in Angstrom), charge = 0, multiplicity = 1:

    O           -2.254759869665    -0.392326953605    -1.141547772173
    C           -1.919908964571     0.035475663306    -0.096714692820
    C           -2.861877679522     0.491507074210     0.980071355701
    O           -0.630080581694     0.250941710126     0.214406800443
    H           -2.675448024662     1.536595483765     1.193113930614
    H           -3.883860628526     0.349923574260     0.667605361718
    H           -2.668987165130    -0.063123578777     1.890816741764
    C            0.193275880886    -0.891958785581     0.400370761921
    C            1.622187822229    -0.438734294130     0.611516012962
    H            0.112218789033    -1.533837381918    -0.467893976506
    H           -0.159933974303    -1.439517820148     1.268428322746
    C            2.241103334591     0.243303151610    -0.605177290763
    H            2.206177208139    -1.316152333746     0.876434184569
    H            1.653603891750     0.228752285469     1.467090248375
    C            3.681457344428     0.680889026029    -0.362276419694
    H            2.206983817751    -0.437535922939    -1.451079059157
    H            1.640207909847     1.102304832408    -0.878057272240
    H            4.097080246301     1.158913744636    -1.241436453420
    H            4.314521625928    -0.165303492555    -0.115731530117
    H            3.742531448942     1.388310450185     0.458076195105

  Mulliken Charges: (a.u.)
   Center  Symbol    Alpha    Beta     Spin     Total
       1     O     4.17533  4.17533  0.00000 -0.35066
       2     C     2.80535  2.80535  0.00000  0.38930
       3     C     3.13949  3.13949  0.00000 -0.27898
       4     O     4.17371  4.17371  0.00000 -0.34741
       5     H     0.44382  0.44382  0.00000  0.11235
       6     H     0.43751  0.43751  0.00000  0.12499
       7     H     0.45023  0.45023  0.00000  0.09955
       8     C     2.98603  2.98603  0.00000  0.02794
       9     C     3.08789  3.08789  0.00000 -0.17578
      10     H     0.44862  0.44862  0.00000  0.10277
      11     H     0.45655  0.45655  0.00000  0.08691
      12     C     3.08479  3.08479  0.00000 -0.16958
      13     H     0.45312  0.45312  0.00000  0.09376
      14     H     0.45162  0.45162  0.00000  0.09675
      15     C     3.15027  3.15027  0.00000 -0.30054
      16     H     0.45366  0.45366  0.00000  0.09268
      17     H     0.44408  0.44408  0.00000  0.11185
      18     H     0.44678  0.44678  0.00000  0.10645
      19     H     0.45634  0.45634  0.00000  0.08731
      20     H     0.45482  0.45482  0.00000  0.09036

   Total alpha = 32.00000, Total beta = 32.00000, Total charge =  0.00000

*** Psi4 exiting successfully. Buy a developer a beer!
