                              Psi4 1.0.54 Driver

  ==> Input File <==

--------------------------------------------------------------------------
set {
	reference rhf
	basis cc-pvtz
}

set_num_threads( 4 )
memory 2 gb

molecule MOL {
0 1

H	 2.773316	 0.707715	 0.434451
N	 2.326826	 -0.066186	 0.000000
C	 0.934676	 -0.005420	 0.000000
H	 2.730880	 -0.264478	 -0.885688
C	 0.226436	 -0.001077	 -1.195129
C	 0.226436	 -0.001077	 1.195129
H	 0.759091	 -0.011439	 -2.128123
C	 -1.153391	 0.009141	 -1.189028
H	 0.759091	 -0.011439	 2.128123
C	 -1.153391	 0.009141	 1.189028
H	 -1.680905	 0.012964	 -2.124348
C	 -1.857876	 0.014675	 0.000000
H	 -1.680905	 0.012964	 2.124348
H	 -2.930222	 0.022904	 0.000000

	symmetry c1
}
set optking {
	frozen_dihedral = ("
		1 2 3 5
	")
}

ee,wfn = optimize('scf', return_wfn=True)
oeprop( wfn, 'DIPOLE', 'QUADRUPOLE', 'MULLIKEN_CHARGES')
f=open( 'psi4out.xyz', 'w' )
f.write( "14  " )
f.write( str(ee) + "\n" )
f.write( MOL.save_string_xyz() )
f.close()
--------------------------------------------------------------------------

    Molecular point group: c1
  Charge       = 0
  Multiplicity = 1
  Basis Set: CC-PVTZ
  Basis Set:
  @DF-RHF Final Energy:  -285.83072633254938
    Total Energy =                       -285.8307263325493750
    Molecular point group: c1
  Basis Set: CC-PVTZ
  Basis Set:
  Basis Set: CC-PVTZ
  Basis Set:
  @DF-RHF Final Energy:  -285.83145740743896
    Total Energy =                       -285.8314574074389043
  Basis Set: CC-PVTZ
  Basis Set:
  Basis Set: CC-PVTZ
  Basis Set:
  @DF-RHF Final Energy:  -285.83160368120383
    Total Energy =                       -285.8316036812039442
  Basis Set: CC-PVTZ
  Basis Set:
  Basis Set: CC-PVTZ
  Basis Set:
  @DF-RHF Final Energy:  -285.83161308853329
    Total Energy =                       -285.8316130885333450
  Basis Set: CC-PVTZ
  Basis Set:
  Charge       = 0
  Multiplicity = 1
  Basis Set: CC-PVTZ
  Basis Set:

    Orbital Energies (a.u.)
    -----------------------

    Doubly Occupied:

       1A    -15.552408     2A    -11.267370     3A    -11.228164
       4A    -11.227567     5A    -11.219496     6A    -11.217082
       7A    -11.216065     8A     -1.221834     9A     -1.131816
      10A     -1.014900    11A     -0.989239    12A     -0.832681
      13A     -0.812555    14A     -0.707151    15A     -0.679964
      16A     -0.652476    17A     -0.608935    18A     -0.594948
      19A     -0.584017    20A     -0.522986    21A     -0.506262
      22A     -0.490381    23A     -0.442560    24A     -0.336802
      25A     -0.304933

  @DF-RHF Final Energy:  -285.83161400253732

   => Energetics <=

    Nuclear Repulsion Energy =            273.4819823909471097
    One-Electron Energy =                -927.9020064268968326
    Two-Electron Energy =                 368.5884100334122877
    DFT Exchange-Correlation Energy =       0.0000000000000000
    Empirical Dispersion Energy =           0.0000000000000000
    PCM Polarization Energy =               0.0000000000000000
    EFP Energy =                            0.0000000000000000
    Total Energy =                       -285.8316140025374352
    Molecular point group: c1
  Basis Set: CC-PVTZ
  Basis Set:

  -Total Gradient:
     Atom            X                  Y                   Z
    ------   -----------------  -----------------  -----------------
       1        0.000132325078     0.001659560084    -0.002791561974
       2       -0.000095720634    -0.000807623672     0.003442657301
       3       -0.000166497619    -0.003379276519    -0.000501110338
       4        0.000000680965     0.000012457370     0.000054957253
       5       -0.000066032394     0.002555376516    -0.000112519199
       6        0.000154748165    -0.000022088890    -0.000097072584
       7        0.000006132618    -0.000009372341     0.000000018113
       8        0.000180968574    -0.000053844581    -0.000081910439
       9       -0.000001326088     0.000016754160     0.000021756697
      10       -0.000148250576    -0.000027949299    -0.000109086586
      11       -0.000008561427     0.000013426607     0.000008505624
      12       -0.000005255209     0.000041682540     0.000188744403
      13        0.000019389434    -0.000002359729    -0.000001501631
      14       -0.000002600885     0.000003257752    -0.000021876642

  **** Optimization is complete! (in 5 steps) ****
    Final optimized geometry and variables:
    Molecular point group: c1

    Geometry (in Angstrom), charge = 0, multiplicity = 1:

    H            2.739545950889     0.707642288652     0.483057640291
    N            2.338113318077    -0.079483299064     0.021503176631
    C            0.930669311303    -0.029932868597    -0.004037928850
    H            2.729294587242    -0.141246506085    -0.892024137141
    C            0.221328162793    -0.013396557708    -1.194528006712
    C            0.228787794690    -0.003966461692     1.193929533832
    H            0.750320012782    -0.020879244111    -2.129792211065
    C           -1.161211557688     0.007178697541    -1.186480281421
    H            0.771258644661    -0.029534508234     2.120020875696
    C           -1.149469038506     0.038812133972     1.194462788763
    H           -1.692988225462     0.011204240330    -2.119230845642
    C           -1.856716642579     0.039384316900     0.005019590948
    H           -1.675219699610     0.060367082718     2.130368513799
    H           -2.929065344354     0.063412214246     0.009218580314

  Mulliken Charges: (a.u.)
   Center  Symbol    Alpha    Beta     Spin     Total
       1     H     0.41922  0.41922  0.00000  0.16157
       2     N     3.68172  3.68172  0.00000 -0.36344
       3     C     2.88631  2.88631  0.00000  0.22738
       4     H     0.42681  0.42681  0.00000  0.14638
       5     C     3.11727  3.11727  0.00000 -0.23454
       6     C     3.11443  3.11443  0.00000 -0.22885
       7     H     0.43347  0.43347  0.00000  0.13305
       8     C     3.06369  3.06369  0.00000 -0.12739
       9     H     0.42565  0.42565  0.00000  0.14869
      10     C     3.06091  3.06091  0.00000 -0.12181
      11     H     0.42428  0.42428  0.00000  0.15143
      12     C     3.09744  3.09744  0.00000 -0.19488
      13     H     0.42413  0.42413  0.00000  0.15175
      14     H     0.42467  0.42467  0.00000  0.15066

   Total alpha = 25.00000, Total beta = 25.00000, Total charge = -0.00000

*** Psi4 exiting successfully. Buy a developer a beer!
