                              Psi4 1.0.54 Driver

  ==> Input File <==

--------------------------------------------------------------------------
set {
	reference rhf
	basis cc-pvtz
}

set_num_threads( 4 )
memory 2 gb

molecule MOL {
0 1

H	 -1.367335	 1.306540	 4.552554
C	 -0.838307	 1.110099	 3.639473
C	 -0.952738	 1.984709	 2.573826
C	 -0.044642	 -0.016187	 3.531968
H	 -1.568955	 2.858719	 2.657993
C	 -0.272633	 1.731610	 1.400841
H	 0.043435	 -0.693831	 4.358959
C	 0.636981	 -0.270996	 2.358103
H	 -0.349919	 2.398109	 0.566058
C	 0.524629	 0.603050	 1.288555
H	 1.252461	 -1.142331	 2.271560
C	 1.238974	 0.374429	 0.000004
O	 1.968286	 -0.725612	 -0.000027
O	 1.164510	 1.101496	 -0.933274
C	 3.373556	 -0.568203	 0.000011
H	 3.695416	 -0.031588	 -0.879663
H	 3.782700	 -1.565294	 -0.000152
H	 3.695405	 -0.031851	 0.879862

	symmetry c1
}
set optking {
	frozen_dihedral = ("
		10 12 13 15
	")
}

ee,wfn = optimize('scf', return_wfn=True)
oeprop( wfn, 'DIPOLE', 'QUADRUPOLE', 'MULLIKEN_CHARGES')
f=open( 'psi4out.xyz', 'w' )
f.write( "18  " )
f.write( str(ee) + "\n" )
f.write( MOL.save_string_xyz() )
f.close()
--------------------------------------------------------------------------

    Molecular point group: c1
  Charge       = 0
  Multiplicity = 1
  Basis Set: CC-PVTZ
  Basis Set:
  @DF-RHF Final Energy:  -457.49366364692082
    Total Energy =                       -457.4936636469209361
    Molecular point group: c1
  Basis Set: CC-PVTZ
  Basis Set:
  Basis Set: CC-PVTZ
  Basis Set:
  @DF-RHF Final Energy:  -457.49186133942231
    Total Energy =                       -457.4918613394222575
  Basis Set: CC-PVTZ
  Basis Set:
  Basis Set: CC-PVTZ
  Basis Set:
  @DF-RHF Final Energy:  -457.49444041627157
    Total Energy =                       -457.4944404162715728
  Basis Set: CC-PVTZ
  Basis Set:
  Basis Set: CC-PVTZ
  Basis Set:
  @DF-RHF Final Energy:  -457.49449307445741
    Total Energy =                       -457.4944930744571820
  Basis Set: CC-PVTZ
  Basis Set:
  Basis Set: CC-PVTZ
  Basis Set:
  @DF-RHF Final Energy:  -457.49451494595559
    Total Energy =                       -457.4945149459558706
  Basis Set: CC-PVTZ
  Basis Set:
  Basis Set: CC-PVTZ
  Basis Set:
  @DF-RHF Final Energy:  -457.49454607333894
    Total Energy =                       -457.4945460733392792
  Basis Set: CC-PVTZ
  Basis Set:
  Charge       = 0
  Multiplicity = 1
  Basis Set: CC-PVTZ
  Basis Set:

    Orbital Energies (a.u.)
    -----------------------

    Doubly Occupied:

       1A    -20.582551     2A    -20.543680     3A    -11.373719
       4A    -11.286865     5A    -11.247736     6A    -11.247310
       7A    -11.246382     8A    -11.243527     9A    -11.239368
      10A    -11.238589    11A     -1.466113    12A     -1.370107
      13A     -1.173656    14A     -1.050331    15A     -1.032412
      16A     -0.975343    17A     -0.871430    18A     -0.842269
      19A     -0.781191    20A     -0.742728    21A     -0.688737
      22A     -0.679253    23A     -0.666129    24A     -0.640069
      25A     -0.632868    26A     -0.609361    27A     -0.600292
      28A     -0.560734    29A     -0.530939    30A     -0.524495
      31A     -0.507289    32A     -0.501823    33A     -0.463240
      34A     -0.447529    35A     -0.353645    36A     -0.349597

  @DF-RHF Final Energy:  -457.49454651065133

   => Energetics <=

    Nuclear Repulsion Energy =            495.6480451640555316
    One-Electron Energy =               -1605.6625686852803483
    Two-Electron Energy =                 652.5199770105733705
    DFT Exchange-Correlation Energy =       0.0000000000000000
    Empirical Dispersion Energy =           0.0000000000000000
    PCM Polarization Energy =               0.0000000000000000
    EFP Energy =                            0.0000000000000000
    Total Energy =                       -457.4945465106515030
    Molecular point group: c1
  Basis Set: CC-PVTZ
  Basis Set:

  -Total Gradient:
     Atom            X                  Y                   Z
    ------   -----------------  -----------------  -----------------
       1       -0.000004934617     0.000002095478    -0.000001804325
       2        0.000000841875     0.000030852009    -0.000009468689
       3       -0.000013699396    -0.000015706613     0.000025111731
       4        0.000026096897    -0.000014181591    -0.000012516865
       5        0.000001101851     0.000004206680     0.000000719713
       6        0.000017208958    -0.000027117663    -0.000013199808
       7       -0.000003510613     0.000000259321    -0.000003187084
       8       -0.000029844092    -0.000020812780     0.000024236113
       9       -0.000003013422     0.000006277565    -0.000002996915
      10        0.003915358539     0.002068884384     0.001856011901
      11        0.000006911855     0.000002041453    -0.000005244517
      12       -0.005726185462    -0.003224344926    -0.000338860387
      13        0.001920618670     0.001506999290    -0.006607336368
      14       -0.000031964024     0.000052877177    -0.000018735346
      15       -0.000050581787    -0.000349764386     0.005108599676
      16       -0.000013932615    -0.000010147264    -0.000005617470
      17        0.000003105957    -0.000004541598    -0.000005957050
      18       -0.000013578573    -0.000007876536     0.000010245692

  **** Optimization is complete! (in 7 steps) ****
    Final optimized geometry and variables:
    Molecular point group: c1

    Geometry (in Angstrom), charge = 0, multiplicity = 1:

    H           -2.118402735028     0.844449764589     3.253395827122
    C           -1.593772427193     0.641651262140     2.339147352095
    C           -1.547996615159     1.602152641284     1.342520760494
    C           -0.968941649808    -0.576678479126     2.159749504525
    H           -2.035591102905     2.547255709739     1.483211308425
    C           -0.876204758022     1.341678338306     0.168067388411
    H           -1.009046808926    -1.321773912618     2.930483790751
    C           -0.292519121176    -0.838216652432     0.982917568461
    H           -0.832807654496     2.072798325708    -0.613524742451
    C           -0.240389813992     0.120997891957    -0.015168703069
    H            0.186534634937    -1.784143876863     0.836181240296
    C            0.492881545944    -0.113934470022    -1.291511884170
    O            1.132214837803    -1.292774773718    -1.358731990184
    O            0.548189354007     0.676777221730    -2.165316575688
    C            2.544230550516    -1.241127853066    -1.320930154409
    H            2.925485373744    -0.623233607614    -2.121333829806
    H            2.892923637978    -2.253512729392    -1.444059878204
    H            2.882900586106    -0.856526602822    -0.365974224362

  Mulliken Charges: (a.u.)
   Center  Symbol    Alpha    Beta     Spin     Total
       1     H     0.41971  0.41971  0.00000  0.16059
       2     C     3.06918  3.06918  0.00000 -0.13836
       3     C     3.07544  3.07544  0.00000 -0.15088
       4     C     3.07567  3.07567  0.00000 -0.15134
       5     H     0.42004  0.42004  0.00000  0.15992
       6     C     3.07699  3.07699  0.00000 -0.15398
       7     H     0.42106  0.42106  0.00000  0.15788
       8     C     3.09073  3.09073  0.00000 -0.18146
       9     H     0.40648  0.40648  0.00000  0.18705
      10     C     3.02308  3.02308  0.00000 -0.04616
      11     H     0.40808  0.40808  0.00000  0.18383
      12     C     2.76383  2.76383  0.00000  0.47234
      13     O     4.17182  4.17182  0.00000 -0.34363
      14     O     4.18724  4.18724  0.00000 -0.37447
      15     C     3.04276  3.04276  0.00000 -0.08552
      16     H     0.44376  0.44376  0.00000  0.11248
      17     H     0.44252  0.44252  0.00000  0.11497
      18     H     0.46163  0.46163  0.00000  0.07674

   Total alpha = 36.00000, Total beta = 36.00000, Total charge =  0.00000

*** Psi4 exiting successfully. Buy a developer a beer!
