                              Psi4 1.0.54 Driver

  ==> Input File <==

--------------------------------------------------------------------------
set {
	reference rhf
	basis cc-pvtz
}

set_num_threads( 4 )
memory 2 gb

molecule MOL {
0 1

O	 1.847685	 1.294399	 -0.000190
C	 1.704209	 0.119472	 -0.000093
C	 0.380337	 -0.600947	 -0.000234
O	 2.715427	 -0.733672	 0.000025
C	 -0.824290	 0.329213	 -0.000115
H	 0.371455	 -1.255476	 -0.865660
H	 0.371410	 -1.255787	 0.864952
C	 -2.146151	 -0.432825	 -0.000068
H	 -0.773936	 0.979158	 -0.866319
H	 -0.773838	 0.979034	 0.866186
C	 -3.366283	 0.483552	 0.000557
H	 -2.189286	 -1.084450	 -0.869996
H	 -2.188867	 -1.085083	 0.869399
C	 -3.479960	 1.330581	 -1.262388
H	 -3.324244	 1.134841	 0.869011
H	 -4.264586	 -0.116673	 0.114316
H	 -2.610814	 1.968187	 -1.385988
H	 -4.355417	 1.968717	 -1.229338
H	 -3.558991	 0.706785	 -2.146621
C	 4.020999	 -0.192556	 0.000019
H	 4.182809	 0.412891	 -0.879449
H	 4.692590	 -1.035653	 0.000152
H	 4.182726	 0.413087	 0.879368

	symmetry c1
}
set optking {
	frozen_dihedral = ("
		15 11 8 12
	")
}

ee,wfn = optimize('scf', return_wfn=True)
oeprop( wfn, 'DIPOLE', 'QUADRUPOLE', 'MULLIKEN_CHARGES')
f=open( 'psi4out.xyz', 'w' )
f.write( "23  " )
f.write( str(ee) + "\n" )
f.write( MOL.save_string_xyz() )
f.close()
--------------------------------------------------------------------------

    Molecular point group: c1
  Charge       = 0
  Multiplicity = 1
  Basis Set: CC-PVTZ
  Basis Set:
  @DF-RHF Final Energy:  -423.12888318788868
    Total Energy =                       -423.1288831878881638
    Molecular point group: c1
  Basis Set: CC-PVTZ
  Basis Set:
  Basis Set: CC-PVTZ
  Basis Set:
  @DF-RHF Final Energy:  -423.12888050600867
    Total Energy =                       -423.1288805060092955
  Basis Set: CC-PVTZ
  Basis Set:
  Basis Set: CC-PVTZ
  Basis Set:
  @DF-RHF Final Energy:  -423.12943481548410
    Total Energy =                       -423.1294348154845011
  Basis Set: CC-PVTZ
  Basis Set:
  Basis Set: CC-PVTZ
  Basis Set:
  @DF-RHF Final Energy:  -423.12944858523986
    Total Energy =                       -423.1294485852399703
  Basis Set: CC-PVTZ
  Basis Set:
  Basis Set: CC-PVTZ
  Basis Set:
  @DF-RHF Final Energy:  -423.12930178180716
    Total Energy =                       -423.1293017818076123
  Basis Set: CC-PVTZ
  Basis Set:
  Basis Set: CC-PVTZ
  Basis Set:
  @DF-RHF Final Energy:  -423.12945759014639
    Total Energy =                       -423.1294575901462167
  Basis Set: CC-PVTZ
  Basis Set:
  Charge       = 0
  Multiplicity = 1
  Basis Set: CC-PVTZ
  Basis Set:

    Orbital Energies (a.u.)
    -----------------------

    Doubly Occupied:

       1A    -20.596308     2A    -20.534134     3A    -11.364546
       4A    -11.278490     5A    -11.233694     6A    -11.216752
       7A    -11.215994     8A    -11.214832     9A    -11.206201
      10A     -1.472151    11A     -1.365762    12A     -1.094256
      13A     -1.043226    14A     -0.986274    15A     -0.931986
      16A     -0.855743    17A     -0.784710    18A     -0.768991
      19A     -0.698915    20A     -0.686507    21A     -0.676062
      22A     -0.644420    23A     -0.616043    24A     -0.598322
      25A     -0.589792    26A     -0.562575    27A     -0.535015
      28A     -0.528112    29A     -0.522549    30A     -0.514011
      31A     -0.491055    32A     -0.467215    33A     -0.463627
      34A     -0.461350    35A     -0.457386    36A     -0.438440

  @DF-RHF Final Energy:  -423.12945822368130

   => Energetics <=

    Nuclear Repulsion Energy =            457.6891480661802802
    One-Electron Energy =               -1483.4063159936947613
    Two-Electron Energy =                 602.5877097038330703
    DFT Exchange-Correlation Energy =       0.0000000000000000
    Empirical Dispersion Energy =           0.0000000000000000
    PCM Polarization Energy =               0.0000000000000000
    EFP Energy =                            0.0000000000000000
    Total Energy =                       -423.1294582236814676
    Molecular point group: c1
  Basis Set: CC-PVTZ
  Basis Set:

  -Total Gradient:
     Atom            X                  Y                   Z
    ------   -----------------  -----------------  -----------------
       1       -0.000067538886     0.000054462631    -0.000007994904
       2        0.000011815580    -0.000000164716     0.000039784597
       3        0.000013967374     0.000002836087    -0.000040731009
       4        0.000006181281    -0.000075371969    -0.000014985851
       5       -0.000008938154    -0.000008182543     0.000008291920
       6        0.000005781788     0.000000285112     0.000009015066
       7        0.000008649364     0.000009921721     0.000011052724
       8       -0.000008518455     0.000007445524     0.000013845680
       9        0.000001419823     0.000006336812    -0.000008103312
      10       -0.000005525917     0.000003486881    -0.000001759803
      11       -0.000003172956    -0.000019896797    -0.000009801020
      12        0.000006176896     0.000017689616    -0.000015216370
      13        0.000005780359    -0.000010480324     0.000005951388
      14       -0.000001288972    -0.000007354492     0.000009606983
      15        0.000016451319     0.000015878075    -0.000016656845
      16       -0.000014867557     0.000002242196     0.000003739070
      17        0.000006976156     0.000003913229    -0.000000469369
      18       -0.000010271775     0.000000722942     0.000000631110
      19        0.000008567314    -0.000003204026     0.000011577418
      20        0.000008438507     0.000012607038     0.000000630899
      21        0.000008130118    -0.000000158028    -0.000000845385
      22        0.000003367820    -0.000013179985     0.000000717633
      23        0.000008418975     0.000000165017     0.000001719381

  **** Optimization is complete! (in 7 steps) ****
    Final optimized geometry and variables:
    Molecular point group: c1

    Geometry (in Angstrom), charge = 0, multiplicity = 1:

    O            1.736441275148     1.101117288702     0.103924274543
    C            1.581269591739    -0.071670250937     0.145408818732
    C            0.250402187856    -0.778942014711     0.151160065422
    O            2.583772346847    -0.933855834978     0.192568629831
    C           -0.944518355311     0.163055302664     0.107513065024
    H            0.245483313797    -1.458834487855    -0.694625432407
    H            0.224594721766    -1.407503195140     1.035175999796
    C           -2.270655428693    -0.594505576903     0.108079558829
    H           -0.864433265956     0.790330977694    -0.770807539213
    H           -0.903928594871     0.831167527503     0.960858898764
    C           -3.511326451228     0.299266366136     0.144038225527
    H           -2.320200562421    -1.238543002247    -0.767363206716
    H           -2.297350743918    -1.254877236772     0.970948145879
    C           -3.716480525826     1.154574895649    -1.103807571093
    H           -3.462696080244     0.942933007074     1.018158576512
    H           -4.383868383719    -0.331936938387     0.281138571969
    H           -2.918317319695     1.874250082731    -1.238295877536
    H           -4.646178179691     1.708249566266    -1.040276584702
    H           -3.760809068976     0.537559073760    -1.995691917508
    C            3.894662496488    -0.405896929837     0.192093403060
    H            4.075771725267     0.164637728380    -0.706764297080
    H            4.557461829855    -1.254946192583     0.233717764375
    H            4.049846984118     0.230557833979     1.050635943633

  Mulliken Charges: (a.u.)
   Center  Symbol    Alpha    Beta     Spin     Total
       1     O     4.19721  4.19721  0.00000 -0.39441
       2     C     2.80617  2.80617  0.00000  0.38765
       3     C     3.10123  3.10123  0.00000 -0.20246
       4     O     4.14643  4.14643  0.00000 -0.29285
       5     C     3.08634  3.08634  0.00000 -0.17268
       6     H     0.44005  0.44005  0.00000  0.11990
       7     H     0.43935  0.43935  0.00000  0.12131
       8     C     3.09802  3.09802  0.00000 -0.19605
       9     H     0.44462  0.44462  0.00000  0.11075
      10     H     0.44635  0.44635  0.00000  0.10730
      11     C     3.08993  3.08993  0.00000 -0.17987
      12     H     0.45453  0.45453  0.00000  0.09093
      13     H     0.45015  0.45015  0.00000  0.09969
      14     C     3.15273  3.15273  0.00000 -0.30545
      15     H     0.45370  0.45370  0.00000  0.09259
      16     H     0.44835  0.44835  0.00000  0.10331
      17     H     0.45110  0.45110  0.00000  0.09779
      18     H     0.44638  0.44638  0.00000  0.10724
      19     H     0.45553  0.45553  0.00000  0.08893
      20     C     3.03775  3.03775  0.00000 -0.07551
      21     H     0.45434  0.45434  0.00000  0.09131
      22     H     0.44534  0.44534  0.00000  0.10932
      23     H     0.45437  0.45437  0.00000  0.09125

   Total alpha = 36.00000, Total beta = 36.00000, Total charge = -0.00000

*** Psi4 exiting successfully. Buy a developer a beer!
