                              Psi4 1.0.54 Driver

  ==> Input File <==

--------------------------------------------------------------------------
set {
	reference rhf
	basis cc-pvtz
}

set_num_threads( 4 )
memory 2 gb

molecule MOL {
0 1

O	 1.847685	 1.294399	 -0.000190
C	 1.704209	 0.119472	 -0.000093
C	 0.380337	 -0.600947	 -0.000234
O	 2.715427	 -0.733672	 0.000025
C	 -0.824290	 0.329213	 -0.000115
H	 0.371455	 -1.255476	 -0.865660
H	 0.371410	 -1.255787	 0.864952
C	 -0.427188	 1.793340	 0.163166
H	 -1.499265	 0.039589	 0.797256
H	 -1.376840	 0.198330	 -0.923613
C	 -1.622450	 2.741925	 0.165141
H	 0.128715	 1.917285	 1.089913
H	 0.252199	 2.076474	 -0.637775
C	 -1.225668	 4.205204	 0.328820
H	 -2.301219	 2.460652	 0.965338
H	 -2.177496	 2.620155	 -0.760740
H	 -0.698149	 4.365880	 1.263241
H	 -2.096485	 4.850499	 0.326234
H	 -0.573767	 4.526764	 -0.476697
C	 4.020999	 -0.192556	 0.000019
H	 4.182809	 0.412891	 -0.879449
H	 4.692590	 -1.035653	 0.000152
H	 4.182726	 0.413087	 0.879368

	symmetry c1
}
set optking {
	frozen_dihedral = ("
		9 5 3 6
	")
}

ee,wfn = optimize('scf', return_wfn=True)
oeprop( wfn, 'DIPOLE', 'QUADRUPOLE', 'MULLIKEN_CHARGES')
f=open( 'psi4out.xyz', 'w' )
f.write( "23  " )
f.write( str(ee) + "\n" )
f.write( MOL.save_string_xyz() )
f.close()
--------------------------------------------------------------------------

    Molecular point group: c1
  Charge       = 0
  Multiplicity = 1
  Basis Set: CC-PVTZ
  Basis Set:
  @DF-RHF Final Energy:  -423.09219620009691
    Total Energy =                       -423.0921962000970780
    Molecular point group: c1
  Basis Set: CC-PVTZ
  Basis Set:
  Basis Set: CC-PVTZ
  Basis Set:
  @DF-RHF Final Energy:  -423.11246461381523
    Total Energy =                       -423.1124646138156322
  Basis Set: CC-PVTZ
  Basis Set:
  Basis Set: CC-PVTZ
  Basis Set:
  @DF-RHF Final Energy:  -423.11606135316299
    Total Energy =                       -423.1160613531628769
  Basis Set: CC-PVTZ
  Basis Set:
  Basis Set: CC-PVTZ
  Basis Set:
  @DF-RHF Final Energy:  -423.11083904500026
    Total Energy =                       -423.1108390450004890
  Basis Set: CC-PVTZ
  Basis Set:
  @DF-RHF Final Energy:  -423.11780750776580
    Total Energy =                       -423.1178075077654057
  @DF-RHF Final Energy:  -423.11814085191577
    Total Energy =                       -423.1181408519161096
  @DF-RHF Final Energy:  -423.11821090742814
    Total Energy =                       -423.1182109074286473
  @DF-RHF Final Energy:  -423.11837066235773
    Total Energy =                       -423.1183706623576199
  @DF-RHF Final Energy:  -423.11792567910112
    Total Energy =                       -423.1179256791010630
  @DF-RHF Final Energy:  -423.11890323596185
    Total Energy =                       -423.1189032359620796
  @DF-RHF Final Energy:  -423.11911495242083
    Total Energy =                       -423.1191149524212278
  @DF-RHF Final Energy:  -423.11999794584290
    Total Energy =                       -423.1199979458431244
  @DF-RHF Final Energy:  -423.11886171865660
    Total Energy =                       -423.1188617186561487
  @DF-RHF Final Energy:  -423.12085802474684
    Total Energy =                       -423.1208580247466671
  @DF-RHF Final Energy:  -423.12117790839113
    Total Energy =                       -423.1211779083909050
  @DF-RHF Final Energy:  -423.12120527582834
    Total Energy =                       -423.1212052758285154
  @DF-RHF Final Energy:  -423.12150036711756
    Total Energy =                       -423.1215003671172781
  @DF-RHF Final Energy:  -423.12161052720239
    Total Energy =                       -423.1216105272020513
  Basis Set: CC-PVTZ
  Basis Set:
  @DF-RHF Final Energy:  -423.12170789708853
    Total Energy =                       -423.1217078970886405
  Basis Set: CC-PVTZ
  Basis Set:
  Basis Set: CC-PVTZ
  Basis Set:
  @DF-RHF Final Energy:  -423.12172769537625
    Total Energy =                       -423.1217276953756254
  Basis Set: CC-PVTZ
  Basis Set:
  Basis Set: CC-PVTZ
  Basis Set:
  @DF-RHF Final Energy:  -423.12174261786583
    Total Energy =                       -423.1217426178654932
  Basis Set: CC-PVTZ
  Basis Set:
  Charge       = 0
  Multiplicity = 1
  Basis Set: CC-PVTZ
  Basis Set:

    Orbital Energies (a.u.)
    -----------------------

    Doubly Occupied:

       1A    -20.597464     2A    -20.531207     3A    -11.363469
       4A    -11.278183     5A    -11.232161     6A    -11.228299
       7A    -11.216281     8A    -11.215135     9A    -11.208138
      10A     -1.471716    11A     -1.363940    12A     -1.093783
      13A     -1.042755    14A     -0.984224    15A     -0.936432
      16A     -0.848264    17A     -0.801965    18A     -0.770160
      19A     -0.690413    20A     -0.681280    21A     -0.675597
      22A     -0.652674    23A     -0.607271    24A     -0.599871
      25A     -0.578612    26A     -0.569628    27A     -0.546121
      28A     -0.533595    29A     -0.526209    30A     -0.509539
      31A     -0.487855    32A     -0.474236    33A     -0.468152
      34A     -0.458720    35A     -0.453810    36A     -0.433789

  @DF-RHF Final Energy:  -423.12174353380362

   => Energetics <=

    Nuclear Repulsion Energy =            471.9315064381950151
    One-Electron Energy =               -1511.8445961497823191
    Two-Electron Energy =                 616.7913461777837938
    DFT Exchange-Correlation Energy =       0.0000000000000000
    Empirical Dispersion Energy =           0.0000000000000000
    PCM Polarization Energy =               0.0000000000000000
    EFP Energy =                            0.0000000000000000
    Total Energy =                       -423.1217435338036239
    Molecular point group: c1
  Basis Set: CC-PVTZ
  Basis Set:

  -Total Gradient:
     Atom            X                  Y                   Z
    ------   -----------------  -----------------  -----------------
       1        0.000004299221    -0.000000718962     0.000019689519
       2       -0.000053915757    -0.000017128978    -0.000114092964
       3       -0.001448967531    -0.001635708312     0.001104871836
       4        0.000069481902    -0.000013550052     0.000052721499
       5       -0.000610228423    -0.000794134443    -0.002149373869
       6        0.001369210581     0.001484130566    -0.000587550979
       7       -0.000020697360    -0.000013962695    -0.000003271169
       8        0.000028182609    -0.000026050388     0.000047092837
       9        0.000772840569     0.000999279424     0.001662196620
      10       -0.000002479442    -0.000013681366    -0.000005386161
      11       -0.000023416742     0.000010941747    -0.000010282562
      12       -0.000011701354     0.000014888981    -0.000017330120
      13       -0.000016813159    -0.000007690817    -0.000000771145
      14        0.000000182448     0.000001398912     0.000001050116
      15        0.000007052794     0.000004574541    -0.000000716671
      16        0.000002749835    -0.000000515887     0.000004574694
      17       -0.000002525362    -0.000000342119    -0.000006831445
      18        0.000003550682    -0.000001060497    -0.000000034528
      19       -0.000003023478    -0.000006287346     0.000002723831
      20       -0.000093594826     0.000019866118    -0.000003889474
      21       -0.000009573745    -0.000007314264     0.000003054819
      22        0.000018087334    -0.000001222642    -0.000011278494
      23        0.000021299204     0.000004288479     0.000012833813

  **** Optimization is complete! (in 22 steps) ****
    Final optimized geometry and variables:
    Molecular point group: c1

    Geometry (in Angstrom), charge = 0, multiplicity = 1:

    O            1.825486855859    -0.655735125978    -1.055374985264
    C            1.082886057717    -1.080454734667    -0.235789428789
    C           -0.264686043005    -1.687391822785    -0.537262264345
    O            1.356034901686    -1.071505205246     1.058526229347
    C           -1.427521004779    -0.657652492145    -0.621185146703
    H           -0.149857102024    -2.181797465533    -1.490611416824
    H           -0.477891093644    -2.431126368452     0.216248983700
    C           -1.117420256810     0.765218110343    -0.154462735179
    H           -2.249105863572    -1.032974150782    -0.022569388091
    H           -1.779384363735    -0.617078318016    -1.644479811709
    C           -2.329135449299     1.686758584843    -0.264317042647
    H           -0.777692100881     0.746590637839     0.876874115522
    H           -0.304281838997     1.176143472518    -0.743985904325
    C           -2.037243950961     3.111083821187     0.195819022225
    H           -3.147018160246     1.279097473331     0.323581294482
    H           -2.673770415375     1.705158548203    -1.294509653615
    H           -1.723515071073     3.130288592081     1.234235925164
    H           -2.914995253152     3.740340071741     0.104305353038
    H           -1.245908205039     3.558597196789    -0.395922477594
    C            2.588403249710    -0.505042849480     1.456111341273
    H            3.413935025166    -1.037120891949     1.007507510931
    H            2.625551030263    -0.596081261785     2.529564337244
    H            2.640943982544     0.534400448886     1.167775033337

  Mulliken Charges: (a.u.)
   Center  Symbol    Alpha    Beta     Spin     Total
       1     O     4.20894  4.20894  0.00000 -0.41788
       2     C     2.79146  2.79146  0.00000  0.41707
       3     C     3.08788  3.08788  0.00000 -0.17575
       4     O     4.15467  4.15467  0.00000 -0.30935
       5     C     3.09860  3.09860  0.00000 -0.19719
       6     H     0.43706  0.43706  0.00000  0.12588
       7     H     0.44152  0.44152  0.00000  0.11697
       8     C     3.09951  3.09951  0.00000 -0.19903
       9     H     0.44941  0.44941  0.00000  0.10118
      10     H     0.44750  0.44750  0.00000  0.10501
      11     C     3.08661  3.08661  0.00000 -0.17323
      12     H     0.44817  0.44817  0.00000  0.10365
      13     H     0.44351  0.44351  0.00000  0.11298
      14     C     3.15029  3.15029  0.00000 -0.30057
      15     H     0.45461  0.45461  0.00000  0.09077
      16     H     0.45358  0.45358  0.00000  0.09284
      17     H     0.45549  0.45549  0.00000  0.08901
      18     H     0.44817  0.44817  0.00000  0.10367
      19     H     0.45354  0.45354  0.00000  0.09292
      20     C     3.04166  3.04166  0.00000 -0.08332
      21     H     0.44941  0.44941  0.00000  0.10119
      22     H     0.44499  0.44499  0.00000  0.11003
      23     H     0.45342  0.45342  0.00000  0.09316

   Total alpha = 36.00000, Total beta = 36.00000, Total charge = -0.00000

*** Psi4 exiting successfully. Buy a developer a beer!
