                              Psi4 1.0.54 Driver

  ==> Input File <==

--------------------------------------------------------------------------
set {
	reference rhf
	basis cc-pvtz
}

set_num_threads( 4 )
memory 2 gb

molecule MOL {
0 1

O	 -2.687189	 0.557746	 -0.168081
C	 -2.112379	 -0.304678	 0.412651
C	 -0.884917	 -0.965033	 -0.183434
C	 -2.558777	 -0.774481	 1.776756
C	 0.376695	 -0.140025	 0.100361
H	 -1.038546	 -1.037655	 -1.252656
H	 -0.766936	 -1.967768	 0.213389
C	 1.630207	 -0.772146	 -0.501001
H	 0.226993	 0.856466	 -0.295648
H	 0.511123	 -0.033480	 1.174082
C	 2.907848	 -0.545876	 0.309149
H	 1.772784	 -0.391628	 -1.509394
H	 1.468529	 -1.842059	 -0.599744
C	 3.373802	 0.906639	 0.372125
H	 3.699140	 -1.146831	 -0.127906
H	 2.764321	 -0.923458	 1.318191
H	 3.519798	 1.311927	 -0.623875
H	 4.316899	 0.983758	 0.900700
H	 2.661122	 1.540651	 0.885346
H	 -2.930160	 -1.791422	 1.699931
H	 -3.340497	 -0.133089	 2.153717
H	 -1.724045	 -0.789920	 2.468547

	symmetry c1
}
set optking {
	frozen_dihedral = ("
		3 5 8 12
	")
}

ee,wfn = optimize('scf', return_wfn=True)
oeprop( wfn, 'DIPOLE', 'QUADRUPOLE', 'MULLIKEN_CHARGES')
f=open( 'psi4out.xyz', 'w' )
f.write( "22  " )
f.write( str(ee) + "\n" )
f.write( MOL.save_string_xyz() )
f.close()
--------------------------------------------------------------------------

    Molecular point group: c1
  Charge       = 0
  Multiplicity = 1
  Basis Set: CC-PVTZ
  Basis Set:
  @DF-RHF Final Energy:  -348.22067089938560
    Total Energy =                       -348.2206708993859365
    Molecular point group: c1
  Basis Set: CC-PVTZ
  Basis Set:
  Basis Set: CC-PVTZ
  Basis Set:
  @DF-RHF Final Energy:  -348.22065598372654
    Total Energy =                       -348.2206559837259761
  Basis Set: CC-PVTZ
  Basis Set:
  Basis Set: CC-PVTZ
  Basis Set:
  @DF-RHF Final Energy:  -348.22099630474560
    Total Energy =                       -348.2209963047454835
  Basis Set: CC-PVTZ
  Basis Set:
  Basis Set: CC-PVTZ
  Basis Set:
  @DF-RHF Final Energy:  -348.22086085389253
    Total Energy =                       -348.2208608538923045
  Basis Set: CC-PVTZ
  Basis Set:
  @DF-RHF Final Energy:  -348.22097795715803
    Total Energy =                       -348.2209779571579702
  Basis Set: CC-PVTZ
  Basis Set:
  @DF-RHF Final Energy:  -348.22102137522791
    Total Energy =                       -348.2210213752276218
  Basis Set: CC-PVTZ
  Basis Set:
  Basis Set: CC-PVTZ
  Basis Set:
  @DF-RHF Final Energy:  -348.22101327654161
    Total Energy =                       -348.2210132765412709
  Basis Set: CC-PVTZ
  Basis Set:
  Basis Set: CC-PVTZ
  Basis Set:
  @DF-RHF Final Energy:  -348.22102196432439
    Total Energy =                       -348.2210219643243931
  Basis Set: CC-PVTZ
  Basis Set:
  Charge       = 0
  Multiplicity = 1
  Basis Set: CC-PVTZ
  Basis Set:

    Orbital Energies (a.u.)
    -----------------------

    Doubly Occupied:

       1A    -20.536722     2A    -11.319183     3A    -11.228275
       4A    -11.227681     5A    -11.226969     6A    -11.220478
       7A    -11.219387     8A    -11.210476     9A     -1.396841
      10A     -1.096858    11A     -1.046138    12A     -1.000003
      13A     -0.938244    14A     -0.859771    15A     -0.786708
      16A     -0.735238    17A     -0.664862    18A     -0.645899
      19A     -0.629108    20A     -0.619849    21A     -0.595697
      22A     -0.591270    23A     -0.561296    24A     -0.540011
      25A     -0.535750    26A     -0.525658    27A     -0.497384
      28A     -0.491925    29A     -0.469989    30A     -0.467180
      31A     -0.460013    32A     -0.398361

  @DF-RHF Final Energy:  -348.22102208772060

   => Energetics <=

    Nuclear Repulsion Energy =            373.8549699767328320
    One-Electron Energy =               -1212.6655329042578160
    Two-Electron Energy =                 490.5895408398041582
    DFT Exchange-Correlation Energy =       0.0000000000000000
    Empirical Dispersion Energy =           0.0000000000000000
    PCM Polarization Energy =               0.0000000000000000
    EFP Energy =                            0.0000000000000000
    Total Energy =                       -348.2210220877208258
    Molecular point group: c1
  Basis Set: CC-PVTZ
  Basis Set:

  -Total Gradient:
     Atom            X                  Y                   Z
    ------   -----------------  -----------------  -----------------
       1       -0.000006694555     0.000010719068    -0.000010989774
       2        0.000003123446    -0.000025281590    -0.000000837858
       3        0.000434002883    -0.001572164575     0.002443459828
       4        0.000015639672    -0.000001582294     0.000010537212
       5       -0.000068642069     0.002879431318    -0.003017230505
       6        0.000001679131     0.000001750751    -0.000001812875
       7       -0.000011863738    -0.000004867268     0.000007634763
       8       -0.002679520911    -0.004265688384    -0.000941883757
       9        0.000007127386    -0.000002104079     0.000001765692
      10        0.000004663997     0.000001160736    -0.000012762316
      11       -0.000007422588     0.000011983835     0.000022285594
      12        0.002311119569     0.002971125479     0.001506667112
      13       -0.000009492968     0.000002058495     0.000000764727
      14        0.000009489846    -0.000018541954    -0.000000047460
      15       -0.000001180560     0.000012093430    -0.000003103228
      16        0.000005954797    -0.000008571541     0.000008785958
      17        0.000000608119     0.000007854224    -0.000019248883
      18        0.000004795444    -0.000000689025     0.000004177209
      19       -0.000008339771    -0.000002230587     0.000007205113
      20       -0.000000104328     0.000002731976    -0.000003625073
      21       -0.000000322906     0.000003956289    -0.000003481579
      22       -0.000004619899    -0.000003144305     0.000001740099

  **** Optimization is complete! (in 9 steps) ****
    Final optimized geometry and variables:
    Molecular point group: c1

    Geometry (in Angstrom), charge = 0, multiplicity = 1:

    O           -2.663745670186     0.850295437162    -0.430810956032
    C           -2.116249758747    -0.027869676331     0.152587946662
    C           -0.904874220974    -0.722665933577    -0.437411207082
    C           -2.583280592480    -0.485796577763     1.513752649265
    C            0.379113661590     0.067692494301    -0.153814124987
    H           -1.060568514542    -0.799585881116    -1.506537167346
    H           -0.810348899219    -1.724701077432    -0.033600649379
    C            1.619950296245    -0.575823894839    -0.789499837704
    H            0.253783776974     1.083790937391    -0.505077946799
    H            0.518895582305     0.127389781533     0.922569249025
    C            2.913516485205    -0.338904307316    -0.006879010735
    H            1.757303419185    -0.174355886869    -1.789458240917
    H            1.466280459399    -1.644859765711    -0.891250397668
    C            3.328893828595     1.127193095648     0.081273027282
    H            3.711932339788    -0.902575323863    -0.479497182812
    H            2.806284609189    -0.745657423997     0.995407996045
    H            3.461639696482     1.553350011600    -0.907900265511
    H            4.266732878339     1.231979696741     0.614312613477
    H            2.589346028209     1.725417793669     0.600795066375
    H           -2.981717717843    -1.492224938368     1.434030100270
    H           -3.349572257931     0.176463084328     1.886245458788
    H           -1.753551720014    -0.524227106052     2.210673111743

  Mulliken Charges: (a.u.)
   Center  Symbol    Alpha    Beta     Spin     Total
       1     O     4.17761  4.17761  0.00000 -0.35522
       2     C     2.85913  2.85913  0.00000  0.28174
       3     C     3.09676  3.09676  0.00000 -0.19352
       4     C     3.15561  3.15561  0.00000 -0.31123
       5     C     3.10739  3.10739  0.00000 -0.21479
       6     H     0.43915  0.43915  0.00000  0.12169
       7     H     0.44916  0.44916  0.00000  0.10168
       8     C     3.09655  3.09655  0.00000 -0.19311
       9     H     0.43638  0.43638  0.00000  0.12724
      10     H     0.45221  0.45221  0.00000  0.09558
      11     C     3.09081  3.09081  0.00000 -0.18162
      12     H     0.44899  0.44899  0.00000  0.10203
      13     H     0.44795  0.44795  0.00000  0.10409
      14     C     3.15049  3.15049  0.00000 -0.30098
      15     H     0.44802  0.44802  0.00000  0.10396
      16     H     0.45594  0.45594  0.00000  0.08812
      17     H     0.45361  0.45361  0.00000  0.09278
      18     H     0.44634  0.44634  0.00000  0.10731
      19     H     0.45266  0.45266  0.00000  0.09467
      20     H     0.44832  0.44832  0.00000  0.10336
      21     H     0.43599  0.43599  0.00000  0.12803
      22     H     0.45090  0.45090  0.00000  0.09819

   Total alpha = 32.00000, Total beta = 32.00000, Total charge = -0.00000

*** Psi4 exiting successfully. Buy a developer a beer!
