  ==> Input File <==

--------------------------------------------------------------------------
set {
	reference rhf
	basis cc-pvtz
}

set_num_threads( 4 )
memory 2 gb

molecule MOL {
0 1

H	 -2.781808	 -1.056415	 -0.169428
N	 -1.849889	 -0.932170	 0.163978
C	 -1.376901	 0.414041	 -0.100862
H	 -1.270628	 -1.596146	 -0.304626
C	 0.038895	 0.586414	 0.399597
H	 -1.403360	 0.682884	 -1.156119
H	 -2.011483	 1.115566	 0.429438
O	 0.881195	 -0.248324	 -0.336237
H	 0.347640	 1.624520	 0.284773
H	 0.086766	 0.331336	 1.455804
C	 2.208068	 -0.234417	 0.074171
H	 2.725499	 -1.027054	 -0.446768
H	 2.688377	 0.712084	 -0.164856
H	 2.295137	 -0.403407	 1.144883

	symmetry c1
}
set optking {
	frozen_dihedral = ("
		5 8 11 13
	")
}

ee = optimize('scf')
oeprop('DIPOLE', 'QUADRUPOLE', 'MULLIKEN_CHARGES')
f=open( 'psi4out.xyz', 'w' )
f.write( "14  " )
f.write( str(ee) + "\n" )
f.write( MOL.save_string_xyz() )
f.close()
--------------------------------------------------------------------------

    Molecular point group: c1
  Charge       = 0
  Multiplicity = 1
  Basis Set: CC-PVTZ
  Basis Set:
  @DF-RHF Final Energy:  -248.22597632395636
    Total Energy =                       -248.2259763239564450
    Molecular point group: c1
  Basis Set: CC-PVTZ
  Basis Set:
  Basis Set: CC-PVTZ
  Basis Set:
  @DF-RHF Final Energy:  -248.22598595188336
    Total Energy =                       -248.2259859518832741
  Basis Set: CC-PVTZ
  Basis Set:
  Charge       = 0
  Multiplicity = 1
  Basis Set: CC-PVTZ
  Basis Set:

    Orbital Energies (a.u.)
    -----------------------

    Doubly Occupied:

       1A    -20.550634     2A    -15.523515     3A    -11.263987
       4A    -11.263605     5A    -11.239886     6A     -1.384388
       7A     -1.176003     8A     -1.000665     9A     -0.907680
      10A     -0.815721    11A     -0.685179    12A     -0.676226
      13A     -0.647320    14A     -0.611944    15A     -0.607975
      16A     -0.541985    17A     -0.530821    18A     -0.497852
      19A     -0.474319    20A     -0.420087    21A     -0.383872

  @DF-RHF Final Energy:  -248.22598676529833

   => Energetics <=

    Nuclear Repulsion Energy =            194.6744053801515975
    One-Electron Energy =                -723.3934544676724272
    Two-Electron Energy =                 280.4930623222223289
    DFT Exchange-Correlation Energy =       0.0000000000000000
    Empirical Dispersion Energy =           0.0000000000000000
    PCM Polarization Energy =               0.0000000000000000
    EFP Energy =                            0.0000000000000000
    Total Energy =                       -248.2259867652985008
    Molecular point group: c1
  Basis Set: CC-PVTZ
  Basis Set:

  -Total Gradient:
     Atom            X                  Y                   Z
    ------   -----------------  -----------------  -----------------
       1       -0.000005036361     0.000003658220     0.000002018627
       2       -0.000001746309    -0.000005849261     0.000006024168
       3        0.000027832617     0.000000178289    -0.000046198272
       4        0.000000127301     0.000007082395     0.000006846659
       5       -0.000216588836    -0.000803818052     0.000742510101
       6       -0.000020063894     0.000003130677    -0.000011838608
       7        0.000011450221    -0.000005807128    -0.000001447360
       8        0.000383840852     0.000988162833    -0.001260556202
       9        0.000003539863    -0.000007371307    -0.000015904657
      10        0.000000134741     0.000009255344     0.000003358113
      11       -0.000525179204     0.000297743344     0.001738735050
      12       -0.000000867503     0.000012673802     0.000006004173
      13        0.000366674748    -0.000482441891    -0.001171283460
      14       -0.000024118233    -0.000016597263     0.000001731668

  **** Optimization is complete! (in 3 steps) ****
    Final optimized geometry and variables:
    Molecular point group: c1

    Geometry (in Angstrom), charge = 0, multiplicity = 1:

    H           -2.772492348398    -0.956646510313    -0.207377301764
    N           -1.841613562443    -0.832026149766     0.128746484216
    C           -1.367621768525     0.513785869053    -0.136170710836
    H           -1.261055635455    -1.496694093817    -0.337191451983
    C            0.047102044405     0.686054828363     0.367608657190
    H           -1.391536775962     0.781777842993    -1.191709687435
    H           -2.003133432915     1.216150705044     0.391934202867
    O            0.890109775455    -0.151410269806    -0.364429054891
    H            0.355908207864     1.724264134923     0.252213125183
    H            0.092695819204     0.432126776787     1.423928905926
    C            2.218752335497    -0.134605163008     0.040944691720
    H            2.735503821134    -0.925037448857    -0.484623909213
    H            2.697304388154     0.810857442251    -0.205487601818
    H            2.313039956878    -0.306922250168     1.110005123531

  Mulliken Charges: (a.u.)
   Center  Symbol    Alpha    Beta     Spin     Total
       1     H     0.43024  0.43024  0.00000  0.13953
       2     N     3.69420  3.69420  0.00000 -0.38839
       3     C     3.02197  3.02197  0.00000 -0.04394
       4     H     0.42247  0.42247  0.00000  0.15507
       5     C     2.96946  2.96946  0.00000  0.06107
       6     H     0.46451  0.46451  0.00000  0.07097
       7     H     0.45869  0.45869  0.00000  0.08261
       8     O     4.18025  4.18025  0.00000 -0.36050
       9     H     0.47050  0.47050  0.00000  0.05901
      10     H     0.46767  0.46767  0.00000  0.06466
      11     C     3.03162  3.03162  0.00000 -0.06325
      12     H     0.44795  0.44795  0.00000  0.10410
      13     H     0.46926  0.46926  0.00000  0.06147
      14     H     0.47121  0.47121  0.00000  0.05758

   Total alpha = 21.00000, Total beta = 21.00000, Total charge = -0.00000
