  ==> Input File <==

--------------------------------------------------------------------------
set {
	reference rhf
	basis 6-31G*
}

set_num_threads( 4 )
memory 2 gb

molecule MOL {
0 1

O	 0.749854	 1.307668	 -0.000040
C	 0.576249	 0.131685	 -0.000108
C	 -0.766779	 -0.556801	 -0.000461
O	 1.568443	 -0.749345	 -0.000005
C	 -1.945214	 0.412366	 0.000161
H	 -0.796911	 -1.211249	 -0.867467
H	 -0.796854	 -1.212390	 0.865687
C	 -3.139854	 -0.137674	 0.777887
H	 -2.235451	 0.623721	 -1.023408
H	 -1.630136	 1.358710	 0.426464
H	 -3.494567	 -1.071357	 0.350256
H	 -3.966316	 0.565333	 0.765861
H	 -2.882881	 -0.327147	 1.816414
C	 2.886820	 -0.232538	 0.000322
H	 3.059106	 0.369571	 -0.880203
H	 3.540187	 -1.091012	 0.000050
H	 3.059019	 0.368956	 0.881266

	symmetry c1
}
set optking {
	frozen_dihedral = ("
		9 5 3 6
	")
}

ee = optimize('scf')
oeprop('DIPOLE', 'QUADRUPOLE', 'MULLIKEN_CHARGES')
f=open( 'psi4out.xyz', 'w' )
f.write( "17  " )
f.write( str(ee) + "\n" )
f.write( MOL.save_string_xyz() )
f.close()
--------------------------------------------------------------------------

    Molecular point group: c1
  Charge       = 0
  Multiplicity = 1
  Basis Set: 6-31G*
  Basis Set:
  @DF-RHF Final Energy:  -344.90377228681950
    Total Energy =                       -344.9037722868199580
    Molecular point group: c1
  Basis Set: 6-31G*
  Basis Set:
  Basis Set: 6-31G*
  Basis Set:
  @DF-RHF Final Energy:  -344.90404550527160
    Total Energy =                       -344.9040455052717107
  Basis Set: 6-31G*
  Basis Set:
  Basis Set: 6-31G*
  Basis Set:
  @DF-RHF Final Energy:  -344.90405464508740
    Total Energy =                       -344.9040546450874558
  Basis Set: 6-31G*
  Basis Set:
  Basis Set: 6-31G*
  Basis Set:
  @DF-RHF Final Energy:  -344.90410557207701
    Total Energy =                       -344.9041055720767304
  Basis Set: 6-31G*
  Basis Set:
  Basis Set: 6-31G*
  Basis Set:
  @DF-RHF Final Energy:  -344.90411173427282
    Total Energy =                       -344.9041117342726466
  Basis Set: 6-31G*
  Basis Set:
  Charge       = 0
  Multiplicity = 1
  Basis Set: 6-31G*
  Basis Set:

    Orbital Energies (a.u.)
    -----------------------

    Doubly Occupied:

       1A    -20.603983     2A    -20.546123     3A    -11.372864
       4A    -11.281120     5A    -11.236198     6A    -11.221059
       7A    -11.213939     8A     -1.469860     9A     -1.363251
      10A     -1.078815    11A     -1.001515    12A     -0.939160
      13A     -0.827381    14A     -0.766870    15A     -0.700094
      16A     -0.683014    17A     -0.672513    18A     -0.634614
      19A     -0.597349    20A     -0.573114    21A     -0.570118
      22A     -0.528686    23A     -0.523488    24A     -0.493335
      25A     -0.486702    26A     -0.477317    27A     -0.457032
      28A     -0.438488

  @DF-RHF Final Energy:  -344.90411213384306

   => Energetics <=

    Nuclear Repulsion Energy =            312.5241129212940336
    One-Electron Energy =               -1089.3404433238629281
    Two-Electron Energy =                 431.9122182687260079
    DFT Exchange-Correlation Energy =       0.0000000000000000
    Empirical Dispersion Energy =           0.0000000000000000
    PCM Polarization Energy =               0.0000000000000000
    EFP Energy =                            0.0000000000000000
    Total Energy =                       -344.9041121338428297
    Molecular point group: c1
  Basis Set: 6-31G*
  Basis Set:

  -Total Gradient:
     Atom            X                  Y                   Z
    ------   -----------------  -----------------  -----------------
       1       -0.000013798405     0.000007271558     0.000028910655
       2        0.000057562521    -0.000069108851    -0.000129181061
       3       -0.003151360155    -0.003907815767     0.002649576941
       4       -0.000024158049    -0.000016008544     0.000055666229
       5        0.003428182687     0.004370337704    -0.000557705318
       6        0.002125886389     0.002544202480    -0.002007483818
       7        0.000076083805     0.000005622663    -0.000006014155
       8       -0.000010130784     0.000016190537    -0.000073456652
       9       -0.002451744170    -0.002939119375     0.000055975677
      10       -0.000025500610    -0.000011266862     0.000013104838
      11       -0.000028785285    -0.000004114646    -0.000007517021
      12        0.000004618687    -0.000003490073     0.000007640867
      13        0.000035783355    -0.000002563995    -0.000018293159
      14       -0.000011531009     0.000017142177    -0.000008767843
      15        0.000005985362     0.000000917980    -0.000001127140
      16       -0.000011346198    -0.000005770680    -0.000001080642
      17       -0.000005748150    -0.000002426307    -0.000000248398

  **** Optimization is complete! (in 6 steps) ****
    Final optimized geometry and variables:
    Molecular point group: c1

    Geometry (in Angstrom), charge = 0, multiplicity = 1:

    O            0.749605083890     1.286673423489    -0.110670706222
    C            0.562426211522     0.112869623900    -0.102913944180
    C           -0.785087102726    -0.572769343409    -0.073476595988
    O            1.546332422814    -0.777679507115    -0.120348150596
    C           -1.972306704962     0.396538087009    -0.090906963907
    H           -0.800504719763    -1.231960847338    -0.936159676796
    H           -0.797247527921    -1.211462865585     0.804572517041
    C           -3.193447215730    -0.176841015573     0.630734499026
    H           -2.250668063728     0.601512483120    -1.119955865312
    H           -1.683414051514     1.337569402953     0.358021271041
    H           -3.507705986366    -1.120011586156     0.192033044996
    H           -4.033335216409     0.508120994005     0.575211042489
    H           -2.980937760476    -0.355634856279     1.681025970047
    C            2.869387735683    -0.273789720953    -0.147276009700
    H            3.030499040955     0.323737726009    -1.032988282759
    H            3.514212420236    -1.138692010853    -0.157254368999
    H            3.064531358854     0.328737822220     0.728139432718

  Mulliken Charges: (a.u.)
   Center  Symbol    Alpha    Beta     Spin     Total
       1     O     4.28508  4.28508  0.00000 -0.57015
       2     C     2.61158  2.61158  0.00000  0.77684
       3     C     3.20648  3.20648  0.00000 -0.41297
       4     O     4.30581  4.30581  0.00000 -0.61163
       5     C     3.15643  3.15643  0.00000 -0.31287
       6     H     0.39894  0.39894  0.00000  0.20211
       7     H     0.39943  0.39943  0.00000  0.20114
       8     C     3.24332  3.24332  0.00000 -0.48663
       9     H     0.41649  0.41649  0.00000  0.16702
      10     H     0.39885  0.39885  0.00000  0.20229
      11     H     0.42189  0.42189  0.00000  0.15622
      12     H     0.41625  0.41625  0.00000  0.16750
      13     H     0.42075  0.42075  0.00000  0.15851
      14     C     3.09218  3.09218  0.00000 -0.18437
      15     H     0.40900  0.40900  0.00000  0.18201
      16     H     0.40844  0.40844  0.00000  0.18311
      17     H     0.40907  0.40907  0.00000  0.18186

   Total alpha = 28.00000, Total beta = 28.00000, Total charge =  0.00000
