  ==> Input File <==

--------------------------------------------------------------------------
set {
	reference rhf
	basis 6-31G*
}

set_num_threads( 4 )
memory 2 gb

molecule MOL {
0 1

H	 3.654866	 -0.813532	 1.079875
O	 2.783023	 -1.088900	 0.813757
C	 2.029793	 0.001735	 0.673842
C	 0.624473	 -0.343591	 0.253101
O	 2.456765	 1.093089	 0.867895
C	 -0.265902	 0.883932	 0.072916
H	 0.701083	 -0.929458	 -0.656989
H	 0.219369	 -1.015488	 1.005562
C	 -1.728698	 0.646073	 0.462102
H	 -0.209144	 1.219470	 -0.958188
H	 0.135059	 1.692851	 0.673903
C	 -2.482460	 -0.343073	 -0.431425
H	 -2.245265	 1.602650	 0.432430
H	 -1.779332	 0.308348	 1.496285
C	 -3.960546	 -0.461025	 -0.060175
H	 -2.395034	 -0.026811	 -1.468912
H	 -2.024850	 -1.327147	 -0.371646
H	 -4.472726	 -1.168004	 -0.705284
H	 -4.465146	 0.496508	 -0.151489
H	 -4.081218	 -0.800940	 0.964585

	symmetry c1
}
set optking {
	frozen_dihedral = ("
		7 4 6 10
	")
}

ee = optimize('scf')
oeprop('DIPOLE', 'QUADRUPOLE', 'MULLIKEN_CHARGES')
f=open( 'psi4out.xyz', 'w' )
f.write( "20  " )
f.write( str(ee) + "\n" )
f.write( MOL.save_string_xyz() )
f.close()
--------------------------------------------------------------------------

    Molecular point group: c1
  Charge       = 0
  Multiplicity = 1
  Basis Set: 6-31G*
  Basis Set:
  @DF-RHF Final Energy:  -383.94636378270224
    Total Energy =                       -383.9463637827026332
    Molecular point group: c1
  Basis Set: 6-31G*
  Basis Set:
  Basis Set: 6-31G*
  Basis Set:
  @DF-RHF Final Energy:  -383.94654517588748
    Total Energy =                       -383.9465451758872518
  Basis Set: 6-31G*
  Basis Set:
  Basis Set: 6-31G*
  Basis Set:
  @DF-RHF Final Energy:  -383.94656969226565
    Total Energy =                       -383.9465696922653706
  Basis Set: 6-31G*
  Basis Set:
  Basis Set: 6-31G*
  Basis Set:
  @DF-RHF Final Energy:  -383.94667561362866
    Total Energy =                       -383.9466756136285994
  Basis Set: 6-31G*
  Basis Set:
  @DF-RHF Final Energy:  -383.94650053033178
    Total Energy =                       -383.9465005303317184
  Basis Set: 6-31G*
  Basis Set:
  @DF-RHF Final Energy:  -383.94670766897514
    Total Energy =                       -383.9467076689751934
  Basis Set: 6-31G*
  Basis Set:
  Basis Set: 6-31G*
  Basis Set:
  @DF-RHF Final Energy:  -383.94670280208857
    Total Energy =                       -383.9467028020887369
  Basis Set: 6-31G*
  Basis Set:
  Basis Set: 6-31G*
  Basis Set:
  @DF-RHF Final Energy:  -383.94671109263851
    Total Energy =                       -383.9467110926385658
  Basis Set: 6-31G*
  Basis Set:
  Charge       = 0
  Multiplicity = 1
  Basis Set: 6-31G*
  Basis Set:

    Orbital Energies (a.u.)
    -----------------------

    Doubly Occupied:

       1A    -20.612580     2A    -20.552030     3A    -11.381476
       4A    -11.240695     5A    -11.221863     6A    -11.220287
       7A    -11.219535     8A    -11.212210     9A     -1.474856
      10A     -1.365797    11A     -1.095531    12A     -1.039939
      13A     -0.961311    14A     -0.868441    15A     -0.816136
      16A     -0.776096    17A     -0.700139    18A     -0.690048
      19A     -0.664217    20A     -0.635978    21A     -0.601224
      22A     -0.593364    23A     -0.574976    24A     -0.550712
      25A     -0.546932    26A     -0.510418    27A     -0.497247
      28A     -0.479478    29A     -0.467765    30A     -0.466927
      31A     -0.457100    32A     -0.444622

  @DF-RHF Final Energy:  -383.94671118820509

   => Energetics <=

    Nuclear Repulsion Energy =            376.0339041255475649
    One-Electron Energy =               -1268.0813723072210450
    Two-Electron Energy =                 508.1007569934684511
    DFT Exchange-Correlation Energy =       0.0000000000000000
    Empirical Dispersion Energy =           0.0000000000000000
    PCM Polarization Energy =               0.0000000000000000
    EFP Energy =                            0.0000000000000000
    Total Energy =                       -383.9467111882050290
    Molecular point group: c1
  Basis Set: 6-31G*
  Basis Set:

  -Total Gradient:
     Atom            X                  Y                   Z
    ------   -----------------  -----------------  -----------------
       1        0.000004017452    -0.000002198573    -0.000001721592
       2       -0.000000168424     0.000003273891     0.000012209042
       3       -0.000003791281     0.000001553249    -0.000018998058
       4       -0.004075826790    -0.002671942129     0.001133844215
       5       -0.000001643709    -0.000004762094    -0.000003382530
       6        0.003955194600     0.002857449061     0.000618913669
       7        0.002740182608     0.001768274996    -0.001011631664
       8       -0.000002572755    -0.000004627166    -0.000008480031
       9        0.000005191340    -0.000019587402     0.000020430641
      10       -0.002610378273    -0.001939603916    -0.000731840490
      11        0.000002015507    -0.000000763096    -0.000001127865
      12       -0.000007395981     0.000022467500    -0.000014125434
      13        0.000000533703    -0.000008219451    -0.000003882121
      14       -0.000006029516     0.000001779098     0.000007938828
      15        0.000002599489    -0.000008580698     0.000006505315
      16        0.000000880213     0.000002295597    -0.000003797630
      17       -0.000003340907     0.000003693702     0.000000494359
      18        0.000000892575    -0.000005250485     0.000003754979
      19        0.000000756821    -0.000001506554    -0.000006765201
      20       -0.000001116681     0.000006254469     0.000001661569

  **** Optimization is complete! (in 9 steps) ****
    Final optimized geometry and variables:
    Molecular point group: c1

    Geometry (in Angstrom), charge = 0, multiplicity = 1:

    H            3.668361980831    -0.905010280806     0.666199914394
    O            2.780315524138    -1.155905227543     0.431442560688
    C            2.051911199448    -0.044833992740     0.322370100873
    C            0.621988855815    -0.360303421320    -0.045782780408
    O            2.517548213982     1.032957122635     0.502606155672
    C           -0.250412458386     0.886139128278    -0.236350220365
    H            0.676152149072    -0.958861083346    -0.949376267405
    H            0.234484074718    -1.011518532216     0.732446251414
    C           -1.722890898472     0.656127521424     0.122472996468
    H           -0.197122732237     1.204351850738    -1.273772479613
    H            0.145836707744     1.693560732927     0.365392625180
    C           -2.440641278062    -0.360934245589    -0.768601889134
    H           -2.244621467345     1.608220005907     0.056925056708
    H           -1.796328757382     0.341289251415     1.162478900360
    C           -3.918249028643    -0.520681865942    -0.412067888865
    H           -2.351617557045    -0.050590643197    -1.807888337173
    H           -1.951487125451    -1.329559331297    -0.696802434278
    H           -4.402925610941    -1.245731566677    -1.058399960573
    H           -4.449693984260     0.421185698480    -0.513868438540
    H           -4.039647130584    -0.858411451030     0.613305752148

  Mulliken Charges: (a.u.)
   Center  Symbol    Alpha    Beta     Spin     Total
       1     H     0.26773  0.26773  0.00000  0.46453
       2     O     4.35051  4.35051  0.00000 -0.70102
       3     C     2.62731  2.62731  0.00000  0.74537
       4     C     3.21248  3.21248  0.00000 -0.42495
       5     O     4.27859  4.27859  0.00000 -0.55717
       6     C     3.15874  3.15874  0.00000 -0.31748
       7     H     0.39608  0.39608  0.00000  0.20784
       8     H     0.39747  0.39747  0.00000  0.20506
       9     C     3.15664  3.15664  0.00000 -0.31328
      10     H     0.41687  0.41687  0.00000  0.16625
      11     H     0.39689  0.39689  0.00000  0.20621
      12     C     3.15471  3.15471  0.00000 -0.30943
      13     H     0.41859  0.41859  0.00000  0.16281
      14     H     0.42326  0.42326  0.00000  0.15347
      15     C     3.23910  3.23910  0.00000 -0.47820
      16     H     0.42234  0.42234  0.00000  0.15531
      17     H     0.42217  0.42217  0.00000  0.15566
      18     H     0.41850  0.41850  0.00000  0.16300
      19     H     0.42068  0.42068  0.00000  0.15865
      20     H     0.42132  0.42132  0.00000  0.15735

   Total alpha = 32.00000, Total beta = 32.00000, Total charge =  0.00000
