                              Psi4 1.0.54 Driver

  ==> Input File <==

--------------------------------------------------------------------------
set {
	reference rhf
	basis cc-pvtz
}

set_num_threads( 4 )
memory 2 gb

molecule MOL {
0 1

H	 -4.230259	 0.539112	 0.036360
O	 -3.515113	 -0.019339	 -0.206321
C	 -2.302264	 0.528872	 0.237390
C	 -1.175688	 -0.398187	 -0.171891
H	 -2.148018	 1.514076	 -0.197759
H	 -2.310727	 0.646384	 1.319032
C	 0.196029	 0.106276	 0.266738
H	 -1.201873	 -0.515469	 -1.250677
H	 -1.365975	 -1.378728	 0.252664
C	 1.330220	 -0.826136	 -0.155230
H	 0.359542	 1.097229	 -0.145561
H	 0.212134	 0.218135	 1.348778
C	 2.719700	 -0.407669	 0.328325
H	 1.339388	 -0.911200	 -1.239363
H	 1.119001	 -1.821953	 0.224128
C	 3.019608	 1.083646	 0.196453
H	 3.460827	 -0.962352	 -0.238919
H	 2.844609	 -0.710010	 1.364868
H	 2.895969	 1.416357	 -0.829256
H	 2.369179	 1.685476	 0.819695
H	 4.040654	 1.297737	 0.491075

	symmetry c1
}
set optking {
	frozen_dihedral = ("
		16 13 10 14
	")
}

ee,wfn = optimize('scf', return_wfn=True)
oeprop( wfn, 'DIPOLE', 'QUADRUPOLE', 'MULLIKEN_CHARGES')
f=open( 'psi4out.xyz', 'w' )
f.write( "21  " )
f.write( str(ee) + "\n" )
f.write( MOL.save_string_xyz() )
f.close()
--------------------------------------------------------------------------

    Molecular point group: c1
  Charge       = 0
  Multiplicity = 1
  Basis Set: CC-PVTZ
  Basis Set:
  @DF-RHF Final Energy:  -310.33083776745855
    Total Energy =                       -310.3308377674585472
    Molecular point group: c1
  Basis Set: CC-PVTZ
  Basis Set:
  Basis Set: CC-PVTZ
  Basis Set:
  @DF-RHF Final Energy:  -310.13676302022060
    Total Energy =                       -310.1367630202208261
  Basis Set: CC-PVTZ
  Basis Set:
  Basis Set: CC-PVTZ
  Basis Set:
  @DF-RHF Final Energy:  -310.25791407806065
    Total Energy =                       -310.2579140780608213
  Basis Set: CC-PVTZ
  Basis Set:
  Basis Set: CC-PVTZ
  Basis Set:
  @DF-RHF Final Energy:  -310.32461157545293
    Total Energy =                       -310.3246115754527636
  Basis Set: CC-PVTZ
  Basis Set:
  @DF-RHF Final Energy:  -310.33038441811362
    Total Energy =                       -310.3303844181134536
  @DF-RHF Final Energy:  -310.33119586570308
    Total Energy =                       -310.3311958657029663
  Basis Set: CC-PVTZ
  Basis Set:
  @DF-RHF Final Energy:  -310.33126683292801
    Total Energy =                       -310.3312668329281792
  Basis Set: CC-PVTZ
  Basis Set:
  Basis Set: CC-PVTZ
  Basis Set:
  @DF-RHF Final Energy:  -310.33127179118071
    Total Energy =                       -310.3312717911808249
  Basis Set: CC-PVTZ
  Basis Set:
  Basis Set: CC-PVTZ
  Basis Set:
  @DF-RHF Final Energy:  -310.33127321093338
    Total Energy =                       -310.3312732109336025
  Basis Set: CC-PVTZ
  Basis Set:
  Charge       = 0
  Multiplicity = 1
  Basis Set: CC-PVTZ
  Basis Set:

    Orbital Energies (a.u.)
    -----------------------

    Doubly Occupied:

       1A    -20.545439     2A    -11.265021     3A    -11.213514
       4A    -11.213242     5A    -11.211234     6A    -11.209022
       7A    -11.206002     8A     -1.363282     9A     -1.087138
      10A     -1.033807    11A     -0.955089    12A     -0.879078
      13A     -0.809044    14A     -0.775191    15A     -0.696095
      16A     -0.663267    17A     -0.626744    18A     -0.602894
      19A     -0.587861    20A     -0.574263    21A     -0.536111
      22A     -0.523651    23A     -0.510330    24A     -0.487353
      25A     -0.482232    26A     -0.457371    27A     -0.454072
      28A     -0.445776    29A     -0.437368

  @DF-RHF Final Energy:  -310.33127340191623

   => Energetics <=

    Nuclear Repulsion Energy =            313.5628845077580422
    One-Electron Energy =               -1042.0853376622162614
    Two-Electron Energy =                 418.1911797525421548
    DFT Exchange-Correlation Energy =       0.0000000000000000
    Empirical Dispersion Energy =           0.0000000000000000
    PCM Polarization Energy =               0.0000000000000000
    EFP Energy =                            0.0000000000000000
    Total Energy =                       -310.3312734019160075
    Molecular point group: c1
  Basis Set: CC-PVTZ
  Basis Set:

  -Total Gradient:
     Atom            X                  Y                   Z
    ------   -----------------  -----------------  -----------------
       1        0.000005908451     0.000003552448     0.000001875687
       2       -0.000010465029    -0.000028806886    -0.000002919452
       3        0.000023780824     0.000027504514     0.000002610068
       4       -0.000017682374    -0.000006061538    -0.000002559308
       5        0.000010690367     0.000006975054     0.000006236697
       6       -0.000011797304    -0.000006052322     0.000003495577
       7        0.000007479235     0.000004080583    -0.000003289120
       8        0.000006461505     0.000001547463    -0.000007784763
       9       -0.000007480659    -0.000014933414    -0.000004111310
      10       -0.000369711821     0.005348705850     0.002915116299
      11        0.000015414154     0.000012305891     0.000003593025
      12       -0.000004101400    -0.000002659821     0.000000160897
      13        0.002121550897    -0.000755666917    -0.004657148233
      14       -0.000242950926    -0.004386952322    -0.001300555264
      15       -0.000014210894    -0.000012944507    -0.000001998947
      16       -0.001511472209    -0.000186327774     0.003035994066
      17        0.000002252153    -0.000003839671    -0.000007385500
      18       -0.000004522074    -0.000015596741     0.000008125504
      19        0.000002067466     0.000007830401    -0.000003594689
      20       -0.000008223930     0.000005227826     0.000005617490
      21        0.000007013565     0.000002111886     0.000008521275

  **** Optimization is complete! (in 10 steps) ****
    Final optimized geometry and variables:
    Molecular point group: c1

    Geometry (in Angstrom), charge = 0, multiplicity = 1:

    H           -3.883946854347     1.712102463087     0.017937893483
    O           -3.311269174449     1.089833696060    -0.390645910875
    C           -2.070131830720     1.073628546672     0.263327054984
    C           -1.175980107113     0.061827703119    -0.424345991361
    H           -1.609262007821     2.058629927259     0.229943365847
    H           -2.195226240934     0.805969554285     1.310519122465
    C            0.205569498868    -0.038964540936     0.215515073788
    H           -1.082450481191     0.339807935074    -1.469433550378
    H           -1.669524393471    -0.904415248101    -0.401953230177
    C            1.105865860816    -1.046445503756    -0.493182505068
    H            0.672214281119     0.940988325071     0.212710916817
    H            0.100395427125    -0.325344199832     1.259991377203
    C            2.461826410733    -1.317105165124     0.170377359880
    H            1.260363491237    -0.750154013132    -1.527898606986
    H            0.576481696998    -1.994054387988    -0.554880651825
    C            3.227859289945    -0.080021741307     0.633680904514
    H            3.076008148255    -1.885203884887    -0.520411982323
    H            2.305943904419    -1.960556420802     1.032564500932
    H            3.384531928331     0.620634180111    -0.180891547100
    H            2.703934052682     0.443440779812     1.423567731402
    H            4.202531447279    -0.358837505381     1.017648170685

  Mulliken Charges: (a.u.)
   Center  Symbol    Alpha    Beta     Spin     Total
       1     H     0.39764  0.39764  0.00000  0.20472
       2     O     4.19411  4.19411  0.00000 -0.38821
       3     C     2.96321  2.96321  0.00000  0.07357
       4     C     3.08458  3.08458  0.00000 -0.16915
       5     H     0.47499  0.47499  0.00000  0.05001
       6     H     0.47511  0.47511  0.00000  0.04979
       7     C     3.10478  3.10478  0.00000 -0.20957
       8     H     0.45097  0.45097  0.00000  0.09805
       9     H     0.45022  0.45022  0.00000  0.09957
      10     C     3.09475  3.09475  0.00000 -0.18949
      11     H     0.45185  0.45185  0.00000  0.09629
      12     H     0.45437  0.45437  0.00000  0.09125
      13     C     3.08902  3.08902  0.00000 -0.17804
      14     H     0.45163  0.45163  0.00000  0.09673
      15     H     0.45104  0.45104  0.00000  0.09792
      16     C     3.15620  3.15620  0.00000 -0.31241
      17     H     0.44889  0.44889  0.00000  0.10222
      18     H     0.45451  0.45451  0.00000  0.09097
      19     H     0.45412  0.45412  0.00000  0.09177
      20     H     0.45245  0.45245  0.00000  0.09509
      21     H     0.44554  0.44554  0.00000  0.10892

   Total alpha = 29.00000, Total beta = 29.00000, Total charge = -0.00000

*** Psi4 exiting successfully. Buy a developer a beer!
