  ==> Input File <==

--------------------------------------------------------------------------
set {
	reference rhf
	basis cc-pvtz
}

set_num_threads( 4 )
memory 2 gb

molecule MOL {
0 1

H	 2.156723	 -0.816389	 -0.685858
O	 2.063695	 -0.083403	 -0.105237
C	 0.742924	 0.005675	 0.350750
H	 0.731380	 0.039219	 1.440080
C	 -0.064076	 -1.193495	 -0.124425
C	 -0.047832	 1.190568	 -0.194462
H	 0.194729	 -1.376165	 -1.161308
H	 0.163013	 -2.094508	 0.429933
C	 -1.533112	 -0.752002	 0.006102
H	 0.148003	 1.266545	 -1.259275
H	 0.226235	 2.136493	 0.259722
C	 -1.506634	 0.799189	 0.067162
H	 -2.124360	 -1.110499	 -0.826089
H	 -1.983103	 -1.158030	 0.903403
H	 -2.183808	 1.252169	 -0.644677
H	 -1.813926	 1.138698	 1.049457

	symmetry c1
}
set optking {
	frozen_dihedral = ("
		1 2 3 6
	")
}

ee = optimize('scf')
oeprop('DIPOLE', 'QUADRUPOLE', 'MULLIKEN_CHARGES')
f=open( 'psi4out.xyz', 'w' )
f.write( "16  " )
f.write( str(ee) + "\n" )
f.write( MOL.save_string_xyz() )
f.close()
--------------------------------------------------------------------------

    Molecular point group: c1
  Charge       = 0
  Multiplicity = 1
  Basis Set: CC-PVTZ
  Basis Set:
  @DF-RHF Final Energy:  -270.11318651556127
    Total Energy =                       -270.1131865155613809
    Molecular point group: c1
  Basis Set: CC-PVTZ
  Basis Set:
  Basis Set: CC-PVTZ
  Basis Set:
  @DF-RHF Final Energy:  -270.11461733623457
    Total Energy =                       -270.1146173362345735
  Basis Set: CC-PVTZ
  Basis Set:
  Basis Set: CC-PVTZ
  Basis Set:
  @DF-RHF Final Energy:  -270.11481576368999
    Total Energy =                       -270.1148157636903306
  Basis Set: CC-PVTZ
  Basis Set:
  Basis Set: CC-PVTZ
  Basis Set:
  @DF-RHF Final Energy:  -270.11482090552471
    Total Energy =                       -270.1148209055246525
  Basis Set: CC-PVTZ
  Basis Set:
  Charge       = 0
  Multiplicity = 1
  Basis Set: CC-PVTZ
  Basis Set:

    Orbital Energies (a.u.)
    -----------------------

    Doubly Occupied:

       1A    -20.543503     2A    -11.267349     3A    -11.218827
       4A    -11.218227     5A    -11.215196     6A    -11.207181
       7A     -1.364101     8A     -1.117236     9A     -0.970136
      10A     -0.950088    11A     -0.802004    12A     -0.783314
      13A     -0.682599    14A     -0.666638    15A     -0.608685
      16A     -0.602140    17A     -0.577991    18A     -0.536508
      19A     -0.504088    20A     -0.485169    21A     -0.473672
      22A     -0.459502    23A     -0.450985    24A     -0.419447

  @DF-RHF Final Energy:  -270.11482133119313

   => Energetics <=

    Nuclear Repulsion Energy =            255.5333393617945035
    One-Electron Energy =                -873.0471502186614998
    Two-Electron Energy =                 347.3989895256739260
    DFT Exchange-Correlation Energy =       0.0000000000000000
    Empirical Dispersion Energy =           0.0000000000000000
    PCM Polarization Energy =               0.0000000000000000
    EFP Energy =                            0.0000000000000000
    Total Energy =                       -270.1148213311930135
    Molecular point group: c1
  Basis Set: CC-PVTZ
  Basis Set:

  -Total Gradient:
     Atom            X                  Y                   Z
    ------   -----------------  -----------------  -----------------
       1        0.000155417931    -0.000518935644     0.000634810862
       2       -0.000175991075     0.000761940354    -0.000589443232
       3       -0.000123507308    -0.000489001936    -0.000438056844
       4        0.000004201640    -0.000000292186     0.000008933892
       5        0.000014273287     0.000036353881    -0.000029323251
       6        0.000148578079     0.000254930159     0.000382909823
       7       -0.000004977055    -0.000011600845     0.000000754679
       8        0.000003588366     0.000021818406    -0.000002319091
       9       -0.000013045996     0.000004849092    -0.000013152053
      10        0.000020972817    -0.000002509499    -0.000003939441
      11        0.000011931873    -0.000010711488     0.000001285888
      12       -0.000007545940    -0.000020445956     0.000037040381
      13       -0.000019664919    -0.000005087050    -0.000002679127
      14       -0.000005304004     0.000001345394    -0.000000538558
      15        0.000007738941    -0.000015090295     0.000006134854
      16       -0.000016666635    -0.000007562388     0.000007581215

  **** Optimization is complete! (in 5 steps) ****
    Final optimized geometry and variables:
    Molecular point group: c1

    Geometry (in Angstrom), charge = 0, multiplicity = 1:

    H            2.250416642107    -0.711400191642    -0.656400753856
    O            2.090673638038    -0.015626831694    -0.047043407952
    C            0.743767696626    -0.000970017090     0.340232796475
    H            0.727446202396     0.037435890064     1.426259351938
    C           -0.081175712883    -1.195777963699    -0.127969903298
    C           -0.037068473004     1.188557358197    -0.203702601080
    H            0.149189749938    -1.385873365324    -1.174045325925
    H            0.138352038869    -2.101738783924     0.423166378985
    C           -1.543699224800    -0.737053056533     0.017537384566
    H            0.147301944423     1.262330726760    -1.271397721626
    H            0.260672911005     2.127421416397     0.244780232867
    C           -1.496686135323     0.814157056364     0.075334172228
    H           -2.148033842371    -1.091366844057    -0.807005711938
    H           -1.985360010906    -1.138413758943     0.920696711923
    H           -2.179080203223     1.271969958982    -0.628256379541
    H           -1.788066896981     1.157104333978     1.061084592119

  Mulliken Charges: (a.u.)
   Center  Symbol    Alpha    Beta     Spin     Total
       1     H     0.39167  0.39167  0.00000  0.21665
       2     O     4.20875  4.20875  0.00000 -0.41750
       3     C     2.92536  2.92536  0.00000  0.14928
       4     H     0.45429  0.45429  0.00000  0.09142
       5     C     3.11674  3.11674  0.00000 -0.23348
       6     C     3.08998  3.08998  0.00000 -0.17996
       7     H     0.45994  0.45994  0.00000  0.08012
       8     H     0.44071  0.44071  0.00000  0.11859
       9     C     3.10901  3.10901  0.00000 -0.21802
      10     H     0.45996  0.45996  0.00000  0.08008
      11     H     0.44447  0.44447  0.00000  0.11107
      12     C     3.11486  3.11486  0.00000 -0.22971
      13     H     0.44505  0.44505  0.00000  0.10989
      14     H     0.44648  0.44648  0.00000  0.10704
      15     H     0.44335  0.44335  0.00000  0.11330
      16     H     0.44937  0.44937  0.00000  0.10125

   Total alpha = 24.00000, Total beta = 24.00000, Total charge =  0.00000
