  ==> Input File <==

--------------------------------------------------------------------------
set {
	reference rhf
	basis 6-31G*
}

set_num_threads( 4 )
memory 2 gb

molecule MOL {
0 1

H	 -2.798360	 -0.862255	 -0.071053
N	 -1.863561	 -0.715187	 0.256814
C	 -1.344686	 0.554728	 -0.219830
H	 -1.300452	 -1.461917	 -0.101532
C	 0.081427	 0.741154	 0.254071
H	 -1.362155	 0.656231	 -1.305829
H	 -1.952773	 1.354456	 0.191809
O	 0.659081	 1.775589	 -0.489802
H	 0.096275	 0.989573	 1.315064
H	 0.637927	 -0.182514	 0.111316
C	 2.005266	 1.998358	 -0.214609
H	 2.337977	 2.813533	 -0.842694
H	 2.158322	 2.272855	 0.827603
H	 2.606391	 1.117752	 -0.431382

	symmetry c1
}
set optking {
	frozen_dihedral = ("
		8 5 3 6
	")
}

ee = optimize('scf')
oeprop('DIPOLE', 'QUADRUPOLE', 'MULLIKEN_CHARGES')
f=open( 'psi4out.xyz', 'w' )
f.write( "14  " )
f.write( str(ee) + "\n" )
f.write( MOL.save_string_xyz() )
f.close()
--------------------------------------------------------------------------

    Molecular point group: c1
  Charge       = 0
  Multiplicity = 1
  Basis Set: 6-31G*
  Basis Set:
  @DF-RHF Final Energy:  -248.12196578476676
    Total Energy =                       -248.1219657847668145
    Molecular point group: c1
  Basis Set: 6-31G*
  Basis Set:
  Basis Set: 6-31G*
  Basis Set:
  @DF-RHF Final Energy:  -248.12276614923772
    Total Energy =                       -248.1227661492375773
  Basis Set: 6-31G*
  Basis Set:
  Basis Set: 6-31G*
  Basis Set:
  @DF-RHF Final Energy:  -248.12289823506489
    Total Energy =                       -248.1228982350647811
  Basis Set: 6-31G*
  Basis Set:
  Basis Set: 6-31G*
  Basis Set:
  @DF-RHF Final Energy:  -248.12290915072168
    Total Energy =                       -248.1229091507219096
  Basis Set: 6-31G*
  Basis Set:
  Charge       = 0
  Multiplicity = 1
  Basis Set: 6-31G*
  Basis Set:

    Orbital Energies (a.u.)
    -----------------------

    Doubly Occupied:

       1A    -20.554328     2A    -15.538948     3A    -11.264327
       4A    -11.263523     5A    -11.240833     6A     -1.379287
       7A     -1.181259     8A     -0.998310     9A     -0.899683
      10A     -0.822763    11A     -0.686047    12A     -0.665079
      13A     -0.651158    14A     -0.620652    15A     -0.586733
      16A     -0.568747    17A     -0.514276    18A     -0.497266
      19A     -0.469355    20A     -0.413901    21A     -0.387490

  @DF-RHF Final Energy:  -248.12290986350993

   => Energetics <=

    Nuclear Repulsion Energy =            190.8802663143451639
    One-Electron Energy =                -715.5984173832762281
    Two-Electron Energy =                 276.5952412054210754
    DFT Exchange-Correlation Energy =       0.0000000000000000
    Empirical Dispersion Energy =           0.0000000000000000
    PCM Polarization Energy =               0.0000000000000000
    EFP Energy =                            0.0000000000000000
    Total Energy =                       -248.1229098635100172
    Molecular point group: c1
  Basis Set: 6-31G*
  Basis Set:

  -Total Gradient:
     Atom            X                  Y                   Z
    ------   -----------------  -----------------  -----------------
       1       -0.000002250990     0.000008452679    -0.000001545150
       2        0.000028279825    -0.000010021720     0.000001732011
       3        0.000738498900    -0.003944984634    -0.000806034043
       4        0.000000085793    -0.000013779736    -0.000000646984
       5       -0.000942359239     0.002638160386     0.002062996054
       6       -0.000457617152     0.002876491194     0.000264151975
       7        0.000003680883     0.000014741465    -0.000007774500
       8        0.000654629041    -0.001552766036    -0.001556113455
       9        0.000008001239     0.000004497581     0.000025008286
      10        0.000005975498     0.000014600059    -0.000004309305
      11       -0.000002291057    -0.000026145224     0.000044695856
      12       -0.000029872837    -0.000011572629    -0.000013543959
      13        0.000001391107     0.000001196366     0.000000582405
      14       -0.000006151018     0.000001130246    -0.000009199191

  **** Optimization is complete! (in 5 steps) ****
    Final optimized geometry and variables:
    Molecular point group: c1

    Geometry (in Angstrom), charge = 0, multiplicity = 1:

    H           -2.776449022984    -1.616556037014     0.263170988571
    N           -1.782711578053    -1.573244395008     0.374335170439
    C           -1.256532841247    -0.321295929885    -0.143097439840
    H           -1.398714378706    -2.353924488665    -0.122855726323
    C            0.182310129586    -0.140650382102     0.311486351095
    H           -1.290849961215    -0.221292995495    -1.227333208600
    H           -1.854360922833     0.490149443136     0.257154993664
    O            0.757628741308     0.886836471063    -0.437124379599
    H            0.215074669001     0.082360242702     1.375641909075
    H            0.737140880143    -1.067733513360     0.158805106005
    C            2.068981888304     1.187555329651    -0.082642132951
    H            2.408074452080     1.986051079636    -0.728442194250
    H            2.137315021534     1.518120574601     0.952056667349
    H            2.723843335854     0.327593754585    -0.212833593178

  Mulliken Charges: (a.u.)
   Center  Symbol    Alpha    Beta     Spin     Total
       1     H     0.32900  0.32900  0.00000  0.34201
       2     N     3.92770  3.92770  0.00000 -0.85541
       3     C     3.07496  3.07496  0.00000 -0.14992
       4     H     0.33293  0.33293  0.00000  0.33413
       5     C     2.98050  2.98050  0.00000  0.03899
       6     H     0.42130  0.42130  0.00000  0.15739
       7     H     0.41515  0.41515  0.00000  0.16971
       8     O     4.30837  4.30837  0.00000 -0.61675
       9     H     0.42442  0.42442  0.00000  0.15116
      10     H     0.43463  0.43463  0.00000  0.13074
      11     C     3.07919  3.07919  0.00000 -0.15838
      12     H     0.41246  0.41246  0.00000  0.17508
      13     H     0.42915  0.42915  0.00000  0.14171
      14     H     0.43024  0.43024  0.00000  0.13953

   Total alpha = 21.00000, Total beta = 21.00000, Total charge =  0.00000
