                              Psi4 1.0.54 Driver

  ==> Input File <==

--------------------------------------------------------------------------
set {
	reference rhf
	basis cc-pvtz
}

set_num_threads( 4 )
memory 2 gb

molecule MOL {
0 1

H	 -3.436473	 1.252944	 -1.023892
O	 -3.458596	 0.315260	 -0.960865
C	 -3.176635	 -0.080824	 0.355601
C	 -1.763371	 0.265266	 0.799691
H	 -3.321825	 -1.153438	 0.379502
H	 -3.895468	 0.357385	 1.043382
C	 -0.673390	 -0.426948	 -0.013392
H	 -1.631049	 1.344913	 0.747560
H	 -1.664587	 -0.001624	 1.849167
C	 0.737842	 -0.043159	 0.423759
H	 -0.806103	 -0.190518	 -1.063345
H	 -0.797221	 -1.503753	 0.074146
C	 1.118330	 1.380736	 0.022760
H	 0.816613	 -0.158750	 1.500478
H	 1.452378	 -0.739147	 -0.010863
C	 2.552618	 1.785234	 0.367795
H	 0.427848	 2.080627	 0.487771
H	 0.979548	 1.487632	 -1.049589
C	 2.849044	 1.872746	 1.862993
H	 2.753984	 2.752175	 -0.083040
H	 3.243630	 1.086022	 -0.095914
H	 2.168925	 2.560946	 2.354822
H	 3.858549	 2.228716	 2.034533
H	 2.756614	 0.910574	 2.352164

	symmetry c1
}
set optking {
	frozen_dihedral = ("
		13 10 7 11
	")
}

ee,wfn = optimize('scf', return_wfn=True)
oeprop( wfn, 'DIPOLE', 'QUADRUPOLE', 'MULLIKEN_CHARGES')
f=open( 'psi4out.xyz', 'w' )
f.write( "24  " )
f.write( str(ee) + "\n" )
f.write( MOL.save_string_xyz() )
f.close()
--------------------------------------------------------------------------

    Molecular point group: c1
  Charge       = 0
  Multiplicity = 1
  Basis Set: CC-PVTZ
  Basis Set:
  @DF-RHF Final Energy:  -349.37812604450266
    Total Energy =                       -349.3781260445024373
    Molecular point group: c1
  Basis Set: CC-PVTZ
  Basis Set:
  Basis Set: CC-PVTZ
  Basis Set:
  @DF-RHF Final Energy:  -349.37770368428386
    Total Energy =                       -349.3777036842839721
  Basis Set: CC-PVTZ
  Basis Set:
  Basis Set: CC-PVTZ
  Basis Set:
  @DF-RHF Final Energy:  -349.37849351061482
    Total Energy =                       -349.3784935106145895
  Basis Set: CC-PVTZ
  Basis Set:
  Basis Set: CC-PVTZ
  Basis Set:
  @DF-RHF Final Energy:  -349.37851597662296
    Total Energy =                       -349.3785159766226798
  Basis Set: CC-PVTZ
  Basis Set:
  Basis Set: CC-PVTZ
  Basis Set:
  @DF-RHF Final Energy:  -349.37851243172736
    Total Energy =                       -349.3785124317276995
  Basis Set: CC-PVTZ
  Basis Set:
  Basis Set: CC-PVTZ
  Basis Set:
  @DF-RHF Final Energy:  -349.37852569587710
    Total Energy =                       -349.3785256958772152
  Basis Set: CC-PVTZ
  Basis Set:
  Charge       = 0
  Multiplicity = 1
  Basis Set: CC-PVTZ
  Basis Set:

    Orbital Energies (a.u.)
    -----------------------

    Doubly Occupied:

       1A    -20.546145     2A    -11.265341     3A    -11.214600
       4A    -11.212985     5A    -11.210906     6A    -11.210287
       7A    -11.209393     8A    -11.206053     9A     -1.363973
      10A     -1.090139    11A     -1.048502    12A     -0.985845
      13A     -0.917147    14A     -0.853712    15A     -0.807527
      16A     -0.770429    17A     -0.681547    18A     -0.647926
      19A     -0.631448    20A     -0.617205    21A     -0.601728
      22A     -0.581479    23A     -0.571123    24A     -0.533175
      25A     -0.525967    26A     -0.511539    27A     -0.493499
      28A     -0.483732    29A     -0.469586    30A     -0.459413
      31A     -0.452064    32A     -0.443536    33A     -0.424252

  @DF-RHF Final Energy:  -349.37852577171248

   => Energetics <=

    Nuclear Repulsion Energy =            389.6493231709137035
    One-Electron Energy =               -1245.9712886492652615
    Two-Electron Energy =                 506.9434397066390829
    DFT Exchange-Correlation Energy =       0.0000000000000000
    Empirical Dispersion Energy =           0.0000000000000000
    PCM Polarization Energy =               0.0000000000000000
    EFP Energy =                            0.0000000000000000
    Total Energy =                       -349.3785257717124750
    Molecular point group: c1
  Basis Set: CC-PVTZ
  Basis Set:

  -Total Gradient:
     Atom            X                  Y                   Z
    ------   -----------------  -----------------  -----------------
       1        0.000003396353    -0.000008459381     0.000009803651
       2        0.000015173738    -0.000013681434    -0.000016849118
       3       -0.000012657303     0.000039709053     0.000024409023
       4       -0.000004586065    -0.000031407570    -0.000005170489
       5        0.000007434468     0.000008327875    -0.000006631417
       6       -0.000001827700    -0.000000738729    -0.000000329909
       7        0.000428312885    -0.001191989035    -0.000379185502
       8       -0.000012014224    -0.000011740524    -0.000000579776
       9        0.000000854568    -0.000002736677    -0.000000037809
      10       -0.000415057107     0.000629854825     0.000802108649
      11       -0.000273782890     0.000867912632     0.000121472133
      12       -0.000010154721     0.000003497419     0.000000170224
      13        0.000263087199    -0.000294925627    -0.000542696189
      14       -0.000001711672    -0.000003516654    -0.000005490976
      15        0.000003271127     0.000005925674     0.000003856241
      16       -0.000001002058     0.000001511794    -0.000005488161
      17        0.000005786546    -0.000007063691    -0.000001762005
      18        0.000001610348     0.000003006952     0.000004787794
      19       -0.000001338234     0.000004076546    -0.000001798001
      20        0.000007152365    -0.000004862034     0.000011449606
      21       -0.000004379196     0.000004850191     0.000006328455
      22       -0.000000627123    -0.000004871249    -0.000005326097
      23       -0.000001897864     0.000000684713    -0.000003128220
      24        0.000004956563     0.000006634934    -0.000009912109

  **** Optimization is complete! (in 7 steps) ****
    Final optimized geometry and variables:
    Molecular point group: c1

    Geometry (in Angstrom), charge = 0, multiplicity = 1:

    H           -3.169066037021     0.522743914683    -1.540798488033
    O           -3.195417464938    -0.400838724939    -1.367679014889
    C           -2.952992738779    -0.637653517849    -0.005868180439
    C           -1.552764823134    -0.237818926822     0.435466080681
    H           -3.100138522656    -1.700306015626     0.139934497204
    H           -3.691383070423    -0.122895637256     0.603775321102
    C           -0.444851439193    -1.027780248705    -0.259511891621
    H           -1.425128751170     0.828086435131     0.263413460100
    H           -1.484449963471    -0.382958440452     1.511151165562
    C            0.971751794746    -0.655342581642     0.185361810382
    H           -0.535933248211    -0.896764714524    -1.332063915784
    H           -0.606120815759    -2.084306385967    -0.064446688471
    C            1.458780770104     0.700135490464    -0.329028409464
    H            1.024627648066    -0.687368983231     1.269420479270
    H            1.655615023956    -1.419958352375    -0.173675094282
    C            2.922463541810     1.011595689041    -0.010152946104
    H            0.837259577674     1.497261954126     0.069305217912
    H            1.329480194795     0.723837827707    -1.407716519655
    C            3.225941918033     1.198858370289     1.474427584358
    H            3.203494736854     1.917426494799    -0.538716611136
    H            3.552122102195     0.220912202585    -0.409456931415
    H            2.604874686686     1.978931114467     1.903377648006
    H            4.261270934098     1.484272922713     1.622079325175
    H            3.055177438351     0.291551582111     2.041036954047

  Mulliken Charges: (a.u.)
   Center  Symbol    Alpha    Beta     Spin     Total
       1     H     0.39514  0.39514  0.00000  0.20973
       2     O     4.20370  4.20370  0.00000 -0.40740
       3     C     2.97642  2.97642  0.00000  0.04717
       4     C     3.10107  3.10107  0.00000 -0.20215
       5     H     0.45850  0.45850  0.00000  0.08301
       6     H     0.46039  0.46039  0.00000  0.07921
       7     C     3.09424  3.09424  0.00000 -0.18847
       8     H     0.45943  0.45943  0.00000  0.08114
       9     H     0.45364  0.45364  0.00000  0.09272
      10     C     3.10119  3.10119  0.00000 -0.20238
      11     H     0.44683  0.44683  0.00000  0.10633
      12     H     0.44907  0.44907  0.00000  0.10187
      13     C     3.09549  3.09549  0.00000 -0.19097
      14     H     0.45347  0.45347  0.00000  0.09307
      15     H     0.44781  0.44781  0.00000  0.10437
      16     C     3.08900  3.08900  0.00000 -0.17800
      17     H     0.45465  0.45465  0.00000  0.09070
      18     H     0.44888  0.44888  0.00000  0.10224
      19     C     3.15274  3.15274  0.00000 -0.30547
      20     H     0.44883  0.44883  0.00000  0.10234
      21     H     0.45430  0.45430  0.00000  0.09139
      22     H     0.45551  0.45551  0.00000  0.08899
      23     H     0.44631  0.44631  0.00000  0.10737
      24     H     0.45341  0.45341  0.00000  0.09319

   Total alpha = 33.00000, Total beta = 33.00000, Total charge =  0.00000

*** Psi4 exiting successfully. Buy a developer a beer!
