  ==> Input File <==

--------------------------------------------------------------------------
set {
	reference rhf
	basis 6-31G*
}

set_num_threads( 4 )
memory 2 gb

molecule MOL {
0 1

H	 2.823636	 -0.178709	 1.267850
O	 3.527741	 -0.266637	 0.642090
C	 3.400574	 -1.485145	 -0.045748
C	 2.254724	 -1.490900	 -1.051591
H	 4.340740	 -1.631246	 -0.561904
H	 3.286428	 -2.309466	 0.657277
C	 0.869744	 -1.337936	 -0.418106
H	 2.419550	 -0.689110	 -1.766665
H	 2.296667	 -2.425814	 -1.607957
C	 -0.261821	 -1.401940	 -1.447807
H	 0.822995	 -0.391882	 0.114024
H	 0.722265	 -2.122836	 0.323866
C	 -1.674872	 -1.339452	 -0.856433
H	 -0.136950	 -0.594960	 -2.167555
H	 -0.165092	 -2.327639	 -2.011212
C	 -2.037799	 -0.007733	 -0.193645
H	 -2.388189	 -1.535280	 -1.654334
H	 -1.799008	 -2.146593	 -0.136051
C	 -3.489788	 0.042957	 0.286558
H	 -1.865437	 0.803394	 -0.899672
H	 -1.381434	 0.180308	 0.652599
C	 -4.216917	 1.317354	 -0.141063
H	 -4.025645	 -0.823308	 -0.095450
H	 -3.513059	 -0.038752	 1.371301
H	 -4.239342	 1.411634	 -1.223113
H	 -5.243387	 1.322503	 0.212445
H	 -3.726170	 2.201406	 0.256408

	symmetry c1
}
set optking {
	frozen_dihedral = ("
		20 16 19 22
	")
}

ee = optimize('scf')
oeprop('DIPOLE', 'QUADRUPOLE', 'MULLIKEN_CHARGES')
f=open( 'psi4out.xyz', 'w' )
f.write( "27  " )
f.write( str(ee) + "\n" )
f.write( MOL.save_string_xyz() )
f.close()
--------------------------------------------------------------------------

    Molecular point group: c1
  Charge       = 0
  Multiplicity = 1
  Basis Set: 6-31G*
  Basis Set:
  @DF-RHF Final Energy:  -388.27638339299710
    Total Energy =                       -388.2763833929967632
    Molecular point group: c1
  Basis Set: 6-31G*
  Basis Set:
  Basis Set: 6-31G*
  Basis Set:
  @DF-RHF Final Energy:  -388.27662250451885
    Total Energy =                       -388.2766225045185138
  Basis Set: 6-31G*
  Basis Set:
  Basis Set: 6-31G*
  Basis Set:
  @DF-RHF Final Energy:  -388.27665891954848
    Total Energy =                       -388.2766589195481401
  Basis Set: 6-31G*
  Basis Set:
  Basis Set: 6-31G*
  Basis Set:
  @DF-RHF Final Energy:  -388.27670893600998
    Total Energy =                       -388.2767089360096406
  Basis Set: 6-31G*
  Basis Set:
  Basis Set: 6-31G*
  Basis Set:
  @DF-RHF Final Energy:  -388.27671124639465
    Total Energy =                       -388.2767112463945978
  Basis Set: 6-31G*
  Basis Set:
  Basis Set: 6-31G*
  Basis Set:
  @DF-RHF Final Energy:  -388.27671782683046
    Total Energy =                       -388.2767178268306907
  Basis Set: 6-31G*
  Basis Set:
  Basis Set: 6-31G*
  Basis Set:
  @DF-RHF Final Energy:  -388.27671941236525
    Total Energy =                       -388.2767194123653098
  Basis Set: 6-31G*
  Basis Set:
  Charge       = 0
  Multiplicity = 1
  Basis Set: 6-31G*
  Basis Set:

    Orbital Energies (a.u.)
    -----------------------

    Doubly Occupied:

       1A    -20.552356     2A    -11.267095     3A    -11.219871
       4A    -11.217235     5A    -11.216210     6A    -11.215784
       7A    -11.215252     8A    -11.213962     9A    -11.209486
      10A     -1.359106    11A     -1.094328    12A     -1.059929
      13A     -1.011168    14A     -0.948213    15A     -0.888149
      16A     -0.821273    17A     -0.801153    18A     -0.778740
      19A     -0.693813    20A     -0.647833    21A     -0.637052
      22A     -0.614674    23A     -0.596457    24A     -0.589095
      25A     -0.580640    26A     -0.553618    27A     -0.541259
      28A     -0.528036    29A     -0.509820    30A     -0.490632
      31A     -0.483476    32A     -0.477550    33A     -0.467915
      34A     -0.459538    35A     -0.449855    36A     -0.440889
      37A     -0.422728

  @DF-RHF Final Energy:  -388.27671937845520

   => Energetics <=

    Nuclear Repulsion Energy =            459.0137530749935308
    One-Electron Energy =               -1436.0325645399507266
    Two-Electron Energy =                 588.7420920865016569
    DFT Exchange-Correlation Energy =       0.0000000000000000
    Empirical Dispersion Energy =           0.0000000000000000
    PCM Polarization Energy =               0.0000000000000000
    EFP Energy =                            0.0000000000000000
    Total Energy =                       -388.2767193784555957
    Molecular point group: c1
  Basis Set: 6-31G*
  Basis Set:

  -Total Gradient:
     Atom            X                  Y                   Z
    ------   -----------------  -----------------  -----------------
       1        0.000008787771     0.000000710916     0.000000476047
       2        0.000002480373    -0.000001403922     0.000000608151
       3       -0.000001985438    -0.000008270973     0.000008850869
       4       -0.000005140160     0.000008251496    -0.000003555274
       5       -0.000001482877    -0.000001646173    -0.000000120719
       6        0.000001601771     0.000000729681     0.000002923944
       7        0.000004172536    -0.000012637157     0.000002347195
       8        0.000001228447     0.000004668824     0.000002904223
       9       -0.000006110594     0.000004561768    -0.000003250001
      10       -0.000002744605     0.000014286986     0.000000823043
      11       -0.000010139780    -0.000000011345    -0.000010007142
      12        0.000010742747     0.000006837696     0.000001657120
      13        0.000009485066    -0.000023406003    -0.000010325535
      14        0.000004831828    -0.000001217910    -0.000005018908
      15       -0.000009827256     0.000000324977     0.000005217734
      16       -0.001213318947    -0.002464218859    -0.003185708880
      17       -0.000005503648    -0.000006381196    -0.000001413102
      18        0.000000019072    -0.000001121385     0.000000882445
      19        0.001064279191     0.001713897263     0.002858636733
      20        0.000810126174     0.001686175717     0.002040779713
      21       -0.000008104475     0.000014007735    -0.000013634259
      22       -0.000652263489    -0.000932860616    -0.001682221260
      23       -0.000001859395     0.000007831483     0.000001766727
      24       -0.000001002304    -0.000015833030    -0.000006934661
      25        0.000003563855     0.000012254159    -0.000006548455
      26        0.000002286081    -0.000006819037    -0.000005206366
      27       -0.000004121948     0.000001288904     0.000006070617

  **** Optimization is complete! (in 8 steps) ****
    Final optimized geometry and variables:
    Molecular point group: c1

    Geometry (in Angstrom), charge = 0, multiplicity = 1:

    H            2.956040545149     0.450340394995     1.617407480816
    O            3.662720864368     0.364024904914     0.994329961205
    C            3.536123527555    -0.851052047505     0.300372111109
    C            2.396100392471    -0.849054969143    -0.712089489921
    H            4.478834392067    -0.997242767632    -0.211058683216
    H            3.415834972485    -1.678237428374     0.998986679780
    C            1.008018298129    -0.694249700583    -0.085926173359
    H            2.567515767038    -0.044963986171    -1.423007572400
    H            2.438300108282    -1.781867023150    -1.271935203880
    C           -0.117848660029    -0.753262516133    -1.122380362493
    H            0.961193325048     0.250335463328     0.448643578141
    H            0.854442831989    -1.480828279912     0.652979006872
    C           -1.534388199638    -0.685200245589    -0.540895147753
    H            0.014833156447     0.052649302257    -1.842057154025
    H           -0.021257216851    -1.679750027433    -1.684533296102
    C           -1.907234852425     0.656394974878     0.095346910384
    H           -2.243690292251    -0.896197665485    -1.338547837874
    H           -1.661772011336    -1.479639503761     0.193170277594
    C           -3.355227221920     0.701259367582     0.630814282442
    H           -1.758067008159     1.455504585788    -0.628132515295
    H           -1.222286587585     0.879571153669     0.908446641806
    C           -4.117211491193     1.960418361958     0.216445268742
    H           -3.903160486151    -0.164723499376     0.266834188731
    H           -3.353430934775     0.616851973808     1.713773352543
    H           -4.188678346979     2.030737900501    -0.865182599768
    H           -5.126301431031     1.960684179857     0.617310912438
    H           -3.619596500115     2.858437479609     0.572404113528

  Mulliken Charges: (a.u.)
   Center  Symbol    Alpha    Beta     Spin     Total
       1     H     0.27992  0.27992  0.00000  0.44017
       2     O     4.37093  4.37093  0.00000 -0.74185
       3     C     2.99742  2.99742  0.00000  0.00516
       4     C     3.16086  3.16086  0.00000 -0.32173
       5     H     0.41443  0.41443  0.00000  0.17114
       6     H     0.43203  0.43203  0.00000  0.13594
       7     C     3.16316  3.16316  0.00000 -0.32632
       8     H     0.41495  0.41495  0.00000  0.17010
       9     H     0.42434  0.42434  0.00000  0.15133
      10     C     3.15287  3.15287  0.00000 -0.30573
      11     H     0.42305  0.42305  0.00000  0.15389
      12     H     0.42539  0.42539  0.00000  0.14923
      13     C     3.15514  3.15514  0.00000 -0.31027
      14     H     0.42150  0.42150  0.00000  0.15700
      15     H     0.42141  0.42141  0.00000  0.15717
      16     C     3.15628  3.15628  0.00000 -0.31256
      17     H     0.42099  0.42099  0.00000  0.15802
      18     H     0.42378  0.42378  0.00000  0.15245
      19     C     3.15429  3.15429  0.00000 -0.30858
      20     H     0.42087  0.42087  0.00000  0.15826
      21     H     0.42155  0.42155  0.00000  0.15689
      22     C     3.23971  3.23971  0.00000 -0.47941
      23     H     0.42087  0.42087  0.00000  0.15825
      24     H     0.42063  0.42063  0.00000  0.15874
      25     H     0.42157  0.42157  0.00000  0.15685
      26     H     0.42045  0.42045  0.00000  0.15909
      27     H     0.42162  0.42162  0.00000  0.15675

   Total alpha = 37.00000, Total beta = 37.00000, Total charge = -0.00000
