  ==> Input File <==

--------------------------------------------------------------------------
set {
	reference rhf
	basis cc-pvtz
}

set_num_threads( 4 )
memory 2 gb

molecule MOL {
0 1

H	 -0.939693	 0.000281	 1.681345
O	 -0.046262	 -0.000157	 1.387678
C	 -0.000837	 0.000006	 -0.025491
C	 1.261057	 -0.720269	 -0.496635
C	 -1.251338	 -0.681762	 -0.577382
C	 0.034617	 1.467921	 -0.428176
H	 1.342074	 -0.704830	 -1.577372
H	 1.252280	 -1.758912	 -0.180071
H	 2.140985	 -0.247974	 -0.078152
H	 -1.262315	 -0.664857	 -1.661071
H	 -1.294678	 -1.719899	 -0.261998
H	 -2.141454	 -0.182379	 -0.215753
H	 0.070825	 1.572209	 -1.506184
H	 0.905890	 1.951558	 -0.004868
H	 -0.846774	 1.978454	 -0.061133

	symmetry c1
}
set optking {
	frozen_dihedral = ("
		4 3 2 1
	")
}

ee = optimize('scf')
oeprop('DIPOLE', 'QUADRUPOLE', 'MULLIKEN_CHARGES')
f=open( 'psi4out.xyz', 'w' )
f.write( "15  " )
f.write( str(ee) + "\n" )
f.write( MOL.save_string_xyz() )
f.close()
--------------------------------------------------------------------------

    Molecular point group: c1
  Charge       = 0
  Multiplicity = 1
  Basis Set: CC-PVTZ
  Basis Set:
  @DF-RHF Final Energy:  -232.24424482605869
    Total Energy =                       -232.2442448260589458
    Molecular point group: c1
  Basis Set: CC-PVTZ
  Basis Set:
  Basis Set: CC-PVTZ
  Basis Set:
  @DF-RHF Final Energy:  -232.24551001318920
    Total Energy =                       -232.2455100131890049
  Basis Set: CC-PVTZ
  Basis Set:
  Basis Set: CC-PVTZ
  Basis Set:
  @DF-RHF Final Energy:  -232.24576361341823
    Total Energy =                       -232.2457636134182621
  Basis Set: CC-PVTZ
  Basis Set:
  Charge       = 0
  Multiplicity = 1
  Basis Set: CC-PVTZ
  Basis Set:

    Orbital Energies (a.u.)
    -----------------------

    Doubly Occupied:

       1A    -20.541173     2A    -11.280945     3A    -11.214081
       4A    -11.205256     5A    -11.203519     6A     -1.363874
       7A     -1.065482     8A     -0.944684     9A     -0.938147
      10A     -0.778551    11A     -0.672185    12A     -0.624434
      13A     -0.622950    14A     -0.576370    15A     -0.557564
      16A     -0.533554    17A     -0.517062    18A     -0.511267
      19A     -0.504116    20A     -0.458095    21A     -0.427963

  @DF-RHF Final Energy:  -232.24576389541068

   => Energetics <=

    Nuclear Repulsion Energy =            200.6323145151124550
    One-Electron Energy =                -712.6736093510958199
    Two-Electron Energy =                 279.7955309405725757
    DFT Exchange-Correlation Energy =       0.0000000000000000
    Empirical Dispersion Energy =           0.0000000000000000
    PCM Polarization Energy =               0.0000000000000000
    EFP Energy =                            0.0000000000000000
    Total Energy =                       -232.2457638954107324
    Molecular point group: c1
  Basis Set: CC-PVTZ
  Basis Set:

  -Total Gradient:
     Atom            X                  Y                   Z
    ------   -----------------  -----------------  -----------------
       1       -0.000029544982    -0.001919501168    -0.000073990716
       2       -0.000161896860     0.001900889936    -0.000043588685
       3        0.000827523682     0.000953250491    -0.000076672391
       4       -0.000699523018    -0.001143013761     0.000128167865
       5        0.000047053085    -0.000018565185     0.000077324891
       6       -0.000024811599     0.000116692027    -0.000076621010
       7       -0.000021995479    -0.000046642941    -0.000021418168
       8        0.000144731863    -0.000007768863     0.000060299504
       9       -0.000097644333     0.000069902515    -0.000018951239
      10       -0.000008415267     0.000081816875    -0.000001932042
      11        0.000097217162     0.000019546988    -0.000021011219
      12       -0.000050136623    -0.000007286392    -0.000012470827
      13       -0.000088301351    -0.000057210217     0.000067482830
      14        0.000074648690    -0.000063514638    -0.000005941431
      15       -0.000008904970     0.000121404333     0.000019322643

  **** Optimization is complete! (in 4 steps) ****
    Final optimized geometry and variables:
    Molecular point group: c1

    Geometry (in Angstrom), charge = 0, multiplicity = 1:

    H           -0.879965660113    -0.067522622276     1.717089366244
    O            0.000115656366    -0.064670661296     1.388947496144
    C            0.001333454286     0.006168461475    -0.025122465518
    C            1.259272317223    -0.724259102244    -0.477756157730
    C           -1.243489114208    -0.683349284165    -0.578130815622
    C            0.040126396502     1.472939536154    -0.448216704261
    H            1.358814139502    -0.696291777896    -1.556758251841
    H            1.229563860336    -1.758107084685    -0.157890924560
    H            2.135482890992    -0.261881592193    -0.040599951502
    H           -1.252453397012    -0.661620601103    -1.661046722362
    H           -1.277962702180    -1.717777900832    -0.257344988134
    H           -2.145973346896    -0.187269959526    -0.232331712130
    H            0.073098005190     1.570908473303    -1.527514285498
    H            0.914163993154     1.956989422599    -0.031045786148
    H           -0.838186568401     1.997610345986    -0.087927737338

  Mulliken Charges: (a.u.)
   Center  Symbol    Alpha    Beta     Spin     Total
       1     H     0.39378  0.39378  0.00000  0.21245
       2     O     4.21343  4.21343  0.00000 -0.42686
       3     C     2.87905  2.87905  0.00000  0.24190
       4     C     3.14119  3.14119  0.00000 -0.28237
       5     C     3.15735  3.15735  0.00000 -0.31471
       6     C     3.14400  3.14400  0.00000 -0.28800
       7     H     0.45924  0.45924  0.00000  0.08152
       8     H     0.45078  0.45078  0.00000  0.09844
       9     H     0.44739  0.44739  0.00000  0.10522
      10     H     0.45239  0.45239  0.00000  0.09521
      11     H     0.44561  0.44561  0.00000  0.10877
      12     H     0.45486  0.45486  0.00000  0.09028
      13     H     0.45798  0.45798  0.00000  0.08405
      14     H     0.44813  0.44813  0.00000  0.10373
      15     H     0.45482  0.45482  0.00000  0.09035

   Total alpha = 21.00000, Total beta = 21.00000, Total charge = -0.00000
