  ==> Input File <==

--------------------------------------------------------------------------
set {
	reference rhf
	basis cc-pvtz
}

set_num_threads( 4 )
memory 2 gb

molecule MOL {
0 1

H	 -1.835082	 1.385983	 0.000069
C	 -1.300516	 0.441153	 -0.000028
O	 -0.006604	 0.654344	 -0.000106
O	 -1.828920	 -0.612308	 0.000113
C	 0.852093	 -0.482521	 -0.000161
C	 0.004640	 -1.700448	 -0.281549
H	 1.341765	 -0.550373	 0.960868
H	 1.614659	 -0.344199	 -0.753370
H	 -0.756670	 -1.824239	 0.478091
H	 0.629673	 -2.585400	 -0.288493
H	 -0.482429	 -1.617018	 -1.244758

	symmetry c1
}
set optking {
	frozen_dihedral = ("
		7 5 3 2
	")
}

ee = optimize('scf')
oeprop('DIPOLE', 'QUADRUPOLE', 'MULLIKEN_CHARGES')
f=open( 'psi4out.xyz', 'w' )
f.write( "11  " )
f.write( str(ee) + "\n" )
f.write( MOL.save_string_xyz() )
f.close()
--------------------------------------------------------------------------

    Molecular point group: c1
  Charge       = 0
  Multiplicity = 1
  Basis Set: CC-PVTZ
  Basis Set:
  @DF-RHF Final Energy:  -266.86674134292150
    Total Energy =                       -266.8667413429215003
    Molecular point group: c1
  Basis Set: CC-PVTZ
  Basis Set:
  Basis Set: CC-PVTZ
  Basis Set:
  @DF-RHF Final Energy:  -266.90548819518818
    Total Energy =                       -266.9054881951880702
  Basis Set: CC-PVTZ
  Basis Set:
  Basis Set: CC-PVTZ
  Basis Set:
  @DF-RHF Final Energy:  -266.90835122982719
    Total Energy =                       -266.9083512298273035
  Basis Set: CC-PVTZ
  Basis Set:
  Basis Set: CC-PVTZ
  Basis Set:
  @DF-RHF Final Energy:  -266.91428980525370
    Total Energy =                       -266.9142898052537021
  Basis Set: CC-PVTZ
  Basis Set:
  @DF-RHF Final Energy:  -266.91965984908722
    Total Energy =                       -266.9196598490871111
  @DF-RHF Final Energy:  -266.92060093437760
    Total Energy =                       -266.9206009343776600
  Basis Set: CC-PVTZ
  Basis Set:
  @DF-RHF Final Energy:  -266.92080468612869
    Total Energy =                       -266.9208046861285766
  Basis Set: CC-PVTZ
  Basis Set:
  Basis Set: CC-PVTZ
  Basis Set:
  @DF-RHF Final Energy:  -266.92084515220392
    Total Energy =                       -266.9208451522039809
  Basis Set: CC-PVTZ
  Basis Set:
  Basis Set: CC-PVTZ
  Basis Set:
  @DF-RHF Final Energy:  -266.92085076368005
    Total Energy =                       -266.9208507636800505
  Basis Set: CC-PVTZ
  Basis Set:
  Charge       = 0
  Multiplicity = 1
  Basis Set: CC-PVTZ
  Basis Set:

    Orbital Energies (a.u.)
    -----------------------

    Doubly Occupied:

       1A    -20.602168     2A    -20.541012     3A    -11.370676
       4A    -11.295639     5A    -11.219430     6A     -1.471353
       7A     -1.376239     8A     -1.050722     9A     -0.920304
      10A     -0.795959    11A     -0.721895    12A     -0.687109
      13A     -0.674982    14A     -0.611418    15A     -0.584529
      16A     -0.547305    17A     -0.529796    18A     -0.505480
      19A     -0.453439    20A     -0.447751

  @DF-RHF Final Energy:  -266.92085158549691

   => Energetics <=

    Nuclear Repulsion Energy =            182.4928758420286954
    One-Electron Energy =                -726.0130386630113435
    Two-Electron Energy =                 276.5993112354858567
    DFT Exchange-Correlation Energy =       0.0000000000000000
    Empirical Dispersion Energy =           0.0000000000000000
    PCM Polarization Energy =               0.0000000000000000
    EFP Energy =                            0.0000000000000000
    Total Energy =                       -266.9208515854968482
    Molecular point group: c1
  Basis Set: CC-PVTZ
  Basis Set:

  -Total Gradient:
     Atom            X                  Y                   Z
    ------   -----------------  -----------------  -----------------
       1       -0.000010728495    -0.000004052705     0.000012050119
       2       -0.000069534017    -0.000046925458    -0.003231858612
       3        0.000729882041     0.000456527302     0.004643827059
       4       -0.000096836837    -0.000037767807     0.000047047973
       5       -0.002978661290    -0.002124011670    -0.000258243082
       6        0.000012518503     0.000009376113     0.000001798587
       7        0.002428052652     0.001731254430    -0.001209130483
       8        0.000003656325     0.000025048496    -0.000002783868
       9       -0.000027188743    -0.000009969085     0.000023804754
      10        0.000006922441    -0.000009991167    -0.000007493378
      11        0.000001917421     0.000010511553    -0.000019019069

  **** Optimization is complete! (in 10 steps) ****
    Final optimized geometry and variables:
    Molecular point group: c1

    Geometry (in Angstrom), charge = 0, multiplicity = 1:

    H           -1.171901750570     1.965171522507    -0.074133802521
    C           -0.840118994712     0.937670796346     0.047797748089
    O            0.469366573517     0.912684318402     0.020948410635
    O           -1.583225819216     0.035263663060     0.192883338958
    C            1.296638094685    -0.255879533694     0.035123049801
    C            0.668688305626    -1.596492047693    -0.291553697228
    H            1.781544287774    -0.271153649679     1.001768127912
    H            2.060406803685    -0.031641699769    -0.695708105985
    H           -0.026820000468    -1.926406810370     0.461897311323
    H            1.480312140681    -2.313454350724    -0.359631287543
    H            0.156561243793    -1.575951842338    -1.243701092899

  Mulliken Charges: (a.u.)
   Center  Symbol    Alpha    Beta     Spin     Total
       1     H     0.44644  0.44644  0.00000  0.10712
       2     C     2.84582  2.84582  0.00000  0.30836
       3     O     4.14803  4.14803  0.00000 -0.29607
       4     O     4.19569  4.19569  0.00000 -0.39139
       5     C     2.97364  2.97364  0.00000  0.05272
       6     C     3.15057  3.15057  0.00000 -0.30113
       7     H     0.45363  0.45363  0.00000  0.09274
       8     H     0.45111  0.45111  0.00000  0.09777
       9     H     0.43750  0.43750  0.00000  0.12501
      10     H     0.45103  0.45103  0.00000  0.09793
      11     H     0.44654  0.44654  0.00000  0.10693

   Total alpha = 20.00000, Total beta = 20.00000, Total charge = -0.00000
