  ==> Input File <==

--------------------------------------------------------------------------
set {
	reference rhf
	basis 6-31G*
}

set_num_threads( 4 )
memory 2 gb

molecule MOL {
0 1

O	 3.225979	 0.970355	 -0.599647
C	 2.701189	 0.057885	 -0.047330
C	 1.245376	 -0.013843	 0.345420
O	 3.347903	 -1.046386	 0.304773
C	 0.455112	 1.231400	 -0.050772
H	 0.838542	 -0.913825	 -0.103701
H	 1.208210	 -0.175333	 1.419774
C	 -0.998893	 1.219485	 0.433193
H	 0.482531	 1.345121	 -1.130325
H	 0.957290	 2.103070	 0.354729
C	 -1.883438	 0.145884	 -0.207175
H	 -1.431207	 2.195402	 0.224832
H	 -1.019646	 1.105716	 1.516076
C	 -3.347647	 0.245583	 0.225435
H	 -1.822183	 0.231698	 -1.291012
H	 -1.510341	 -0.844814	 0.042401
C	 -4.275365	 -0.686528	 -0.556001
H	 -3.688645	 1.272672	 0.106938
H	 -3.425345	 0.020337	 1.287944
C	 -5.736291	 -0.578061	 -0.120533
H	 -4.198207	 -0.463475	 -1.618044
H	 -3.938696	 -1.714073	 -0.435232
H	 -6.368544	 -1.250400	 -0.692216
H	 -6.113605	 0.430825	 -0.261874
H	 -5.851891	 -0.828826	 0.930195
C	 4.728119	 -1.109107	 -0.004993
H	 4.882018	 -1.033965	 -1.071845
H	 5.068212	 -2.067527	 0.355250
H	 5.265056	 -0.311663	 0.488280

	symmetry c1
}
set optking {
	frozen_dihedral = ("
		17 14 11 15
	")
}

ee = optimize('scf')
oeprop('DIPOLE', 'QUADRUPOLE', 'MULLIKEN_CHARGES')
f=open( 'psi4out.xyz', 'w' )
f.write( "29  " )
f.write( str(ee) + "\n" )
f.write( MOL.save_string_xyz() )
f.close()
--------------------------------------------------------------------------

    Molecular point group: c1
  Charge       = 0
  Multiplicity = 1
  Basis Set: 6-31G*
  Basis Set:
  @DF-RHF Final Energy:  -501.04383789261260
    Total Energy =                       -501.0438378926126006
    Molecular point group: c1
  Basis Set: 6-31G*
  Basis Set:
  Basis Set: 6-31G*
  Basis Set:
  @DF-RHF Final Energy:  -501.04382750306092
    Total Energy =                       -501.0438275030614932
  Basis Set: 6-31G*
  Basis Set:
  Basis Set: 6-31G*
  Basis Set:
  @DF-RHF Final Energy:  -501.04385529982915
    Total Energy =                       -501.0438552998290334
  Basis Set: 6-31G*
  Basis Set:
  Basis Set: 6-31G*
  Basis Set:
  @DF-RHF Final Energy:  -501.04387578103967
    Total Energy =                       -501.0438757810395600
  Basis Set: 6-31G*
  Basis Set:
  Charge       = 0
  Multiplicity = 1
  Basis Set: 6-31G*
  Basis Set:

    Orbital Energies (a.u.)
    -----------------------

    Doubly Occupied:

       1A    -20.603377     2A    -20.545201     3A    -11.372014
       4A    -11.280667     5A    -11.234751     6A    -11.219125
       7A    -11.217717     8A    -11.215953     9A    -11.215840
      10A    -11.214415    11A    -11.209038    12A     -1.469074
      13A     -1.362517    14A     -1.098035    15A     -1.066805
      16A     -1.019503    17A     -0.977205    18A     -0.928634
      19A     -0.861599    20A     -0.799359    21A     -0.790542
      22A     -0.763838    23A     -0.700868    24A     -0.682316
      25A     -0.672131    26A     -0.650627    27A     -0.628538
      28A     -0.604395    29A     -0.595582    30A     -0.580767
      31A     -0.566823    32A     -0.549283    33A     -0.532362
      34A     -0.530227    35A     -0.515315    36A     -0.512457
      37A     -0.496560    38A     -0.477637    39A     -0.470084
      40A     -0.462492    41A     -0.458372    42A     -0.455751
      43A     -0.441297    44A     -0.435457

  @DF-RHF Final Energy:  -501.04387659250608

   => Energetics <=

    Nuclear Repulsion Energy =            610.0625182201569032
    One-Electron Energy =               -1891.2436914998020256
    Two-Electron Energy =                 780.1372966871387007
    DFT Exchange-Correlation Energy =       0.0000000000000000
    Empirical Dispersion Energy =           0.0000000000000000
    PCM Polarization Energy =               0.0000000000000000
    EFP Energy =                            0.0000000000000000
    Total Energy =                       -501.0438765925063080
    Molecular point group: c1
  Basis Set: 6-31G*
  Basis Set:

  -Total Gradient:
     Atom            X                  Y                   Z
    ------   -----------------  -----------------  -----------------
       1       -0.000060752412    -0.000116072185    -0.000254213072
       2        0.000168267944     0.000330979676     0.000694107196
       3       -0.000069121074    -0.000108049157    -0.000220630385
       4       -0.000054170236    -0.000089208281    -0.000196272388
       5       -0.000015098111    -0.000007682830    -0.000041791802
       6       -0.000066003590    -0.000012958261     0.000017417347
       7        0.000054533572     0.000007791293    -0.000020213589
       8       -0.000057070830     0.000026545529    -0.000074074040
       9        0.000000398343     0.000012795775     0.000009155762
      10        0.000001140903    -0.000001653026     0.000016267862
      11        0.000071962743     0.002055998360     0.000016506119
      12        0.000008260050     0.000033224239     0.000011087786
      13       -0.000010126532    -0.000022688956    -0.000035404798
      14        0.000257366448    -0.001361954527     0.000891153859
      15       -0.000167420007    -0.001464950360    -0.000132116594
      16        0.000056107332    -0.000057886787     0.000057880602
      17       -0.000160069273     0.000805090544    -0.000773812235
      18        0.000017489285     0.000053711575     0.000056090874
      19        0.000026225202    -0.000062307793    -0.000029527338
      20        0.000008964640    -0.000014047795     0.000023646628
      21        0.000017715539    -0.000002943215    -0.000016469143
      22       -0.000030149628     0.000006273852     0.000008542575
      23        0.000003955323    -0.000001151140     0.000001533663
      24        0.000009591873    -0.000004944502    -0.000004119709
      25       -0.000009885830     0.000000908747     0.000006023218
      26       -0.000001157915    -0.000001974334    -0.000005528236
      27        0.000007895368    -0.000001793376    -0.000001344038
      28       -0.000000473413    -0.000002286517    -0.000004178848
      29       -0.000008375729     0.000001233458     0.000000282724

  **** Optimization is complete! (in 5 steps) ****
    Final optimized geometry and variables:
    Molecular point group: c1

    Geometry (in Angstrom), charge = 0, multiplicity = 1:

    O            3.237710783001     0.937967504806    -0.564785926377
    C            2.706166459687     0.029144225927    -0.012910619191
    C            1.248090550946    -0.035306030872     0.372624496596
    O            3.345072427994    -1.079298065438     0.340328200951
    C            0.466047180119     1.213583866066    -0.028351271628
    H            0.839147710899    -0.933735700888    -0.077611370282
    H            1.204963712842    -0.195595222270     1.446930172064
    C           -0.990810469186     1.209397772169     0.447082498399
    H            0.500327036566     1.327278599125    -1.107693985989
    H            0.970162701573     2.082729043385     0.380178928087
    C           -1.878620729770     0.145343165958    -0.203046625396
    H           -1.415289056128     2.189059275963     0.240656909284
    H           -1.018837511180     1.090823010878     1.529347401107
    C           -3.339873202996     0.228834329309     0.244226818291
    H           -1.826548009176     0.239886723274    -1.286624449386
    H           -1.501514164598    -0.848784625718     0.027587237616
    C           -4.266264292520    -0.705585019566    -0.536063475191
    H           -3.693651339618     1.252338545867     0.130067511891
    H           -3.405533477141     0.001926425070     1.306906118591
    C           -5.719716795301    -0.632333868528    -0.069445034982
    H           -4.213937443820    -0.459180157532    -1.594263249432
    H           -3.909692615207    -1.729529174913    -0.443587247538
    H           -6.352060296102    -1.301695926769    -0.644513822389
    H           -6.116343546192     0.373077527909    -0.179367893524
    H           -5.810217755706    -0.909588570054     0.977053447947
    C            4.725830685923    -1.150184509185     0.034749620520
    H            4.883474781298    -1.075182108044    -1.031569115051
    H            5.058960547348    -2.110924185891     0.395303406795
    H            5.266070873498    -0.356391070147     0.530297309426

  Mulliken Charges: (a.u.)
   Center  Symbol    Alpha    Beta     Spin     Total
       1     O     4.28596  4.28596  0.00000 -0.57192
       2     C     2.60483  2.60483  0.00000  0.79034
       3     C     3.20972  3.20972  0.00000 -0.41943
       4     O     4.30746  4.30746  0.00000 -0.61493
       5     C     3.15383  3.15383  0.00000 -0.30766
       6     H     0.39877  0.39877  0.00000  0.20245
       7     H     0.40128  0.40128  0.00000  0.19744
       8     C     3.15656  3.15656  0.00000 -0.31312
       9     H     0.41299  0.41299  0.00000  0.17402
      10     H     0.40876  0.40876  0.00000  0.18247
      11     C     3.15534  3.15534  0.00000 -0.31068
      12     H     0.41812  0.41812  0.00000  0.16376
      13     H     0.42387  0.42387  0.00000  0.15226
      14     C     3.15024  3.15024  0.00000 -0.30048
      15     H     0.42263  0.42263  0.00000  0.15474
      16     H     0.42355  0.42355  0.00000  0.15291
      17     C     3.15158  3.15158  0.00000 -0.30316
      18     H     0.42371  0.42371  0.00000  0.15259
      19     H     0.42359  0.42359  0.00000  0.15282
      20     C     3.23938  3.23938  0.00000 -0.47875
      21     H     0.42259  0.42259  0.00000  0.15481
      22     H     0.42351  0.42351  0.00000  0.15299
      23     H     0.41922  0.41922  0.00000  0.16156
      24     H     0.42157  0.42157  0.00000  0.15686
      25     H     0.42182  0.42182  0.00000  0.15637
      26     C     3.09241  3.09241  0.00000 -0.18481
      27     H     0.40906  0.40906  0.00000  0.18188
      28     H     0.40852  0.40852  0.00000  0.18297
      29     H     0.40915  0.40915  0.00000  0.18171

   Total alpha = 44.00000, Total beta = 44.00000, Total charge =  0.00000
