  ==> Input File <==

--------------------------------------------------------------------------
set {
	reference rhf
	basis 6-31G*
}

set_num_threads( 4 )
memory 2 gb

molecule MOL {
0 1

H	 -3.161837	 0.500524	 -0.000234
C	 -2.367097	 -0.232926	 -0.000000
O	 -1.158440	 0.455814	 -0.000122
H	 -2.468853	 -0.861886	 -0.882833
H	 -2.468942	 -0.861421	 0.883154
C	 -0.029776	 -0.365156	 0.000148
C	 -0.468613	 -1.801739	 0.224455
H	 0.661019	 -0.053370	 0.784680
H	 0.500235	 -0.274972	 -0.948990
C	 0.707994	 -2.776535	 0.240268
H	 -1.010890	 -1.853368	 1.163567
H	 -1.170506	 -2.073496	 -0.557973
H	 1.411103	 -2.536433	 1.032993
H	 0.366210	 -3.793415	 0.401461
H	 1.250884	 -2.757636	 -0.700644

	symmetry c1
}
set optking {
	frozen_dihedral = ("
		8 6 3 2
	")
}

ee = optimize('scf')
oeprop('DIPOLE', 'QUADRUPOLE', 'MULLIKEN_CHARGES')
f=open( 'psi4out.xyz', 'w' )
f.write( "15  " )
f.write( str(ee) + "\n" )
f.write( MOL.save_string_xyz() )
f.close()
--------------------------------------------------------------------------

    Molecular point group: c1
  Charge       = 0
  Multiplicity = 1
  Basis Set: 6-31G*
  Basis Set:
  @DF-RHF Final Energy:  -232.11035798671818
    Total Energy =                       -232.1103579867181566
    Molecular point group: c1
  Basis Set: 6-31G*
  Basis Set:
  Basis Set: 6-31G*
  Basis Set:
  @DF-RHF Final Energy:  -232.11558862046351
    Total Energy =                       -232.1155886204636545
  Basis Set: 6-31G*
  Basis Set:
  Basis Set: 6-31G*
  Basis Set:
  @DF-RHF Final Energy:  -232.12348428833170
    Total Energy =                       -232.1234842883318947
  Basis Set: 6-31G*
  Basis Set:
  Basis Set: 6-31G*
  Basis Set:
  @DF-RHF Final Energy:  -232.12683647182374
    Total Energy =                       -232.1268364718236512
  Basis Set: 6-31G*
  Basis Set:
  @DF-RHF Final Energy:  -232.12734086777158
    Total Energy =                       -232.1273408677716930
  @DF-RHF Final Energy:  -232.12831150833691
    Total Energy =                       -232.1283115083368784
  Basis Set: 6-31G*
  Basis Set:
  @DF-RHF Final Energy:  -232.12850843934703
    Total Energy =                       -232.1285084393467173
  Basis Set: 6-31G*
  Basis Set:
  Basis Set: 6-31G*
  Basis Set:
  @DF-RHF Final Energy:  -232.12852839137705
    Total Energy =                       -232.1285283913770172
  Basis Set: 6-31G*
  Basis Set:
  Basis Set: 6-31G*
  Basis Set:
  @DF-RHF Final Energy:  -232.12852961502713
    Total Energy =                       -232.1285296150270483
  Basis Set: 6-31G*
  Basis Set:
  Charge       = 0
  Multiplicity = 1
  Basis Set: 6-31G*
  Basis Set:

    Orbital Energies (a.u.)
    -----------------------

    Doubly Occupied:

       1A    -20.545832     2A    -11.266228     3A    -11.262480
       4A    -11.223322     5A    -11.218385     6A     -1.365715
       7A     -1.060228     8A     -0.962324     9A     -0.886714
      10A     -0.797311    11A     -0.672075    12A     -0.659093
      13A     -0.624268    14A     -0.606658    15A     -0.555150
      16A     -0.548074    17A     -0.523257    18A     -0.500413
      19A     -0.493505    20A     -0.441558    21A     -0.400789

  @DF-RHF Final Energy:  -232.12852984368510

   => Energetics <=

    Nuclear Repulsion Energy =            191.9114306111782753
    One-Electron Energy =                -694.8531606184169505
    Two-Electron Energy =                 270.8132001635536312
    DFT Exchange-Correlation Energy =       0.0000000000000000
    Empirical Dispersion Energy =           0.0000000000000000
    PCM Polarization Energy =               0.0000000000000000
    EFP Energy =                            0.0000000000000000
    Total Energy =                       -232.1285298436850439
    Molecular point group: c1
  Basis Set: 6-31G*
  Basis Set:

  -Total Gradient:
     Atom            X                  Y                   Z
    ------   -----------------  -----------------  -----------------
       1        0.000041136888     0.000009464819     0.000000409270
       2        0.000017764132    -0.000028680885     0.001906019377
       3       -0.000209812967    -0.000277361337    -0.002557517655
       4       -0.000014101656     0.000002106694    -0.000006259982
       5       -0.000021796645     0.000012530215    -0.000002643065
       6        0.001254456688     0.001541787085    -0.000773792331
       7        0.000015600588     0.000008308479     0.000034759700
       8       -0.001095309897    -0.001252366639     0.001415925311
       9       -0.000003261308     0.000014991946    -0.000005457994
      10       -0.000004196871    -0.000022115662    -0.000013644865
      11        0.000007444600    -0.000002496207    -0.000001955132
      12        0.000003302345     0.000003653037     0.000004697906
      13       -0.000006293748    -0.000003639115     0.000001933117
      14        0.000010505426    -0.000009619563    -0.000005893133
      15        0.000004562425     0.000003437133     0.000003419476

  **** Optimization is complete! (in 10 steps) ****
    Final optimized geometry and variables:
    Molecular point group: c1

    Geometry (in Angstrom), charge = 0, multiplicity = 1:

    H           -2.443738142901     1.792943371314    -0.118353736713
    C           -1.813104002516     0.914135055049    -0.106165866204
    O           -0.499727790881     1.377177991662    -0.104784317059
    H           -2.044250323805     0.317716620215    -0.985282909744
    H           -2.053633474061     0.334351946632     0.779791268893
    C            0.583741328283     0.479180189885    -0.081926657931
    C            0.270135036439    -0.998452899462     0.148071969695
    H            1.242797500122     0.810617529054     0.714426457275
    H            1.122836580703     0.584127420729    -1.019958939208
    C            1.554968822026    -1.828486259294     0.153889700576
    H           -0.243509811949    -1.126874141942     1.095901194655
    H           -0.392510479993    -1.372098011593    -0.626180031655
    H            2.230693692753    -1.504305491903     0.939891298684
    H            1.336464840731    -2.878114989191     0.318733560073
    H            2.082504082735    -1.745264035717    -0.791785425832

  Mulliken Charges: (a.u.)
   Center  Symbol    Alpha    Beta     Spin     Total
       1     H     0.41195  0.41195  0.00000  0.17609
       2     C     3.07700  3.07700  0.00000 -0.15400
       3     O     4.31921  4.31921  0.00000 -0.63843
       4     H     0.43087  0.43087  0.00000  0.13827
       5     H     0.42978  0.42978  0.00000  0.14044
       6     C     2.96627  2.96627  0.00000  0.06746
       7     C     3.18291  3.18291  0.00000 -0.36581
       8     H     0.42403  0.42403  0.00000  0.15195
       9     H     0.42719  0.42719  0.00000  0.14562
      10     C     3.24491  3.24491  0.00000 -0.48982
      11     H     0.41641  0.41641  0.00000  0.16717
      12     H     0.41725  0.41725  0.00000  0.16550
      13     H     0.41856  0.41856  0.00000  0.16288
      14     H     0.41503  0.41503  0.00000  0.16994
      15     H     0.41863  0.41863  0.00000  0.16275

   Total alpha = 21.00000, Total beta = 21.00000, Total charge =  0.00000
