  ==> Input File <==

--------------------------------------------------------------------------
set {
	reference rhf
	basis 6-31G*
}

set_num_threads( 1 )
memory 2 gb

molecule MOL {
0 1

H	 -0.826744	 -1.126251	 -0.681292
O	 -1.422729	 -0.573567	 -0.196946
C	 -0.731407	 0.539437	 0.309156
C	 0.680193	 0.672443	 -0.251532
H	 -1.319765	 1.404033	 0.030086
H	 -0.700012	 0.506517	 1.397677
C	 1.599139	 -0.492137	 0.118598
H	 0.616402	 0.758534	 -1.332349
H	 1.107032	 1.602637	 0.117369
H	 1.239738	 -1.428634	 -0.297334
H	 2.601428	 -0.335055	 -0.265730
H	 1.674954	 -0.608418	 1.197020

	symmetry c1
}
set optking {
	frozen_dihedral = ("
		8 4 3 2
	")
}

ee = energy('scf')
oeprop('DIPOLE', 'QUADRUPOLE', 'MULLIKEN_CHARGES')
f=open( 'psi4out.xyz', 'w' )
f.write( "12  " )
f.write( str(ee) + "\n" )
f.write( MOL.save_string_xyz() )
f.close()
--------------------------------------------------------------------------

    Molecular point group: c1

    Geometry (in Angstrom), charge = 0, multiplicity = 1:

       Center              X                  Y                   Z               Mass
    ------------   -----------------  -----------------  -----------------  -----------------
           H         -0.830841401347    -1.130283391237    -0.666827052052     1.007825032070
           O         -1.426826401347    -0.577599391237    -0.182481052052    15.994914619560
           C         -0.735504401347     0.535404608763     0.323620947948    12.000000000000
           C          0.676095598653     0.668410608763    -0.237067052052    12.000000000000
           H         -1.323862401347     1.400000608763     0.044550947948     1.007825032070
           H         -0.704109401347     0.502484608763     1.412141947948     1.007825032070
           C          1.595041598653    -0.496169391237     0.133062947948    12.000000000000
           H          0.612304598653     0.754501608763    -1.317884052052     1.007825032070
           H          1.102934598653     1.598604608763     0.131833947948     1.007825032070
           H          1.235640598653    -1.432666391237    -0.282869052052     1.007825032070
           H          2.597330598653    -0.339087391237    -0.251265052052     1.007825032070
           H          1.670856598653    -0.612450391237     1.211484947948     1.007825032070

  Charge       = 0
  Multiplicity = 1
  Basis Set: 6-31G*
  Basis Set:

    Orbital Energies (a.u.)
    -----------------------

    Doubly Occupied:

       1A    -20.549624     2A    -11.266805     3A    -11.227861
       4A    -11.223491     5A     -1.358423     6A     -1.056404
       7A     -0.930037     8A     -0.818979     9A     -0.672652
      10A     -0.646875    11A     -0.625201    12A     -0.581071
      13A     -0.550219    14A     -0.511157    15A     -0.496657
      16A     -0.465589    17A     -0.430612

  @DF-RHF Final Energy:  -193.10649261665017

   => Energetics <=

    Nuclear Repulsion Energy =            133.3899536888174850
    One-Electron Energy =                -526.1696878030617199
    Two-Electron Energy =                 199.6732414975945176
    DFT Exchange-Correlation Energy =       0.0000000000000000
    Empirical Dispersion Energy =           0.0000000000000000
    PCM Polarization Energy =               0.0000000000000000
    EFP Energy =                            0.0000000000000000
    Total Energy =                       -193.1064926166496889

  Mulliken Charges: (a.u.)
   Center  Symbol    Alpha    Beta     Spin     Total
       1     H     0.27798  0.27798  0.00000  0.44403
       2     O     4.37795  4.37795  0.00000 -0.75590
       3     C     2.97623  2.97623  0.00000  0.04754
       4     C     3.18708  3.18708  0.00000 -0.37416
       5     H     0.42115  0.42115  0.00000  0.15771
       6     H     0.42808  0.42808  0.00000  0.14383
       7     C     3.24320  3.24320  0.00000 -0.48640
       8     H     0.41681  0.41681  0.00000  0.16638
       9     H     0.41589  0.41589  0.00000  0.16822
      10     H     0.42669  0.42669  0.00000  0.14662
      11     H     0.41354  0.41354  0.00000  0.17291
      12     H     0.41540  0.41540  0.00000  0.16920

   Total alpha = 17.00000, Total beta = 17.00000, Total charge = -0.00000
