  ==> Input File <==

--------------------------------------------------------------------------
set {
	reference rhf
	basis 6-31G*
}

set_num_threads( 4 )
memory 2 gb

molecule MOL {
0 1

H	 -3.261111	 -0.295142	 1.469456
C	 -3.306842	 -0.277400	 0.373456
C	 -2.660244	 0.921717	 -0.272021
O	 -3.838538	 -1.161155	 -0.216482
C	 -1.220012	 1.144545	 0.209990
H	 -2.705793	 0.797307	 -1.347733
H	 -3.263782	 1.790044	 -0.010477
C	 -0.252658	 0.041456	 -0.226725
H	 -0.873521	 2.100229	 -0.171974
H	 -1.211708	 1.231594	 1.295398
C	 1.180775	 0.282413	 0.250794
H	 -0.266029	 -0.034465	 -1.312038
H	 -0.597733	 -0.921000	 0.146291
C	 2.148627	 -0.814315	 -0.201312
H	 1.516199	 1.249228	 -0.115937
H	 1.192670	 0.346017	 1.338083
C	 3.580890	 -0.659131	 0.322722
H	 2.166869	 -0.852443	 -1.289387
H	 1.762857	 -1.776509	 0.128956
C	 3.826289	 -1.284711	 1.696785
H	 3.813206	 0.401548	 0.376919
H	 4.276196	 -1.084894	 -0.397832
H	 3.133533	 -0.889138	 2.434945
H	 3.710564	 -2.363258	 1.678946
H	 4.833372	 -1.071777	 2.042384

	symmetry c1
}
set optking {
	frozen_dihedral = ("
		20 17 14 18
	")
}

ee = optimize('scf')
oeprop('DIPOLE', 'QUADRUPOLE', 'MULLIKEN_CHARGES')
f=open( 'psi4out.xyz', 'w' )
f.write( "25  " )
f.write( str(ee) + "\n" )
f.write( MOL.save_string_xyz() )
f.close()
--------------------------------------------------------------------------

    Molecular point group: c1
  Charge       = 0
  Multiplicity = 1
  Basis Set: 6-31G*
  Basis Set:
  @DF-RHF Final Energy:  -387.12035401450248
    Total Energy =                       -387.1203540145022544
    Molecular point group: c1
  Basis Set: 6-31G*
  Basis Set:
  Basis Set: 6-31G*
  Basis Set:
  @DF-RHF Final Energy:  -387.12045803572403
    Total Energy =                       -387.1204580357240275
  Basis Set: 6-31G*
  Basis Set:
  Basis Set: 6-31G*
  Basis Set:
  @DF-RHF Final Energy:  -387.12061278928263
    Total Energy =                       -387.1206127892825180
  Basis Set: 6-31G*
  Basis Set:
  Basis Set: 6-31G*
  Basis Set:
  @DF-RHF Final Energy:  -387.12072676907786
    Total Energy =                       -387.1207267690781464
  Basis Set: 6-31G*
  Basis Set:
  Basis Set: 6-31G*
  Basis Set:
  @DF-RHF Final Energy:  -387.12056807091642
    Total Energy =                       -387.1205680709161925
  Basis Set: 6-31G*
  Basis Set:
  Basis Set: 6-31G*
  Basis Set:
  @DF-RHF Final Energy:  -387.12072987659207
    Total Energy =                       -387.1207298765921223
  Basis Set: 6-31G*
  Basis Set:
  Basis Set: 6-31G*
  Basis Set:
  @DF-RHF Final Energy:  -387.12073109729317
    Total Energy =                       -387.1207310972929463
  Basis Set: 6-31G*
  Basis Set:
  Charge       = 0
  Multiplicity = 1
  Basis Set: 6-31G*
  Basis Set:

    Orbital Energies (a.u.)
    -----------------------

    Doubly Occupied:

       1A    -20.562056     2A    -11.326207     3A    -11.235433
       4A    -11.234728     5A    -11.223989     6A    -11.220470
       7A    -11.217731     8A    -11.216642     9A    -11.210802
      10A     -1.401998    11A     -1.103880    12A     -1.069333
      13A     -1.013915    14A     -0.942671    15A     -0.872345
      16A     -0.818783    17A     -0.789137    18A     -0.785878
      19A     -0.664177    20A     -0.662110    21A     -0.629535
      22A     -0.625859    23A     -0.607261    24A     -0.592503
      25A     -0.566960    26A     -0.560216    27A     -0.527316
      28A     -0.520560    29A     -0.517340    30A     -0.496929
      31A     -0.485677    32A     -0.482047    33A     -0.466511
      34A     -0.457820    35A     -0.440714    36A     -0.409588

  @DF-RHF Final Energy:  -387.12073122844828

   => Energetics <=

    Nuclear Repulsion Energy =            438.6501070601529477
    One-Electron Energy =               -1393.6234329145845550
    Two-Electron Energy =                 567.8525946259835564
    DFT Exchange-Correlation Energy =       0.0000000000000000
    Empirical Dispersion Energy =           0.0000000000000000
    PCM Polarization Energy =               0.0000000000000000
    EFP Energy =                            0.0000000000000000
    Total Energy =                       -387.1207312284479940
    Molecular point group: c1
  Basis Set: 6-31G*
  Basis Set:

  -Total Gradient:
     Atom            X                  Y                   Z
    ------   -----------------  -----------------  -----------------
       1        0.000005081757    -0.000001353795     0.000000231213
       2       -0.000004468472    -0.000001456890     0.000018907161
       3        0.000016214596    -0.000005838648    -0.000001516098
       4        0.000005506501     0.000007320444    -0.000006074943
       5       -0.000024874309    -0.000026508434     0.000044073940
       6        0.000006282379     0.000003689517    -0.000000784593
       7        0.000003576257     0.000011558384    -0.000000176766
       8        0.000010279882     0.000009603609    -0.000042673190
       9       -0.000025406515    -0.000005975411    -0.000020393047
      10        0.000002212143     0.000014163833     0.000004215892
      11       -0.000004779518    -0.000017221415     0.000019153485
      12        0.000010769396     0.000004424672    -0.000006106628
      13        0.000003713696     0.000001519210    -0.000013504776
      14       -0.000188561275     0.003068719342    -0.000561847075
      15        0.000001019694    -0.000016044057    -0.000007683874
      16       -0.000000522580     0.000014062034     0.000010171735
      17       -0.000781580360     0.002075792737     0.001459238121
      18        0.000343700361    -0.003140289367     0.000133227105
      19       -0.000021908556     0.000007818512    -0.000011537217
      20        0.000627153872    -0.002003010250    -0.001024335979
      21        0.000029179928     0.000012607016     0.000000476310
      22       -0.000014077257    -0.000016213306     0.000016837127
      23       -0.000010531595     0.000003875420    -0.000016556768
      24        0.000011805581    -0.000005096385     0.000009974831
      25        0.000000214397     0.000003853229    -0.000003315965

  **** Optimization is complete! (in 8 steps) ****
    Final optimized geometry and variables:
    Molecular point group: c1

    Geometry (in Angstrom), charge = 0, multiplicity = 1:

    H           -3.213264358696    -0.084100187050     1.241284290308
    C           -3.252387151487    -0.061569783947     0.145027235967
    C           -2.597912415945     1.138154797868    -0.491485772338
    O           -3.788892858060    -0.938171038396    -0.451268013266
    C           -1.158040797129     1.351151633012    -0.003897174207
    H           -2.640570555262     1.019919790000    -1.568064070753
    H           -3.198029716237     2.007911872109    -0.227092572875
    C           -0.193127828520     0.249073535032    -0.448743806005
    H           -0.807174035938     2.309556080293    -0.375385418251
    H           -1.152237051963     1.427321650829     1.082189807072
    C            1.240213846801     0.481868873166     0.031548055800
    H           -0.205308635729     0.182850584058    -1.534746036159
    H           -0.540982154482    -0.715816650428    -0.084494829756
    C            2.212038846834    -0.606689253252    -0.428279517263
    H            1.588580789405     1.447235106085    -0.331363796781
    H            1.248326498819     0.544374298088     1.118149286110
    C            3.646056561001    -0.425602124144     0.095916632467
    H            2.222793476109    -0.652138094723    -1.514664267990
    H            1.838836454501    -1.577489090621    -0.105861576771
    C            3.877326251230    -1.046596453815     1.474653162970
    H            3.897461227207     0.632284415294     0.119847875418
    H            4.340651908431    -0.883448711404    -0.603424250473
    H            3.208501023986    -0.629647297611     2.222300763273
    H            3.712222052754    -2.119604587154     1.446586592150
    H            4.894308649379    -0.876643101850     1.814738153333

  Mulliken Charges: (a.u.)
   Center  Symbol    Alpha    Beta     Spin     Total
       1     H     0.43260  0.43260  0.00000  0.13480
       2     C     2.83084  2.83084  0.00000  0.33832
       3     C     3.20815  3.20815  0.00000 -0.41630
       4     O     4.23775  4.23775  0.00000 -0.47549
       5     C     3.16663  3.16663  0.00000 -0.33326
       6     H     0.39969  0.39969  0.00000  0.20063
       7     H     0.40659  0.40659  0.00000  0.18682
       8     C     3.15518  3.15518  0.00000 -0.31035
       9     H     0.41277  0.41277  0.00000  0.17445
      10     H     0.41967  0.41967  0.00000  0.16067
      11     C     3.15317  3.15317  0.00000 -0.30634
      12     H     0.41802  0.41802  0.00000  0.16395
      13     H     0.41819  0.41819  0.00000  0.16361
      14     C     3.15494  3.15494  0.00000 -0.30988
      15     H     0.42258  0.42258  0.00000  0.15484
      16     H     0.42255  0.42255  0.00000  0.15490
      17     C     3.15453  3.15453  0.00000 -0.30906
      18     H     0.42011  0.42011  0.00000  0.15978
      19     H     0.42192  0.42192  0.00000  0.15615
      20     C     3.24000  3.24000  0.00000 -0.48000
      21     H     0.42229  0.42229  0.00000  0.15541
      22     H     0.41976  0.41976  0.00000  0.16048
      23     H     0.42226  0.42226  0.00000  0.15548
      24     H     0.42062  0.42062  0.00000  0.15877
      25     H     0.41919  0.41919  0.00000  0.16162

   Total alpha = 36.00000, Total beta = 36.00000, Total charge =  0.00000
