                              Psi4 1.0.54 Driver

  ==> Input File <==

--------------------------------------------------------------------------
set {
	reference rhf
	basis cc-pvtz
}

set_num_threads( 4 )
memory 2 gb

molecule MOL {
0 1

H	 1.830733	 -1.487139	 -0.686631
O	 2.012307	 -0.863440	 0.000222
C	 1.050374	 0.054877	 0.000135
C	 -0.318151	 -0.570512	 0.000144
O	 1.286319	 1.213453	 -0.000040
C	 -1.454884	 0.441630	 -0.000560
H	 -0.371613	 -1.223646	 -0.864985
H	 -0.371920	 -1.222758	 0.865929
C	 -2.822577	 -0.232186	 0.000063
H	 -1.359760	 1.084704	 -0.867077
H	 -1.359641	 1.085996	 0.864983
H	 -2.954352	 -0.858985	 -0.875745
H	 -3.615886	 0.505352	 0.000019
H	 -2.953878	 -0.858359	 0.876394

	symmetry c1
}
set optking {
	frozen_dihedral = ("
		1 2 3 5
	")
}

ee,wfn = optimize('scf', return_wfn=True)
oeprop( wfn, 'DIPOLE', 'QUADRUPOLE', 'MULLIKEN_CHARGES')
f=open( 'psi4out.xyz', 'w' )
f.write( "14  " )
f.write( str(ee) + "\n" )
f.write( MOL.save_string_xyz() )
f.close()
--------------------------------------------------------------------------

    Molecular point group: c1
  Charge       = 0
  Multiplicity = 1
  Basis Set: CC-PVTZ
  Basis Set:
  @DF-RHF Final Energy:  -305.98352477572769
    Total Energy =                       -305.9835247757275738
    Molecular point group: c1
  Basis Set: CC-PVTZ
  Basis Set:
  Basis Set: CC-PVTZ
  Basis Set:
  @DF-RHF Final Energy:  -305.98481924368730
    Total Energy =                       -305.9848192436874683
  Basis Set: CC-PVTZ
  Basis Set:
  Basis Set: CC-PVTZ
  Basis Set:
  @DF-RHF Final Energy:  -305.98486011422546
    Total Energy =                       -305.9848601142253415
  Basis Set: CC-PVTZ
  Basis Set:
  Basis Set: CC-PVTZ
  Basis Set:
  @DF-RHF Final Energy:  -305.98489974295831
    Total Energy =                       -305.9848997429582482
  Basis Set: CC-PVTZ
  Basis Set:
  Basis Set: CC-PVTZ
  Basis Set:
  @DF-RHF Final Energy:  -305.98497770006395
    Total Energy =                       -305.9849777000640074
  Basis Set: CC-PVTZ
  Basis Set:
  Charge       = 0
  Multiplicity = 1
  Basis Set: CC-PVTZ
  Basis Set:

    Orbital Energies (a.u.)
    -----------------------

    Doubly Occupied:

       1A    -20.594266     2A    -20.545151     3A    -11.373962
       4A    -11.247264     5A    -11.227941     6A    -11.219365
       7A     -1.466587     8A     -1.373346     9A     -1.087214
      10A     -0.978388    11A     -0.853409    12A     -0.811981
      13A     -0.719446    14A     -0.675149    15A     -0.664442
      16A     -0.630909    17A     -0.582814    18A     -0.572849
      19A     -0.550024    20A     -0.509835    21A     -0.497081
      22A     -0.487738    23A     -0.485185    24A     -0.446279

  @DF-RHF Final Energy:  -305.98497826211263

   => Energetics <=

    Nuclear Repulsion Energy =            239.9965779060981390
    One-Electron Energy =                -892.7618659428268302
    Two-Electron Energy =                 346.7803097746159438
    DFT Exchange-Correlation Energy =       0.0000000000000000
    Empirical Dispersion Energy =           0.0000000000000000
    PCM Polarization Energy =               0.0000000000000000
    EFP Energy =                            0.0000000000000000
    Total Energy =                       -305.9849782621126906
    Molecular point group: c1
  Basis Set: CC-PVTZ
  Basis Set:

  -Total Gradient:
     Atom            X                  Y                   Z
    ------   -----------------  -----------------  -----------------
       1        0.003396153449     0.003982667152    -0.004291940487
       2       -0.004326421917    -0.004988049986     0.002807668408
       3        0.000921897037     0.000874815655     0.007353480854
       4        0.000005705064     0.000003131761     0.000066910858
       5       -0.000007175413     0.000121369899    -0.005880073014
       6        0.000001047478     0.000018591860    -0.000017455739
       7        0.000006464990     0.000003870199    -0.000031413591
       8       -0.000008137236    -0.000002382559    -0.000024360557
       9        0.000004290938    -0.000007790680     0.000001090181
      10        0.000002701639    -0.000008234028     0.000009497936
      11        0.000001070824     0.000002376743     0.000006707301
      12       -0.000001159517    -0.000001976702    -0.000002586536
      13        0.000005160639     0.000001270115    -0.000000081974
      14       -0.000001597973     0.000000340571     0.000002556361

  **** Optimization is complete! (in 6 steps) ****
    Final optimized geometry and variables:
    Molecular point group: c1

    Geometry (in Angstrom), charge = 0, multiplicity = 1:

    H            1.990801458764    -1.446527810367    -0.668543211920
    O            2.084646272014    -0.798288923429     0.008422976847
    C            1.057542916496     0.076613563354     0.014243627825
    C           -0.308882744686    -0.565714020773     0.012538248015
    O            1.257522435150     1.233535513047     0.027846592994
    C           -1.460965561737     0.428719051615    -0.010751945723
    H           -0.362792300015    -1.233809766488    -0.844704841358
    H           -0.360671538836    -1.205520617701     0.888115809184
    C           -2.819657416472    -0.263032011737    -0.006974316670
    H           -1.368953543228     1.060396141449    -0.885956056216
    H           -1.376960215464     1.086065865809     0.845627960428
    H           -2.939853762133    -0.904401933231    -0.874085945856
    H           -3.622083408447     0.464237187376    -0.022083421972
    H           -2.947653372413    -0.877290138079     0.878181676221

  Mulliken Charges: (a.u.)
   Center  Symbol    Alpha    Beta     Spin     Total
       1     H     0.38862  0.38862  0.00000  0.22275
       2     O     4.16009  4.16009  0.00000 -0.32019
       3     C     2.80434  2.80434  0.00000  0.39131
       4     C     3.11646  3.11646  0.00000 -0.23291
       5     O     4.16495  4.16495  0.00000 -0.32991
       6     C     3.08231  3.08231  0.00000 -0.16463
       7     H     0.45273  0.45273  0.00000  0.09455
       8     H     0.43615  0.43615  0.00000  0.12771
       9     C     3.15012  3.15012  0.00000 -0.30025
      10     H     0.44564  0.44564  0.00000  0.10871
      11     H     0.44293  0.44293  0.00000  0.11414
      12     H     0.45642  0.45642  0.00000  0.08717
      13     H     0.44420  0.44420  0.00000  0.11160
      14     H     0.45503  0.45503  0.00000  0.08995

   Total alpha = 24.00000, Total beta = 24.00000, Total charge =  0.00000

*** Psi4 exiting successfully. Buy a developer a beer!
