  ==> Input File <==

--------------------------------------------------------------------------
set {
	reference rhf
	basis 6-31G*
}

set_num_threads( 1 )
memory 2 gb

molecule MOL {
0 1

O	 2.862325	 1.357334	 0.000267
C	 2.843464	 0.164689	 -0.000222
C	 1.546494	 -0.624492	 -0.000609
C	 4.124123	 -0.644674	 -0.000428
C	 0.291004	 0.242674	 0.000989
H	 1.557904	 -1.283758	 -0.867573
H	 1.558622	 -1.285963	 0.864672
C	 0.587378	 1.704024	 -0.340159
H	 -0.183491	 0.179837	 0.975174
H	 -0.423403	 -0.164352	 -0.707602
C	 -0.664182	 2.583414	 -0.340221
H	 1.307028	 2.104870	 0.372213
H	 1.064573	 1.759625	 -1.317533
C	 -0.375903	 4.046682	 -0.680451
H	 -1.141645	 2.529153	 0.636561
H	 -1.383948	 2.184149	 -1.052627
C	 -1.630932	 4.918794	 -0.678290
H	 0.342563	 4.447236	 0.031719
H	 0.100018	 4.102332	 -1.657314
H	 -2.111796	 4.911238	 0.295806
H	 -1.394379	 5.949934	 -0.922207
H	 -2.355593	 4.564608	 -1.406001
H	 4.165367	 -1.288615	 -0.874074
H	 4.976217	 0.020734	 -0.001915
H	 4.166763	 -1.286207	 0.874930

	symmetry c1
}
set optking {
	frozen_dihedral = ("
		9 5 8 12,
		15 11 8 12,
		15 11 14 18,
		1 2 3 6
	")
}

ee = energy('scf')
oeprop('DIPOLE', 'QUADRUPOLE', 'MULLIKEN_CHARGES')
f=open( 'psi4out.xyz', 'w' )
f.write( "25  " )
f.write( str(ee) + "\n" )
f.write( MOL.save_string_xyz() )
f.close()
--------------------------------------------------------------------------

    Molecular point group: c1

    Geometry (in Angstrom), charge = 0, multiplicity = 1:

       Center              X                  Y                   Z               Mass
    ------------   -----------------  -----------------  -----------------  -----------------
           O          1.794850452890    -0.188585240235     0.228657416197    15.994914619560
           C          1.775989452890    -1.381230240235     0.228168416197    12.000000000000
           C          0.479019452890    -2.170411240235     0.227781416197    12.000000000000
           C          3.056648452890    -2.190593240235     0.227962416197    12.000000000000
           C         -0.776470547110    -1.303245240235     0.229379416197    12.000000000000
           H          0.490429452890    -2.829677240235    -0.639182583803     1.007825032070
           H          0.491147452890    -2.831882240235     1.093062416197     1.007825032070
           C         -0.480096547110     0.158104759765    -0.111768583803    12.000000000000
           H         -1.250965547110    -1.366082240235     1.203564416197     1.007825032070
           H         -1.490877547110    -1.710271240235    -0.479211583803     1.007825032070
           C         -1.731656547110     1.037494759765    -0.111830583803    12.000000000000
           H          0.239553452890     0.558950759765     0.600603416197     1.007825032070
           H         -0.002901547110     0.213705759765    -1.089142583803     1.007825032070
           C         -1.443377547110     2.500762759765    -0.452060583803    12.000000000000
           H         -2.209119547110     0.983233759765     0.864951416197     1.007825032070
           H         -2.451422547110     0.638229759765    -0.824236583803     1.007825032070
           C         -2.698406547110     3.372874759765    -0.449899583803    12.000000000000
           H         -0.724911547110     2.901316759765     0.260109416197     1.007825032070
           H         -0.967456547110     2.556412759765    -1.428923583803     1.007825032070
           H         -3.179270547110     3.365318759765     0.524196416197     1.007825032070
           H         -2.461853547110     4.404014759765    -0.693816583803     1.007825032070
           H         -3.423067547110     3.018688759765    -1.177610583803     1.007825032070
           H          3.097892452890    -2.834534240235    -0.645683583803     1.007825032070
           H          3.908742452890    -1.525185240235     0.226475416197     1.007825032070
           H          3.099288452890    -2.832126240235     1.103320416197     1.007825032070

  Charge       = 0
  Multiplicity = 1
  Basis Set: 6-31G*
  Basis Set:

    Orbital Energies (a.u.)
    -----------------------

    Doubly Occupied:

       1A    -20.546853     2A    -11.331677     3A    -11.233398
       4A    -11.230697     5A    -11.214758     6A    -11.201328
       7A    -11.198149     8A    -11.194345     9A    -11.184504
      10A     -1.405295    11A     -1.082818    12A     -1.050449
      13A     -1.014864    14A     -0.959522    15A     -0.883097
      16A     -0.810153    17A     -0.780270    18A     -0.737232
      19A     -0.663252    20A     -0.648305    21A     -0.623506
      22A     -0.619469    23A     -0.590738    24A     -0.579855
      25A     -0.561297    26A     -0.551366    27A     -0.529544
      28A     -0.520227    29A     -0.511708    30A     -0.501259
      31A     -0.494487    32A     -0.459537    33A     -0.455024
      34A     -0.438304    35A     -0.430392    36A     -0.372496

  @DF-RHF Final Energy:  -387.09487458522267

   => Energetics <=

    Nuclear Repulsion Energy =            459.6380433709795170
    One-Electron Energy =               -1436.2454823241732811
    Two-Electron Energy =                 589.5125643679718905
    DFT Exchange-Correlation Energy =       0.0000000000000000
    Empirical Dispersion Energy =           0.0000000000000000
    PCM Polarization Energy =               0.0000000000000000
    EFP Energy =                            0.0000000000000000
    Total Energy =                       -387.0948745852218735

  Mulliken Charges: (a.u.)
   Center  Symbol    Alpha    Beta     Spin     Total
       1     O     4.26055  4.26055  0.00000 -0.52110
       2     C     2.73619  2.73619  0.00000  0.52762
       3     C     3.21524  3.21524  0.00000 -0.43048
       4     C     3.28605  3.28605  0.00000 -0.57209
       5     C     3.15315  3.15315  0.00000 -0.30630
       6     H     0.40611  0.40611  0.00000  0.18779
       7     H     0.40562  0.40562  0.00000  0.18876
       8     C     3.15560  3.15560  0.00000 -0.31120
       9     H     0.41934  0.41934  0.00000  0.16132
      10     H     0.41953  0.41953  0.00000  0.16094
      11     C     3.14652  3.14652  0.00000 -0.29305
      12     H     0.38897  0.38897  0.00000  0.22206
      13     H     0.42720  0.42720  0.00000  0.14560
      14     C     3.14939  3.14939  0.00000 -0.29879
      15     H     0.43029  0.43029  0.00000  0.13941
      16     H     0.43309  0.43309  0.00000  0.13382
      17     C     3.23838  3.23838  0.00000 -0.47676
      18     H     0.42270  0.42270  0.00000  0.15460
      19     H     0.42445  0.42445  0.00000  0.15111
      20     H     0.42360  0.42360  0.00000  0.15279
      21     H     0.42156  0.42156  0.00000  0.15688
      22     H     0.42370  0.42370  0.00000  0.15261
      23     H     0.40824  0.40824  0.00000  0.18352
      24     H     0.39629  0.39629  0.00000  0.20742
      25     H     0.40824  0.40824  0.00000  0.18352

   Total alpha = 36.00000, Total beta = 36.00000, Total charge = -0.00000
