  ==> Input File <==

--------------------------------------------------------------------------
set {
	reference rhf
	basis 6-31G*
}

set_num_threads( 4 )
memory 2 gb

molecule MOL {
0 1

H	 -0.216825	 0.021369	 -3.357402
C	 0.374198	 0.036393	 -2.447010
C	 -0.521757	 -0.028637	 -1.217342
H	 0.969602	 0.942322	 -2.434777
H	 1.053364	 -0.811668	 -2.481329
N	 0.263400	 0.031178	 0.000000
H	 -1.199035	 0.820290	 -1.219355
H	 -1.147901	 -0.924895	 -1.265384
C	 -0.521757	 -0.028637	 1.217342
H	 0.935769	 -0.712709	 0.000000
C	 0.167075	 -0.889344	 2.267934
H	 -0.629398	 0.983947	 1.594799
H	 -1.534850	 -0.403265	 1.041442
H	 1.156859	 -0.503615	 2.484506
H	 -0.407242	 -0.909161	 3.188866
H	 0.273915	 -1.915117	 1.924384

	symmetry c1
}
set optking {
	frozen_dihedral = ("
		12 9 6 3
	")
}

ee = optimize('scf')
oeprop('DIPOLE', 'QUADRUPOLE', 'MULLIKEN_CHARGES')
f=open( 'psi4out.xyz', 'w' )
f.write( "16  " )
f.write( str(ee) + "\n" )
f.write( MOL.save_string_xyz() )
f.close()
--------------------------------------------------------------------------

    Molecular point group: c1
  Charge       = 0
  Multiplicity = 1
  Basis Set: 6-31G*
  Basis Set:
  @DF-RHF Final Energy:  -212.30953373576264
    Total Energy =                       -212.3095337357625567
    Molecular point group: c1
  Basis Set: 6-31G*
  Basis Set:
  Basis Set: 6-31G*
  Basis Set:
  @DF-RHF Final Energy:  -212.30983250272317
    Total Energy =                       -212.3098325027233386
  Basis Set: 6-31G*
  Basis Set:
  Basis Set: 6-31G*
  Basis Set:
  @DF-RHF Final Energy:  -212.30989626408638
    Total Energy =                       -212.3098962640864329
  Basis Set: 6-31G*
  Basis Set:
  Basis Set: 6-31G*
  Basis Set:
  @DF-RHF Final Energy:  -212.30989796549432
    Total Energy =                       -212.3098979654943719
  Basis Set: 6-31G*
  Basis Set:
  Charge       = 0
  Multiplicity = 1
  Basis Set: 6-31G*
  Basis Set:

    Orbital Energies (a.u.)
    -----------------------

    Doubly Occupied:

       1A    -15.532371     2A    -11.240456     3A    -11.240310
       4A    -11.213389     5A    -11.207711     6A     -1.203057
       7A     -1.028942     8A     -0.963287     9A     -0.834707
      10A     -0.822078    11A     -0.650028    12A     -0.628101
      13A     -0.614966    14A     -0.584459    15A     -0.552960
      16A     -0.521964    17A     -0.507464    18A     -0.492397
      19A     -0.485550    20A     -0.471512    21A     -0.357429

  @DF-RHF Final Energy:  -212.30989829987240

   => Energetics <=

    Nuclear Repulsion Energy =            189.3475526359376602
    One-Electron Energy =                -661.0086195247722571
    Two-Electron Energy =                 259.3511685889625369
    DFT Exchange-Correlation Energy =       0.0000000000000000
    Empirical Dispersion Energy =           0.0000000000000000
    PCM Polarization Energy =               0.0000000000000000
    EFP Energy =                            0.0000000000000000
    Total Energy =                       -212.3098982998720885
    Molecular point group: c1
  Basis Set: 6-31G*
  Basis Set:

  -Total Gradient:
     Atom            X                  Y                   Z
    ------   -----------------  -----------------  -----------------
       1        0.000004004649    -0.000000367331    -0.000008888614
       2       -0.000003846486    -0.000005555283    -0.000013273234
       3        0.000265369036    -0.003177239757     0.000037926099
       4       -0.000004248954    -0.000002248547     0.000003496684
       5        0.000000211501     0.000000518987    -0.000001503849
       6        0.000487847754     0.004405083524     0.000541430399
       7       -0.000002593669     0.000001463547     0.000001737815
       8       -0.000006457691    -0.000002961817    -0.000004215294
       9       -0.004181346248    -0.000766751087    -0.002748569031
      10        0.000009399256     0.000013644447    -0.000001213896
      11       -0.000002807910     0.000000177042    -0.000009524993
      12        0.003456970854    -0.000496072057     0.002165344999
      13       -0.000018411518     0.000009812263     0.000024135726
      14        0.000006795968    -0.000003418482    -0.000001776952
      15       -0.000008410453     0.000003100748     0.000015246559
      16       -0.000002476091     0.000020813803    -0.000000352414

  **** Optimization is complete! (in 5 steps) ****
    Final optimized geometry and variables:
    Molecular point group: c1

    Geometry (in Angstrom), charge = 0, multiplicity = 1:

    H           -0.166315142038     0.219482293986    -3.329015135236
    C            0.420776262006     0.235599728327    -2.416024026541
    C           -0.479554825341     0.163909134034    -1.190331403890
    H            1.012061892097     1.144046103433    -2.399590520230
    H            1.104301374735    -0.609205767328    -2.448957543301
    N            0.302348776158     0.215053372622     0.030569322077
    H           -1.157510074788     1.012492434827    -1.192539585211
    H           -1.105397171514    -0.731978201353    -1.243314423034
    C           -0.481125524124     0.155462586537     1.258698094165
    H            0.962783508442    -0.537825760136     0.019335715885
    C            0.209493604486    -0.695634667273     2.319669608610
    H           -0.592906773350     1.160296733284     1.656580077450
    H           -1.479964855624    -0.240249027875     1.076272068412
    H            1.211252900106    -0.324592306275     2.513866405974
    H           -0.343041598924    -0.673351927571     3.253346626983
    H            0.287937157780    -1.732288617303     2.002520522360

  Mulliken Charges: (a.u.)
   Center  Symbol    Alpha    Beta     Spin     Total
       1     H     0.42042  0.42042  0.00000  0.15917
       2     C     3.24221  3.24221  0.00000 -0.48441
       3     C     3.05579  3.05579  0.00000 -0.11158
       4     H     0.41174  0.41174  0.00000  0.17652
       5     H     0.42514  0.42514  0.00000  0.14971
       6     N     3.85309  3.85309  0.00000 -0.70617
       7     H     0.41997  0.41997  0.00000  0.16006
       8     H     0.43517  0.43517  0.00000  0.12966
       9     C     3.04388  3.04388  0.00000 -0.08776
      10     H     0.33348  0.33348  0.00000  0.33305
      11     C     3.25525  3.25525  0.00000 -0.51049
      12     H     0.41964  0.41964  0.00000  0.16072
      13     H     0.43014  0.43014  0.00000  0.13971
      14     H     0.41437  0.41437  0.00000  0.17127
      15     H     0.41678  0.41678  0.00000  0.16644
      16     H     0.42295  0.42295  0.00000  0.15411

   Total alpha = 21.00000, Total beta = 21.00000, Total charge = -0.00000
