  ==> Input File <==

--------------------------------------------------------------------------
set {
	reference rhf
	basis 6-31G*
}

set_num_threads( 4 )
memory 2 gb

molecule MOL {
0 1

H	 -3.261111	 -0.295142	 1.469456
C	 -3.306842	 -0.277400	 0.373456
C	 -2.660244	 0.921717	 -0.272021
O	 -3.838538	 -1.161155	 -0.216482
C	 -1.277528	 1.233306	 0.317268
H	 -2.608258	 0.748516	 -1.340669
H	 -3.321129	 1.771060	 -0.103191
C	 -0.229322	 0.159283	 0.015542
H	 -0.941578	 2.186768	 -0.079383
H	 -1.365790	 1.367882	 1.394234
C	 1.146222	 0.488446	 0.598933
H	 -0.146595	 0.035576	 -1.062280
H	 -0.562803	 -0.801260	 0.403726
C	 2.195962	 -0.579876	 0.281627
H	 1.469370	 1.453156	 0.215994
H	 1.062394	 0.599878	 1.679183
C	 3.570099	 -0.334337	 0.915290
H	 2.308747	 -0.664492	 -0.798101
H	 1.825614	 -1.543949	 0.623854
C	 4.303246	 0.899042	 0.385298
H	 4.190196	 -1.209853	 0.739511
H	 3.459708	 -0.253329	 1.994722
H	 4.413720	 0.853067	 -0.694957
H	 3.779047	 1.818005	 0.625504
H	 5.297585	 0.970306	 0.815655

	symmetry c1
}
set optking {
	frozen_dihedral = ("
		6 3 2 4
	")
}

ee = optimize('scf')
oeprop('DIPOLE', 'QUADRUPOLE', 'MULLIKEN_CHARGES')
f=open( 'psi4out.xyz', 'w' )
f.write( "25  " )
f.write( str(ee) + "\n" )
f.write( MOL.save_string_xyz() )
f.close()
--------------------------------------------------------------------------

    Molecular point group: c1
  Charge       = 0
  Multiplicity = 1
  Basis Set: 6-31G*
  Basis Set:
  @DF-RHF Final Energy:  -387.12200483986783
    Total Energy =                       -387.1220048398675999
    Molecular point group: c1
  Basis Set: 6-31G*
  Basis Set:
  Basis Set: 6-31G*
  Basis Set:
  @DF-RHF Final Energy:  -387.12143024483635
    Total Energy =                       -387.1214302448368016
  Basis Set: 6-31G*
  Basis Set:
  Basis Set: 6-31G*
  Basis Set:
  @DF-RHF Final Energy:  -387.12202009894077
    Total Energy =                       -387.1220200989404248
  Basis Set: 6-31G*
  Basis Set:
  Basis Set: 6-31G*
  Basis Set:
  @DF-RHF Final Energy:  -387.12196921050321
    Total Energy =                       -387.1219692105033801
  Basis Set: 6-31G*
  Basis Set:
  @DF-RHF Final Energy:  -387.12202231207067
    Total Energy =                       -387.1220223120698165
  Basis Set: 6-31G*
  Basis Set:
  @DF-RHF Final Energy:  -387.12202376627772
    Total Energy =                       -387.1220237662777208
  Basis Set: 6-31G*
  Basis Set:
  Basis Set: 6-31G*
  Basis Set:
  @DF-RHF Final Energy:  -387.12202026648788
    Total Energy =                       -387.1220202664870840
  Basis Set: 6-31G*
  Basis Set:
  Basis Set: 6-31G*
  Basis Set:
  @DF-RHF Final Energy:  -387.12202473215456
    Total Energy =                       -387.1220247321543866
  Basis Set: 6-31G*
  Basis Set:
  Charge       = 0
  Multiplicity = 1
  Basis Set: 6-31G*
  Basis Set:

    Orbital Energies (a.u.)
    -----------------------

    Doubly Occupied:

       1A    -20.561837     2A    -11.326287     3A    -11.235211
       4A    -11.234626     5A    -11.224725     6A    -11.220331
       7A    -11.218404     8A    -11.217429     9A    -11.210991
      10A     -1.401918    11A     -1.104409    12A     -1.070029
      13A     -1.013616    14A     -0.942618    15A     -0.875414
      16A     -0.821205    17A     -0.788524    18A     -0.781841
      19A     -0.664125    20A     -0.660960    21A     -0.633078
      22A     -0.627191    23A     -0.602791    24A     -0.595399
      25A     -0.574764    26A     -0.549519    27A     -0.536404
      28A     -0.525676    29A     -0.507808    30A     -0.495617
      31A     -0.491872    32A     -0.479918    33A     -0.465088
      34A     -0.459390    35A     -0.441603    36A     -0.409535

  @DF-RHF Final Energy:  -387.12202463043423

   => Energetics <=

    Nuclear Repulsion Energy =            438.6461722459521297
    One-Electron Energy =               -1393.5960836901931543
    Two-Electron Energy =                 567.8278868138064581
    DFT Exchange-Correlation Energy =       0.0000000000000000
    Empirical Dispersion Energy =           0.0000000000000000
    PCM Polarization Energy =               0.0000000000000000
    EFP Energy =                            0.0000000000000000
    Total Energy =                       -387.1220246304345665
    Molecular point group: c1
  Basis Set: 6-31G*
  Basis Set:

  -Total Gradient:
     Atom            X                  Y                   Z
    ------   -----------------  -----------------  -----------------
       1       -0.000015305905    -0.000001877493     0.000003960870
       2        0.000539457743    -0.000301349092    -0.000021064269
       3       -0.000531320148     0.000263211646    -0.000017902098
       4       -0.000321141230     0.000176853124     0.000023223672
       5        0.000001533780    -0.000001996971    -0.000005334705
       6        0.000314068324    -0.000144099948     0.000039924835
       7        0.000000876486    -0.000000707872    -0.000001262698
       8        0.000006782209     0.000016641159    -0.000015146485
       9       -0.000000293907     0.000001929898    -0.000005836558
      10        0.000001389792     0.000000759032    -0.000005658494
      11       -0.000005510607    -0.000005819874     0.000008358915
      12        0.000009871812     0.000007311557    -0.000004307559
      13       -0.000002049476    -0.000002618353    -0.000003311076
      14        0.000003717924    -0.000004160837     0.000005143091
      15       -0.000011657433    -0.000012042518    -0.000002667732
      16       -0.000001525710     0.000005737175     0.000001762508
      17       -0.000001298338     0.000002339597     0.000001273150
      18       -0.000002040450     0.000007562764     0.000001954225
      19        0.000007815226    -0.000006216749    -0.000004239297
      20        0.000008346181    -0.000001467335    -0.000003258678
      21       -0.000000909178    -0.000003281664     0.000006559726
      22       -0.000006799994     0.000005888404    -0.000001072207
      23       -0.000003092249     0.000002658441     0.000000182262
      24        0.000010080744    -0.000001528349     0.000004512122
      25       -0.000000995593    -0.000003725742    -0.000005793520

  **** Optimization is complete! (in 9 steps) ****
    Final optimized geometry and variables:
    Molecular point group: c1

    Geometry (in Angstrom), charge = 0, multiplicity = 1:

    H           -3.274685208522    -0.436825690102     1.208486878616
    C           -3.304213156701    -0.425172757098     0.111749959146
    C           -2.653406995685     0.773001787829    -0.532930901665
    O           -3.838568974927    -1.305883668914    -0.480260733066
    C           -1.271320505204     1.087536397020     0.053650433974
    H           -2.602764862770     0.599325636446    -1.601716339218
    H           -3.317184492176     1.620608482083    -0.366143676017
    C           -0.221757364091     0.015360067283    -0.250317175014
    H           -0.936906026671     2.042180789060    -0.341997668267
    H           -1.357918572637     1.220323779326     1.130800383625
    C            1.154968224690     0.345800405703     0.329528550509
    H           -0.141137873089    -0.107487130608    -1.328476714615
    H           -0.552930913567    -0.946177399149     0.138359383228
    C            2.203932930440    -0.724127866816     0.014886177665
    H            1.477829681025     1.309305065862    -0.056556073171
    H            1.072444344198     0.460469873980     1.409416175354
    C            3.577136030788    -0.480377995830     0.651185341633
    H            2.319177506364    -0.808468092442    -1.064503753486
    H            1.831658115775    -1.687878176078     0.355873054969
    C            4.312643578760     0.752875218070     0.123533957594
    H            4.196542989778    -1.356574462722     0.476714767348
    H            3.464080106692    -0.399733938768     1.730443028313
    H            4.428098424424     0.706069353394    -0.956043000857
    H            3.787671252576     1.672312561640     0.360731685571
    H            5.304970877066     0.824433417571     0.557967601384

  Mulliken Charges: (a.u.)
   Center  Symbol    Alpha    Beta     Spin     Total
       1     H     0.43244  0.43244  0.00000  0.13513
       2     C     2.83090  2.83090  0.00000  0.33820
       3     C     3.20866  3.20866  0.00000 -0.41731
       4     O     4.23815  4.23815  0.00000 -0.47629
       5     C     3.16649  3.16649  0.00000 -0.33298
       6     H     0.39951  0.39951  0.00000  0.20098
       7     H     0.40516  0.40516  0.00000  0.18969
       8     C     3.15481  3.15481  0.00000 -0.30963
       9     H     0.41300  0.41300  0.00000  0.17401
      10     H     0.41973  0.41973  0.00000  0.16054
      11     C     3.15411  3.15411  0.00000 -0.30821
      12     H     0.41807  0.41807  0.00000  0.16387
      13     H     0.41940  0.41940  0.00000  0.16120
      14     C     3.15311  3.15311  0.00000 -0.30622
      15     H     0.42065  0.42065  0.00000  0.15870
      16     H     0.42370  0.42370  0.00000  0.15260
      17     C     3.15278  3.15278  0.00000 -0.30556
      18     H     0.42299  0.42299  0.00000  0.15402
      19     H     0.42076  0.42076  0.00000  0.15848
      20     C     3.24139  3.24139  0.00000 -0.48278
      21     H     0.41990  0.41990  0.00000  0.16019
      22     H     0.42323  0.42323  0.00000  0.15354
      23     H     0.42186  0.42186  0.00000  0.15629
      24     H     0.42064  0.42064  0.00000  0.15871
      25     H     0.41858  0.41858  0.00000  0.16283

   Total alpha = 36.00000, Total beta = 36.00000, Total charge = -0.00000
