  ==> Input File <==

--------------------------------------------------------------------------
set {
	reference rhf
	basis cc-pvtz
}

set_num_threads( 4 )
memory 2 gb

molecule MOL {
0 1

H	 -2.816458	 -0.841657	 -0.064679
N	 -1.878861	 -0.711874	 0.250184
C	 -1.341419	 0.551458	 -0.220231
H	 -1.333674	 -1.468530	 -0.105118
C	 0.082190	 0.731516	 0.254705
H	 -1.357065	 0.652078	 -1.304747
H	 -1.939897	 1.357530	 0.189797
O	 0.095801	 1.664020	 1.292953
H	 0.479062	 -0.221237	 0.602450
H	 0.701326	 1.078295	 -0.569517
C	 1.361776	 1.971492	 1.774605
H	 1.248443	 2.693955	 2.569960
H	 1.860944	 1.090236	 2.171988
H	 1.989571	 2.401154	 0.997542

	symmetry c1
}
set optking {
	frozen_dihedral = ("
		8 5 3 6
	")
}

ee = optimize('scf')
oeprop('DIPOLE', 'QUADRUPOLE', 'MULLIKEN_CHARGES')
f=open( 'psi4out.xyz', 'w' )
f.write( "14  " )
f.write( str(ee) + "\n" )
f.write( MOL.save_string_xyz() )
f.close()
--------------------------------------------------------------------------

    Molecular point group: c1
  Charge       = 0
  Multiplicity = 1
  Basis Set: CC-PVTZ
  Basis Set:
  @DF-RHF Final Energy:  -248.21762806979154
    Total Energy =                       -248.2176280697914308
    Molecular point group: c1
  Basis Set: CC-PVTZ
  Basis Set:
  Basis Set: CC-PVTZ
  Basis Set:
  @DF-RHF Final Energy:  -248.21829848955784
    Total Energy =                       -248.2182984895578670
  Basis Set: CC-PVTZ
  Basis Set:
  Basis Set: CC-PVTZ
  Basis Set:
  @DF-RHF Final Energy:  -248.21852387383859
    Total Energy =                       -248.2185238738388762
  Basis Set: CC-PVTZ
  Basis Set:
  Basis Set: CC-PVTZ
  Basis Set:
  @DF-RHF Final Energy:  -248.21855371652495
    Total Energy =                       -248.2185537165253777
  Basis Set: CC-PVTZ
  Basis Set:
  Basis Set: CC-PVTZ
  Basis Set:
  @DF-RHF Final Energy:  -248.21855606168828
    Total Energy =                       -248.2185560616882753
  Basis Set: CC-PVTZ
  Basis Set:
  Charge       = 0
  Multiplicity = 1
  Basis Set: CC-PVTZ
  Basis Set:

    Orbital Energies (a.u.)
    -----------------------

    Doubly Occupied:

       1A    -20.546003     2A    -15.529777     3A    -11.263232
       4A    -11.259738     5A    -11.240226     6A     -1.380264
       7A     -1.179299     8A     -0.997965     9A     -0.900757
      10A     -0.823105    11A     -0.679684    12A     -0.672256
      13A     -0.645237    14A     -0.619462    15A     -0.608814
      16A     -0.533170    17A     -0.528408    18A     -0.501916
      19A     -0.468394    20A     -0.414888    21A     -0.387439

  @DF-RHF Final Energy:  -248.21855617051014

   => Energetics <=

    Nuclear Repulsion Energy =            191.8228289240746847
    One-Electron Energy =                -717.7227039981011103
    Two-Electron Energy =                 277.6813189035161145
    DFT Exchange-Correlation Energy =       0.0000000000000000
    Empirical Dispersion Energy =           0.0000000000000000
    PCM Polarization Energy =               0.0000000000000000
    EFP Energy =                            0.0000000000000000
    Total Energy =                       -248.2185561705103396
    Molecular point group: c1
  Basis Set: CC-PVTZ
  Basis Set:

  -Total Gradient:
     Atom            X                  Y                   Z
    ------   -----------------  -----------------  -----------------
       1        0.000003416947     0.000002290676    -0.000003582146
       2        0.000003409814     0.000012712755     0.000009274929
       3        0.000740714112    -0.002824765995    -0.000750778808
       4       -0.000000323735     0.000001503342    -0.000004572767
       5       -0.000377977516    -0.001405746893     0.001969734011
       6       -0.000558019827     0.002666566590     0.000237248288
       7       -0.000004401875    -0.000007168867     0.000001012129
       8        0.000204635082     0.001560249264    -0.001450319970
       9        0.000003596110    -0.000010715700    -0.000006279067
      10       -0.000002021925    -0.000002950183    -0.000004690771
      11       -0.000005565089     0.000008971320     0.000012096871
      12        0.000003421886     0.000003111381     0.000001595554
      13       -0.000006564475    -0.000000734004    -0.000007745900
      14       -0.000004319507    -0.000003323688    -0.000002992352

  **** Optimization is complete! (in 6 steps) ****
    Final optimized geometry and variables:
    Molecular point group: c1

    Geometry (in Angstrom), charge = 0, multiplicity = 1:

    H           -2.512078823167    -1.644387811304    -0.549497842964
    N           -1.527975914757    -1.577992047651    -0.400057378978
    C           -1.009079644295    -0.316946857518    -0.903799691937
    H           -1.106791386464    -2.354081463219    -0.866066058017
    C            0.422877565979    -0.064129060759    -0.438868128225
    H           -1.058892963210    -0.228964123427    -1.988066193946
    H           -1.617936380831     0.482028374894    -0.503442823070
    O            0.420577608314     0.873198247058     0.593084561553
    H            0.869562687360    -0.996663840617    -0.100767604409
    H            1.027750179750     0.311723325507    -1.263079632933
    C            1.672322399533     1.127206189130     1.136325553535
    H            1.552464807977     1.869290766578     1.912361586474
    H            2.106942224064     0.230976021624     1.573524836156
    H            2.362091771532     1.512917824747     0.387770719898

  Mulliken Charges: (a.u.)
   Center  Symbol    Alpha    Beta     Spin     Total
       1     H     0.42802  0.42802  0.00000  0.14395
       2     N     3.68941  3.68941  0.00000 -0.37881
       3     C     3.03175  3.03175  0.00000 -0.06351
       4     H     0.43183  0.43183  0.00000  0.13634
       5     C     2.95526  2.95526  0.00000  0.08948
       6     H     0.46538  0.46538  0.00000  0.06924
       7     H     0.45015  0.45015  0.00000  0.09970
       8     O     4.17177  4.17177  0.00000 -0.34354
       9     H     0.47707  0.47707  0.00000  0.04586
      10     H     0.47741  0.47741  0.00000  0.04518
      11     C     3.03007  3.03007  0.00000 -0.06014
      12     H     0.44705  0.44705  0.00000  0.10589
      13     H     0.47108  0.47108  0.00000  0.05784
      14     H     0.47375  0.47375  0.00000  0.05250

   Total alpha = 21.00000, Total beta = 21.00000, Total charge =  0.00000
