  ==> Input File <==

--------------------------------------------------------------------------
set {
	reference rhf
	basis 6-31G*
}

set_num_threads( 4 )
memory 2 gb

molecule MOL {
0 1

H	 -0.821032	 -1.655889	 0.000000
O	 -1.037828	 -0.728600	 0.000000
C	 0.100509	 -0.036935	 0.000000
C	 1.043579	 -0.512438	 1.067904
O	 0.308999	 0.843874	 -0.768069
H	 0.572792	 -0.415699	 2.039355
H	 1.951050	 0.071147	 1.035113
H	 1.268945	 -1.561423	 0.914425

	symmetry c1
}
set optking {
	frozen_dihedral = ("
		4 3 2 1
	")
}

ee = optimize('scf')
oeprop('DIPOLE', 'QUADRUPOLE', 'MULLIKEN_CHARGES')
f=open( 'psi4out.xyz', 'w' )
f.write( "8  " )
f.write( str(ee) + "\n" )
f.write( MOL.save_string_xyz() )
f.close()
--------------------------------------------------------------------------

    Molecular point group: c1
  Charge       = 0
  Multiplicity = 1
  Basis Set: 6-31G*
  Basis Set:
  @DF-RHF Final Energy:  -227.79040524861057
    Total Energy =                       -227.7904052486105968
    Molecular point group: c1
  Basis Set: 6-31G*
  Basis Set:
  Basis Set: 6-31G*
  Basis Set:
  @DF-RHF Final Energy:  -227.79028092578540
    Total Energy =                       -227.7902809257853960
  Basis Set: 6-31G*
  Basis Set:
  Basis Set: 6-31G*
  Basis Set:
  @DF-RHF Final Energy:  -227.79166199834447
    Total Energy =                       -227.7916619983444377
  Basis Set: 6-31G*
  Basis Set:
  Basis Set: 6-31G*
  Basis Set:
  @DF-RHF Final Energy:  -227.79264867408375
    Total Energy =                       -227.7926486740838072
  Basis Set: 6-31G*
  Basis Set:
  @DF-RHF Final Energy:  -227.79267750440874
    Total Energy =                       -227.7926775044087435
  @DF-RHF Final Energy:  -227.79268601588973
    Total Energy =                       -227.7926860158897568
  Basis Set: 6-31G*
  Basis Set:
  @DF-RHF Final Energy:  -227.79269025650007
    Total Energy =                       -227.7926902565000375
  Basis Set: 6-31G*
  Basis Set:
  Basis Set: 6-31G*
  Basis Set:
  @DF-RHF Final Energy:  -227.79269234873581
    Total Energy =                       -227.7926923487356135
  Basis Set: 6-31G*
  Basis Set:
  Basis Set: 6-31G*
  Basis Set:
  @DF-RHF Final Energy:  -227.79269374471409
    Total Energy =                       -227.7926937447140858
  Basis Set: 6-31G*
  Basis Set:
  Charge       = 0
  Multiplicity = 1
  Basis Set: 6-31G*
  Basis Set:

    Orbital Energies (a.u.)
    -----------------------

    Doubly Occupied:

       1A    -20.606515     2A    -20.556872     3A    -11.385630
       4A    -11.248646     5A     -1.466083     6A     -1.372298
       7A     -1.024917     8A     -0.834296     9A     -0.716210
      10A     -0.666888    11A     -0.659736    12A     -0.598764
      13A     -0.576165    14A     -0.531775    15A     -0.485935
      16A     -0.448226

  @DF-RHF Final Energy:  -227.79269473442679

   => Energetics <=

    Nuclear Repulsion Energy =            121.9490493037859125
    One-Electron Energy =                -553.1255787606939975
    Two-Electron Energy =                 203.3838347224813674
    DFT Exchange-Correlation Energy =       0.0000000000000000
    Empirical Dispersion Energy =           0.0000000000000000
    PCM Polarization Energy =               0.0000000000000000
    EFP Energy =                            0.0000000000000000
    Total Energy =                       -227.7926947344267319
    Molecular point group: c1
  Basis Set: 6-31G*
  Basis Set:

  -Total Gradient:
     Atom            X                  Y                   Z
    ------   -----------------  -----------------  -----------------
       1        0.000230371363     0.000074928680    -0.006703550779
       2       -0.000990792192     0.001301858146     0.009517235816
       3        0.002384018691    -0.003740997010    -0.005106882664
       4       -0.001660794175     0.002689593919     0.002624505448
       5        0.000002057844    -0.000313781425    -0.000305534593
       6       -0.000045477281    -0.000056376941     0.000015838356
       7        0.000010190244    -0.000000402952     0.000016740081
       8        0.000070425508     0.000045177582    -0.000058351667

  **** Optimization is complete! (in 10 steps) ****
    Final optimized geometry and variables:
    Molecular point group: c1

    Geometry (in Angstrom), charge = 0, multiplicity = 1:

    H           -0.992004173669    -1.546660486909    -0.132959123536
    O           -1.131511723895    -0.608275421413    -0.128638268172
    C            0.030365266431     0.077010662223    -0.087354516531
    C            0.988886318775    -0.371858474743     0.988515030541
    O            0.199825017687     1.018052280963    -0.777385325992
    H            0.521197938527    -0.217731977504     1.954860993084
    H            1.901698996214     0.201049414153     0.927247133461
    H            1.219597364193    -1.429410687086     0.900139064668

  Mulliken Charges: (a.u.)
   Center  Symbol    Alpha    Beta     Spin     Total
       1     H     0.26954  0.26954  0.00000  0.46092
       2     O     4.35261  4.35261  0.00000 -0.70523
       3     C     2.63554  2.63554  0.00000  0.72893
       4     C     3.29569  3.29569  0.00000 -0.59137
       5     O     4.24843  4.24843  0.00000 -0.49686
       6     H     0.39468  0.39468  0.00000  0.21065
       7     H     0.39112  0.39112  0.00000  0.21775
       8     H     0.41240  0.41240  0.00000  0.17521

   Total alpha = 16.00000, Total beta = 16.00000, Total charge = -0.00000
