  ==> Input File <==

--------------------------------------------------------------------------
set {
	reference rhf
	basis 6-31G*
}

set_num_threads( 4 )
memory 2 gb

molecule MOL {
0 1

H	 3.873555	 0.282712	 0.269286
N	 3.092854	 -0.246221	 -0.068770
C	 1.865559	 0.531981	 0.018834
H	 3.029775	 -1.066881	 0.503391
C	 0.645745	 -0.382037	 -0.029944
H	 1.841966	 1.207024	 -0.831236
H	 1.815756	 1.155410	 0.915079
C	 -0.679275	 0.379305	 0.025956
H	 0.698998	 -0.976915	 -0.937203
H	 0.693479	 -1.083846	 0.802235
C	 -1.903357	 -0.536963	 -0.023547
H	 -0.726309	 1.082987	 -0.803784
H	 -0.717680	 0.977832	 0.934877
C	 -3.225172	 0.228290	 0.028445
H	 -1.867824	 -1.134999	 -0.931459
H	 -1.860449	 -1.239604	 0.805977
H	 -3.313397	 0.915643	 -0.808262
H	 -4.073500	 -0.448134	 -0.008893
H	 -3.306061	 0.809945	 0.942516

	symmetry c1
}
set optking {
	frozen_dihedral = ("
		1 2 3 6
	")
}

ee = optimize('scf')
oeprop('DIPOLE', 'QUADRUPOLE', 'MULLIKEN_CHARGES')
f=open( 'psi4out.xyz', 'w' )
f.write( "19  " )
f.write( str(ee) + "\n" )
f.write( MOL.save_string_xyz() )
f.close()
--------------------------------------------------------------------------

    Molecular point group: c1
  Charge       = 0
  Multiplicity = 1
  Basis Set: 6-31G*
  Basis Set:
  @DF-RHF Final Energy:  -251.35034433256689
    Total Energy =                       -251.3503443325668627
    Molecular point group: c1
  Basis Set: 6-31G*
  Basis Set:
  Basis Set: 6-31G*
  Basis Set:
  @DF-RHF Final Energy:  -251.35046336947750
    Total Energy =                       -251.3504633694773247
  Basis Set: 6-31G*
  Basis Set:
  Basis Set: 6-31G*
  Basis Set:
  @DF-RHF Final Energy:  -251.35048290377196
    Total Energy =                       -251.3504829037721038
  Basis Set: 6-31G*
  Basis Set:
  Basis Set: 6-31G*
  Basis Set:
  @DF-RHF Final Energy:  -251.35048734623075
    Total Energy =                       -251.3504873462308069
  Basis Set: 6-31G*
  Basis Set:
  Basis Set: 6-31G*
  Basis Set:
  @DF-RHF Final Energy:  -251.35048603175969
    Total Energy =                       -251.3504860317596581
  Basis Set: 6-31G*
  Basis Set:
  Basis Set: 6-31G*
  Basis Set:
  @DF-RHF Final Energy:  -251.35048807599210
    Total Energy =                       -251.3504880759924731
  Basis Set: 6-31G*
  Basis Set:
  Charge       = 0
  Multiplicity = 1
  Basis Set: 6-31G*
  Basis Set:

    Orbital Energies (a.u.)
    -----------------------

    Doubly Occupied:

       1A    -15.532276     2A    -11.239543     3A    -11.215511
       4A    -11.214692     5A    -11.213299     6A    -11.208575
       7A     -1.176717     8A     -1.074626     9A     -0.999724
      10A     -0.901004    11A     -0.815083    12A     -0.791827
      13A     -0.657163    14A     -0.647161    15A     -0.616394
      16A     -0.593154    17A     -0.564243    18A     -0.544300
      19A     -0.537507    20A     -0.496566    21A     -0.485235
      22A     -0.466872    23A     -0.463307    24A     -0.448483
      25A     -0.382774

  @DF-RHF Final Energy:  -251.35048813771056

   => Energetics <=

    Nuclear Repulsion Energy =            245.7734840163020067
    One-Electron Energy =                -825.6758702829885124
    Two-Electron Energy =                 328.5518981289758358
    DFT Exchange-Correlation Energy =       0.0000000000000000
    Empirical Dispersion Energy =           0.0000000000000000
    PCM Polarization Energy =               0.0000000000000000
    EFP Energy =                            0.0000000000000000
    Total Energy =                       -251.3504881377107267
    Molecular point group: c1
  Basis Set: 6-31G*
  Basis Set:

  -Total Gradient:
     Atom            X                  Y                   Z
    ------   -----------------  -----------------  -----------------
       1       -0.000432224203    -0.001202311109     0.002969252031
       2        0.000198481518     0.001012631562    -0.004044539637
       3        0.001675725947     0.002172538606     0.002659716266
       4        0.000005256297     0.000013741939    -0.000009308247
       5        0.000001829428     0.000010394516    -0.000010946322
       6       -0.001450635717    -0.002013009183    -0.001572143533
       7       -0.000003404766     0.000005387452     0.000004012443
       8        0.000004193213    -0.000001401520     0.000018992847
       9        0.000010595574     0.000007179465     0.000000409580
      10       -0.000009347760    -0.000003853117    -0.000008317704
      11       -0.000001526134    -0.000002464573     0.000014418567
      12       -0.000012832071    -0.000006538726    -0.000005869014
      13        0.000013760302     0.000007178909    -0.000005570596
      14        0.000000107132     0.000000474444    -0.000019784492
      15       -0.000007684778    -0.000004303316     0.000006099030
      16        0.000007781421     0.000003607979     0.000005809245
      17       -0.000000680743     0.000009404045     0.000003300042
      18        0.000000187862     0.000000492539    -0.000008366651
      19        0.000000417483    -0.000009149916     0.000002836144

  **** Optimization is complete! (in 7 steps) ****
    Final optimized geometry and variables:
    Molecular point group: c1

    Geometry (in Angstrom), charge = 0, multiplicity = 1:

    H            3.884452167805     0.284453535313     0.224235191539
    N            3.095425290473    -0.241578467186    -0.099955430219
    C            1.868100077173     0.534906646630     0.037584153527
    H            3.052000287011    -1.053092690746     0.487968471012
    C            0.647365030636    -0.379352521695    -0.017381098235
    H            1.812731751818     1.226693869989    -0.797614390421
    H            1.835318076817     1.125487968313     0.954816033469
    C           -0.677489840166     0.382981343510     0.026168804979
    H            0.703864505524    -0.974379473928    -0.925175707534
    H            0.686600454069    -1.079976388327     0.816506746081
    C           -1.901561084791    -0.533518240962    -0.019563378603
    H           -0.720361095420     1.078435868984    -0.810211236366
    H           -0.718410683803     0.989616653743     0.929508276048
    C           -3.223064347364     0.233089311587     0.017722036851
    H           -1.861949516176    -1.141014651022    -0.920986311424
    H           -1.863274789212    -1.227278460182     0.817632407375
    H           -3.306284978889     0.912182263175    -0.826134562023
    H           -4.071517195054    -0.443278148473    -0.017579706969
    H           -3.308511747691     0.823631724360     0.925633292699

  Mulliken Charges: (a.u.)
   Center  Symbol    Alpha    Beta     Spin     Total
       1     H     0.33358  0.33358  0.00000  0.33285
       2     N     3.92206  3.92206  0.00000 -0.84411
       3     C     3.05445  3.05445  0.00000 -0.10890
       4     H     0.33616  0.33616  0.00000  0.32768
       5     C     3.16035  3.16035  0.00000 -0.32070
       6     H     0.41990  0.41990  0.00000  0.16021
       7     H     0.43399  0.43399  0.00000  0.13203
       8     C     3.15391  3.15391  0.00000 -0.30782
       9     H     0.41292  0.41292  0.00000  0.17416
      10     H     0.42778  0.42778  0.00000  0.14445
      11     C     3.15118  3.15118  0.00000 -0.30236
      12     H     0.42229  0.42229  0.00000  0.15542
      13     H     0.42427  0.42427  0.00000  0.15147
      14     C     3.23944  3.23944  0.00000 -0.47888
      15     H     0.42178  0.42178  0.00000  0.15645
      16     H     0.42331  0.42331  0.00000  0.15338
      17     H     0.42144  0.42144  0.00000  0.15711
      18     H     0.41915  0.41915  0.00000  0.16170
      19     H     0.42206  0.42206  0.00000  0.15588

   Total alpha = 25.00000, Total beta = 25.00000, Total charge =  0.00000
