                              Psi4 1.0.54 Driver

  ==> Input File <==

--------------------------------------------------------------------------
set {
	reference rhf
	basis cc-pvtz
}

set_num_threads( 4 )
memory 2 gb

molecule MOL {
0 1

O	 -0.694481	 1.313155	 -0.204815
C	 -0.862519	 0.151932	 -0.046791
C	 -2.171428	 -0.477048	 0.339095
O	 0.085519	 -0.757083	 -0.192238
H	 -2.467997	 -1.191667	 -0.417688
H	 -2.923379	 0.287970	 0.444097
H	 -2.053854	 -1.015120	 1.270901
C	 1.392036	 -0.330828	 -0.560749
C	 1.348986	 0.827331	 -1.535794
H	 1.935372	 -1.166515	 -0.973337
H	 1.855289	 -0.034333	 0.368358
H	 2.357925	 1.167080	 -1.740889
H	 0.894420	 0.528955	 -2.470526
H	 0.788376	 1.656245	 -1.120812

	symmetry c1
}
set optking {
	frozen_dihedral = ("
		10 8 4 2
	")
}

ee,wfn = optimize('scf', return_wfn=True)
oeprop( wfn, 'DIPOLE', 'QUADRUPOLE', 'MULLIKEN_CHARGES')
f=open( 'psi4out.xyz', 'w' )
f.write( "14  " )
f.write( str(ee) + "\n" )
f.write( MOL.save_string_xyz() )
f.close()
--------------------------------------------------------------------------

    Molecular point group: c1
  Charge       = 0
  Multiplicity = 1
  Basis Set: CC-PVTZ
  Basis Set:
  @DF-RHF Final Energy:  -305.96602274115236
    Total Energy =                       -305.9660227411524147
    Molecular point group: c1
  Basis Set: CC-PVTZ
  Basis Set:
  Basis Set: CC-PVTZ
  Basis Set:
  @DF-RHF Final Energy:  -305.97542026854666
    Total Energy =                       -305.9754202685464861
  Basis Set: CC-PVTZ
  Basis Set:
  Basis Set: CC-PVTZ
  Basis Set:
  @DF-RHF Final Energy:  -305.98401231002896
    Total Energy =                       -305.9840123100291294
  Basis Set: CC-PVTZ
  Basis Set:
  Basis Set: CC-PVTZ
  Basis Set:
  @DF-RHF Final Energy:  -305.98020878225475
    Total Energy =                       -305.9802087822547492
  Basis Set: CC-PVTZ
  Basis Set:
  @DF-RHF Final Energy:  -305.98471605653521
    Total Energy =                       -305.9847160565348076
  @DF-RHF Final Energy:  -305.98440235573355
    Total Energy =                       -305.9844023557333230
  @DF-RHF Final Energy:  -305.98479630851455
    Total Energy =                       -305.9847963085147740
  @DF-RHF Final Energy:  -305.98480214916265
    Total Energy =                       -305.9848021491625900
  Basis Set: CC-PVTZ
  Basis Set:
  @DF-RHF Final Energy:  -305.98480397908389
    Total Energy =                       -305.9848039790835514
  Basis Set: CC-PVTZ
  Basis Set:
  Basis Set: CC-PVTZ
  Basis Set:
  @DF-RHF Final Energy:  -305.98480548614589
    Total Energy =                       -305.9848054861460014
  Basis Set: CC-PVTZ
  Basis Set:
  Basis Set: CC-PVTZ
  Basis Set:
  @DF-RHF Final Energy:  -305.98480658663516
    Total Energy =                       -305.9848065866352727
  Basis Set: CC-PVTZ
  Basis Set:
  Charge       = 0
  Multiplicity = 1
  Basis Set: CC-PVTZ
  Basis Set:

    Orbital Energies (a.u.)
    -----------------------

    Doubly Occupied:

       1A    -20.592613     2A    -20.531459     3A    -11.367754
       4A    -11.287986     5A    -11.230274     6A    -11.214203
       7A     -1.467177     8A     -1.365519     9A     -1.055516
      10A     -0.998175    11A     -0.890876    12A     -0.753587
      13A     -0.698539    14A     -0.684059    15A     -0.667648
      16A     -0.616503    17A     -0.587743    18A     -0.570809
      19A     -0.550745    20A     -0.532347    21A     -0.513856
      22A     -0.497274    23A     -0.454051    24A     -0.435619

  @DF-RHF Final Energy:  -305.98480678984481

   => Energetics <=

    Nuclear Repulsion Energy =            249.9789410983996731
    One-Electron Energy =                -912.7988364727007138
    Two-Electron Energy =                 356.8350885844562868
    DFT Exchange-Correlation Energy =       0.0000000000000000
    Empirical Dispersion Energy =           0.0000000000000000
    PCM Polarization Energy =               0.0000000000000000
    EFP Energy =                            0.0000000000000000
    Total Energy =                       -305.9848067898447539
    Molecular point group: c1
  Basis Set: CC-PVTZ
  Basis Set:

  -Total Gradient:
     Atom            X                  Y                   Z
    ------   -----------------  -----------------  -----------------
       1       -0.000003207734    -0.000046291982     0.000017327077
       2       -0.002073020144    -0.003023543534    -0.004802917027
       3        0.000020864478    -0.000010894336    -0.000020041920
       4        0.002585564671     0.004392706263     0.006316171792
       5        0.000004905897     0.000007911166     0.000014936665
       6        0.000008459565    -0.000001228570    -0.000003684444
       7       -0.000004956233     0.000000442281    -0.000006401371
       8        0.002492756899     0.000134242757     0.003873505174
       9        0.000071913370    -0.000029107673    -0.000036008954
      10       -0.003185277109    -0.001374934873    -0.005353466698
      11        0.000068211894    -0.000063235060    -0.000008584463
      12       -0.000006799978     0.000005487775     0.000003694976
      13        0.000024649533     0.000005317042    -0.000000701033
      14       -0.000004065108     0.000003128747     0.000006170227

  **** Optimization is complete! (in 12 steps) ****
    Final optimized geometry and variables:
    Molecular point group: c1

    Geometry (in Angstrom), charge = 0, multiplicity = 1:

    O           -0.900098608793     1.104090836175     0.102867937588
    C           -0.683794806290     0.006571959507     0.488605079632
    C           -1.700508494129    -0.869498168826     1.166702569744
    O            0.484920417943    -0.601936298597     0.405582974331
    H           -1.872459052980    -1.753522440907     0.565752698246
    H           -2.621343303859    -0.323613469169     1.292568505316
    H           -1.321736027479    -1.194044210723     2.126817562550
    C            1.567821948235    -0.091428600626    -0.368726050619
    C            1.210382882374     0.444008297776    -1.745602207124
    H            2.193084749009    -0.959118517675    -0.514557313464
    H            2.096301002431     0.648129886009     0.216744726468
    H            2.134994568929     0.575843042582    -2.297255035015
    H            0.601533082313    -0.271111944708    -2.287127217638
    H            0.688686119597     1.384489228393    -1.706949126235

  Mulliken Charges: (a.u.)
   Center  Symbol    Alpha    Beta     Spin     Total
       1     O     4.19890  4.19890  0.00000 -0.39779
       2     C     2.80110  2.80110  0.00000  0.39780
       3     C     3.13841  3.13841  0.00000 -0.27682
       4     O     4.15618  4.15618  0.00000 -0.31235
       5     H     0.44732  0.44732  0.00000  0.10536
       6     H     0.43862  0.43862  0.00000  0.12277
       7     H     0.44452  0.44452  0.00000  0.11096
       8     C     2.97909  2.97909  0.00000  0.04182
       9     C     3.15689  3.15689  0.00000 -0.31379
      10     H     0.44804  0.44804  0.00000  0.10393
      11     H     0.45441  0.45441  0.00000  0.09119
      12     H     0.45063  0.45063  0.00000  0.09873
      13     H     0.45351  0.45351  0.00000  0.09298
      14     H     0.43238  0.43238  0.00000  0.13523

   Total alpha = 24.00000, Total beta = 24.00000, Total charge =  0.00000

*** Psi4 exiting successfully. Buy a developer a beer!
