  ==> Input File <==

--------------------------------------------------------------------------
set {
	reference rhf
	basis 6-31G*
}

set_num_threads( 4 )
memory 2 gb

molecule MOL {
0 1

H	 -1.340278	 -0.489544	 0.668612
N	 -0.626943	 -0.667432	 -0.000092
C	 -0.814170	 -1.762598	 -0.924361
C	 0.469286	 0.129090	 0.000148
H	 -0.912924	 -2.704679	 -0.395460
H	 0.048920	 -1.811469	 -1.568113
H	 -1.699308	 -1.610779	 -1.533059
C	 1.788933	 -0.616240	 -0.000037
O	 0.411098	 1.327768	 -0.000049
H	 1.872803	 -1.245775	 -0.880381
H	 2.595421	 0.101576	 0.003713
H	 1.870096	 -1.252171	 0.875943

	symmetry c1
}
set optking {
	frozen_dihedral = ("
		3 2 4 9
	")
}

ee = optimize('scf')
oeprop('DIPOLE', 'QUADRUPOLE', 'MULLIKEN_CHARGES')
f=open( 'psi4out.xyz', 'w' )
f.write( "12  " )
f.write( str(ee) + "\n" )
f.write( MOL.save_string_xyz() )
f.close()
--------------------------------------------------------------------------

    Molecular point group: c1
  Charge       = 0
  Multiplicity = 1
  Basis Set: 6-31G*
  Basis Set:
  @DF-RHF Final Energy:  -246.97815574363023
    Total Energy =                       -246.9781557436303956
    Molecular point group: c1
  Basis Set: 6-31G*
  Basis Set:
  Basis Set: 6-31G*
  Basis Set:
  @DF-RHF Final Energy:  -246.98551277949065
    Total Energy =                       -246.9855127794907617
  Basis Set: 6-31G*
  Basis Set:
  Basis Set: 6-31G*
  Basis Set:
  @DF-RHF Final Energy:  -246.99220440227182
    Total Energy =                       -246.9922044022717955
  Basis Set: 6-31G*
  Basis Set:
  Basis Set: 6-31G*
  Basis Set:
  @DF-RHF Final Energy:  -246.99294629233103
    Total Energy =                       -246.9929462923309416
  Basis Set: 6-31G*
  Basis Set:
  @DF-RHF Final Energy:  -246.99484097239471
    Total Energy =                       -246.9948409723947975
  @DF-RHF Final Energy:  -246.99575005028981
    Total Energy =                       -246.9957500502899279
  @DF-RHF Final Energy:  -246.99700648352373
    Total Energy =                       -246.9970064835236485
  Basis Set: 6-31G*
  Basis Set:
  @DF-RHF Final Energy:  -246.99711439547443
    Total Energy =                       -246.9971143954745685
  Basis Set: 6-31G*
  Basis Set:
  Basis Set: 6-31G*
  Basis Set:
  @DF-RHF Final Energy:  -246.99713968843389
    Total Energy =                       -246.9971396884338901
  Basis Set: 6-31G*
  Basis Set:
  Basis Set: 6-31G*
  Basis Set:
  @DF-RHF Final Energy:  -246.99714283572266
    Total Energy =                       -246.9971428357225705
  Basis Set: 6-31G*
  Basis Set:
  Charge       = 0
  Multiplicity = 1
  Basis Set: 6-31G*
  Basis Set:

    Orbital Energies (a.u.)
    -----------------------

    Doubly Occupied:

       1A    -20.532243     2A    -15.574703     3A    -11.347406
       4A    -11.268806     5A    -11.230600     6A     -1.396820
       7A     -1.226726     8A     -1.007329     9A     -0.948977
      10A     -0.773613    11A     -0.675837    12A     -0.664893
      13A     -0.635609    14A     -0.595644    15A     -0.577507
      16A     -0.564229    17A     -0.551054    18A     -0.508730
      19A     -0.425701    20A     -0.392908

  @DF-RHF Final Energy:  -246.99714330412522

   => Energetics <=

    Nuclear Repulsion Energy =            181.2874408659834273
    One-Electron Energy =                -694.7705006876321931
    Two-Electron Energy =                 266.4859165175236058
    DFT Exchange-Correlation Energy =       0.0000000000000000
    Empirical Dispersion Energy =           0.0000000000000000
    PCM Polarization Energy =               0.0000000000000000
    EFP Energy =                            0.0000000000000000
    Total Energy =                       -246.9971433041251885
    Molecular point group: c1
  Basis Set: 6-31G*
  Basis Set:

  -Total Gradient:
     Atom            X                  Y                   Z
    ------   -----------------  -----------------  -----------------
       1        0.000013694468     0.000026823383    -0.000025885062
       2        0.004790783387    -0.005607083363     0.001258407718
       3       -0.003525888918     0.003808676207    -0.002856141644
       4       -0.000092824187     0.001249447805     0.009001158039
       5       -0.000003607772    -0.000007899778     0.000001195041
       6        0.000010598989     0.000003329686    -0.000013209234
       7        0.000000857904     0.000001570046    -0.000046638434
       8       -0.000017856112    -0.000018299264    -0.000060530840
       9       -0.001200806740     0.000506230541    -0.007266351412
      10       -0.000002489822     0.000033441780     0.000014724582
      11        0.000013763655     0.000011720548    -0.000006936907
      12        0.000013775147    -0.000007957598     0.000000208151

  **** Optimization is complete! (in 11 steps) ****
    Final optimized geometry and variables:
    Molecular point group: c1

    Geometry (in Angstrom), charge = 0, multiplicity = 1:

    H           -1.652697090027     0.053795683699     0.506725479173
    N           -0.810869865456    -0.453708825410     0.320250604689
    C           -1.012272853548    -1.473631350715    -0.697978793855
    C            0.226491993648     0.452993558604     0.210705636299
    H           -1.870401300589    -2.070227114640    -0.419516674823
    H           -0.157248624962    -2.134758827101    -0.748259706519
    H           -1.187343134046    -1.056394321949    -1.687029971971
    C            1.594159797035    -0.120536512155    -0.085515126658
    O            0.045067498292     1.629098389793     0.329381960961
    H            1.686886741897    -0.326053613669    -1.147906120961
    H            2.339498303708     0.613610092530     0.184089316237
    H            1.767331618157    -1.043189273231     0.454784828779

  Mulliken Charges: (a.u.)
   Center  Symbol    Alpha    Beta     Spin     Total
       1     H     0.31453  0.31453  0.00000  0.37094
       2     N     3.86873  3.86873  0.00000 -0.73747
       3     C     3.15502  3.15502  0.00000 -0.31005
       4     C     2.65136  2.65136  0.00000  0.69728
       5     H     0.40581  0.40581  0.00000  0.18838
       6     H     0.40913  0.40913  0.00000  0.18174
       7     H     0.41642  0.41642  0.00000  0.16716
       8     C     3.29459  3.29459  0.00000 -0.58918
       9     O     4.28259  4.28259  0.00000 -0.56518
      10     H     0.40469  0.40469  0.00000  0.19061
      11     H     0.39249  0.39249  0.00000  0.21503
      12     H     0.40463  0.40463  0.00000  0.19074

   Total alpha = 20.00000, Total beta = 20.00000, Total charge =  0.00000
