  ==> Input File <==

--------------------------------------------------------------------------
set {
	reference rhf
	basis 6-31G*
}

set_num_threads( 4 )
memory 2 gb

molecule MOL {
0 1

O	 2.555824	 1.832000	 0.446851
C	 1.870023	 1.672225	 1.409611
C	 0.599778	 0.841657	 1.369971
C	 2.226733	 2.293755	 2.744382
C	 0.291004	 0.242674	 0.000989
H	 0.690314	 0.058332	 2.121366
H	 -0.221376	 1.472183	 1.708417
C	 -0.994322	 -0.586602	 0.000262
H	 1.127534	 -0.372548	 -0.314999
H	 0.214577	 1.042852	 -0.728409
C	 -2.259874	 0.272531	 0.000494
H	 -1.004862	 -1.240012	 -0.870939
H	 -1.005220	 -1.241071	 0.870675
C	 -3.549786	 -0.549746	 -0.000374
H	 -2.250389	 0.926680	 -0.869574
H	 -2.250838	 0.925513	 0.871430
C	 -4.809590	 0.315458	 -0.000369
H	 -3.560515	 -1.202009	 -0.871156
H	 -3.561123	 -1.202955	 0.869711
H	 -4.844746	 0.956611	 -0.876632
H	 -5.706986	 -0.295590	 -0.001609
H	 -4.845960	 0.954827	 0.877144
H	 2.348408	 1.523722	 3.500599
H	 3.145226	 2.856330	 2.651028
H	 1.430944	 2.952208	 3.080229

	symmetry c1
}
set optking {
	frozen_dihedral = ("
		9 5 8 12
	")
}

ee = optimize('scf')
oeprop('DIPOLE', 'QUADRUPOLE', 'MULLIKEN_CHARGES')
f=open( 'psi4out.xyz', 'w' )
f.write( "25  " )
f.write( str(ee) + "\n" )
f.write( MOL.save_string_xyz() )
f.close()
--------------------------------------------------------------------------

    Molecular point group: c1
  Charge       = 0
  Multiplicity = 1
  Basis Set: 6-31G*
  Basis Set:
  @DF-RHF Final Energy:  -387.13427871821966
    Total Energy =                       -387.1342787182192069
    Molecular point group: c1
  Basis Set: 6-31G*
  Basis Set:
  Basis Set: 6-31G*
  Basis Set:
  @DF-RHF Final Energy:  -387.13453263927886
    Total Energy =                       -387.1345326392792003
  Basis Set: 6-31G*
  Basis Set:
  Basis Set: 6-31G*
  Basis Set:
  @DF-RHF Final Energy:  -387.13432463688167
    Total Energy =                       -387.1343246368815016
  Basis Set: 6-31G*
  Basis Set:
  Basis Set: 6-31G*
  Basis Set:
  @DF-RHF Final Energy:  -387.13458388634075
    Total Energy =                       -387.1345838863404651
  Basis Set: 6-31G*
  Basis Set:
  Basis Set: 6-31G*
  Basis Set:
  @DF-RHF Final Energy:  -387.13458160803066
    Total Energy =                       -387.1345816080305440
  Basis Set: 6-31G*
  Basis Set:
  Basis Set: 6-31G*
  Basis Set:
  @DF-RHF Final Energy:  -387.13458810529858
    Total Energy =                       -387.1345881052986897
  Basis Set: 6-31G*
  Basis Set:
  Charge       = 0
  Multiplicity = 1
  Basis Set: 6-31G*
  Basis Set:

    Orbital Energies (a.u.)
    -----------------------

    Doubly Occupied:

       1A    -20.550423     2A    -11.326302     3A    -11.231608
       4A    -11.228343     5A    -11.217223     6A    -11.217085
       7A    -11.216612     8A    -11.215916     9A    -11.210289
      10A     -1.395750    11A     -1.094224    12A     -1.055950
      13A     -1.014503    14A     -0.968384    15A     -0.896480
      16A     -0.815735    17A     -0.788646    18A     -0.731791
      19A     -0.658555    20A     -0.646506    21A     -0.639817
      22A     -0.621059    23A     -0.597809    24A     -0.577503
      25A     -0.570010    26A     -0.566407    27A     -0.542092
      28A     -0.527491    29A     -0.516905    30A     -0.492735
      31A     -0.486246    32A     -0.477879    33A     -0.463586
      34A     -0.459335    35A     -0.446511    36A     -0.400647

  @DF-RHF Final Energy:  -387.13458821346131

   => Energetics <=

    Nuclear Repulsion Energy =            443.8407371644422597
    One-Electron Energy =               -1404.2179359268607186
    Two-Electron Energy =                 573.2426105489566908
    DFT Exchange-Correlation Energy =       0.0000000000000000
    Empirical Dispersion Energy =           0.0000000000000000
    PCM Polarization Energy =               0.0000000000000000
    EFP Energy =                            0.0000000000000000
    Total Energy =                       -387.1345882134617113
    Molecular point group: c1
  Basis Set: 6-31G*
  Basis Set:

  -Total Gradient:
     Atom            X                  Y                   Z
    ------   -----------------  -----------------  -----------------
       1       -0.000005259546     0.000000747197     0.000001954323
       2        0.000008173704    -0.000006829250     0.000004018071
       3        0.000003722600    -0.000007328422    -0.000012970078
       4       -0.000000826326     0.000010019511    -0.000001825233
       5        0.000504871160    -0.000846686071     0.002238249017
       6       -0.000000888889     0.000002620566     0.000000825946
       7       -0.000005915684     0.000002376538    -0.000006775806
       8       -0.001003368005     0.001626466151    -0.001505614059
       9       -0.000269116290     0.000456608932    -0.001623369941
      10        0.000002708134     0.000002095647    -0.000005714248
      11        0.000013506194    -0.000010902415    -0.000010159546
      12        0.000764443251    -0.001223438148     0.000891781128
      13       -0.000005555894    -0.000006630316     0.000000969163
      14        0.000000060229    -0.000000547402     0.000024390225
      15       -0.000010573575     0.000004483065     0.000000216560
      16        0.000007690417    -0.000005447086     0.000005547158
      17       -0.000006911358    -0.000001549640    -0.000015380281
      18        0.000002591514     0.000002564948     0.000007813758
      19        0.000001561736     0.000003043355     0.000005916061
      20        0.000000380911     0.000005710189     0.000001520475
      21       -0.000002813139     0.000001546509    -0.000005792832
      22        0.000000311676    -0.000006643370     0.000001652518
      23        0.000000490601    -0.000002285508    -0.000001568149
      24        0.000000265136     0.000000504372     0.000000593961
      25        0.000000451433    -0.000000499352     0.000003721808

  **** Optimization is complete! (in 7 steps) ****
    Final optimized geometry and variables:
    Molecular point group: c1

    Geometry (in Angstrom), charge = 0, multiplicity = 1:

    O            3.052673528708     1.074196181949    -0.224620091131
    C            2.366426841132     0.950928484893     0.743154897385
    C            1.067508038631     0.164822340244     0.721417514177
    C            2.751580304844     1.577171755529     2.067896177229
    C            0.739291075305    -0.446657456991    -0.638395916731
    H            1.136270749673    -0.611220903450     1.482777476949
    H            0.275301571379     0.830423955947     1.057837841112
    C           -0.558842005461    -1.263945332633    -0.651765993210
    H            1.566305489744    -1.074373242814    -0.951816775497
    H            0.680729821607     0.344801414443    -1.379486222168
    C           -1.839984719085    -0.426414247881    -0.651677573148
    H           -0.554324194886    -1.905915135485    -1.529505233165
    H           -0.570365375257    -1.939258851869     0.203135051436
    C           -3.111598116289    -1.276192222109    -0.693200204970
    H           -1.828129132958     0.243551078097    -1.509707601794
    H           -1.870778273693     0.210003237575     0.230579267826
    C           -4.390239039190    -0.439181332154    -0.704407778679
    H           -3.089459523610    -1.912566267880    -1.575199708262
    H           -3.125871372434    -1.945190770765     0.164717658011
    H           -4.421433545760     0.217363096810    -1.569331500316
    H           -5.273278774361    -1.069872471666    -0.736286459877
    H           -4.460202612594     0.182528561050     0.183872505961
    H            2.849049659464     0.813601306228     2.834098194849
    H            3.689298301290     2.104867638826     1.962853927517
    H            1.981769910954     2.268571394891     2.398075993816

  Mulliken Charges: (a.u.)
   Center  Symbol    Alpha    Beta     Spin     Total
       1     O     4.26107  4.26107  0.00000 -0.52213
       2     C     2.73574  2.73574  0.00000  0.52852
       3     C     3.21117  3.21117  0.00000 -0.42234
       4     C     3.28661  3.28661  0.00000 -0.57322
       5     C     3.15059  3.15059  0.00000 -0.30118
       6     H     0.41021  0.41021  0.00000  0.17957
       7     H     0.40875  0.40875  0.00000  0.18250
       8     C     3.15705  3.15705  0.00000 -0.31410
       9     H     0.40984  0.40984  0.00000  0.18033
      10     H     0.41243  0.41243  0.00000  0.17514
      11     C     3.15213  3.15213  0.00000 -0.30426
      12     H     0.41839  0.41839  0.00000  0.16321
      13     H     0.42557  0.42557  0.00000  0.14886
      14     C     3.15125  3.15125  0.00000 -0.30251
      15     H     0.42204  0.42204  0.00000  0.15591
      16     H     0.42577  0.42577  0.00000  0.14847
      17     C     3.23927  3.23927  0.00000 -0.47854
      18     H     0.42211  0.42211  0.00000  0.15578
      19     H     0.42338  0.42338  0.00000  0.15325
      20     H     0.42115  0.42115  0.00000  0.15770
      21     H     0.41896  0.41896  0.00000  0.16208
      22     H     0.42254  0.42254  0.00000  0.15492
      23     H     0.40877  0.40877  0.00000  0.18247
      24     H     0.39646  0.39646  0.00000  0.20707
      25     H     0.40875  0.40875  0.00000  0.18250

   Total alpha = 36.00000, Total beta = 36.00000, Total charge = -0.00000
