                              Psi4 1.0.54 Driver

  ==> Input File <==

--------------------------------------------------------------------------
set {
	reference rhf
	basis cc-pvtz
}

set_num_threads( 4 )
memory 2 gb

molecule MOL {
0 1

H	 -1.835082	 1.385983	 0.000069
C	 -1.300516	 0.441153	 -0.000028
O	 -0.006604	 0.654344	 -0.000106
O	 -1.828920	 -0.612308	 0.000113
C	 0.682693	 0.546065	 1.242056
C	 2.143046	 0.832898	 0.985544
H	 0.534853	 -0.448603	 1.637955
H	 0.254575	 1.249881	 1.941572
H	 2.557309	 0.123210	 0.280775
H	 2.697328	 0.758496	 1.913493
H	 2.275624	 1.830229	 0.585890

	symmetry c1
}
set optking {
	frozen_dihedral = ("
		5 3 2 4
	")
}

ee,wfn = optimize('scf', return_wfn=True)
oeprop( wfn, 'DIPOLE', 'QUADRUPOLE', 'MULLIKEN_CHARGES')
f=open( 'psi4out.xyz', 'w' )
f.write( "11  " )
f.write( str(ee) + "\n" )
f.write( MOL.save_string_xyz() )
f.close()
--------------------------------------------------------------------------

    Molecular point group: c1
  Charge       = 0
  Multiplicity = 1
  Basis Set: CC-PVTZ
  Basis Set:
  @DF-RHF Final Energy:  -266.91260638495771
    Total Energy =                       -266.9126063849576553
    Molecular point group: c1
  Basis Set: CC-PVTZ
  Basis Set:
  Basis Set: CC-PVTZ
  Basis Set:
  @DF-RHF Final Energy:  -266.91087479667522
    Total Energy =                       -266.9108747966751594
  Basis Set: CC-PVTZ
  Basis Set:
  Basis Set: CC-PVTZ
  Basis Set:
  @DF-RHF Final Energy:  -266.91283127124302
    Total Energy =                       -266.9128312712432489
  Basis Set: CC-PVTZ
  Basis Set:
  Basis Set: CC-PVTZ
  Basis Set:
  @DF-RHF Final Energy:  -266.91381927076952
    Total Energy =                       -266.9138192707692951
  Basis Set: CC-PVTZ
  Basis Set:
  Basis Set: CC-PVTZ
  Basis Set:
  @DF-RHF Final Energy:  -266.91383868673262
    Total Energy =                       -266.9138386867326744
  Basis Set: CC-PVTZ
  Basis Set:
  Basis Set: CC-PVTZ
  Basis Set:
  @DF-RHF Final Energy:  -266.91384121143437
    Total Energy =                       -266.9138412114343737
  Basis Set: CC-PVTZ
  Basis Set:
  Charge       = 0
  Multiplicity = 1
  Basis Set: CC-PVTZ
  Basis Set:

    Orbital Energies (a.u.)
    -----------------------

    Doubly Occupied:

       1A    -20.585517     2A    -20.559875     3A    -11.373571
       4A    -11.298364     5A    -11.226313     6A     -1.469947
       7A     -1.381010     8A     -1.049766     9A     -0.890429
      10A     -0.824116    11A     -0.743281    12A     -0.692515
      13A     -0.652345    14A     -0.638385    15A     -0.563865
      16A     -0.542646    17A     -0.535345    18A     -0.508034
      19A     -0.467211    20A     -0.455547

  @DF-RHF Final Energy:  -266.91384129892486

   => Energetics <=

    Nuclear Repulsion Energy =            177.6080507659274303
    One-Electron Energy =                -716.1276235950684850
    Two-Electron Energy =                 271.6057315302160191
    DFT Exchange-Correlation Energy =       0.0000000000000000
    Empirical Dispersion Energy =           0.0000000000000000
    PCM Polarization Energy =               0.0000000000000000
    EFP Energy =                            0.0000000000000000
    Total Energy =                       -266.9138412989249787
    Molecular point group: c1
  Basis Set: CC-PVTZ
  Basis Set:

  -Total Gradient:
     Atom            X                  Y                   Z
    ------   -----------------  -----------------  -----------------
       1        0.000017082729    -0.000065147209    -0.000002372905
       2       -0.000363578431     0.001269480971     0.005820249286
       3        0.000675424658    -0.004107216864    -0.002601260377
       4        0.000090273334     0.000172534240    -0.003719352655
       5       -0.000439016033     0.002723138064     0.000515457433
       6        0.000018238447    -0.000005157723     0.000004856476
       7        0.000023845303    -0.000004514449     0.000001893641
       8       -0.000011198033     0.000002456002    -0.000025550889
       9       -0.000008236150     0.000003940307     0.000006240045
      10       -0.000002473463     0.000009588692    -0.000000495979
      11       -0.000000362360     0.000000897970     0.000000335925

  **** Optimization is complete! (in 7 steps) ****
    Final optimized geometry and variables:
    Molecular point group: c1

    Geometry (in Angstrom), charge = 0, multiplicity = 1:

    H           -1.828184231494     1.018710723422    -0.494806772632
    C           -1.257296500485     0.093045903809    -0.448232484957
    O            0.062370809733     0.300766892651    -0.451353385285
    O           -1.762498546939    -0.964191235265    -0.455561853543
    C            0.739772421605     0.172971731258     0.793327736791
    C            2.211670039615     0.408214913139     0.554422145334
    H            0.560768623142    -0.817307241140     1.191803477465
    H            0.341205926364     0.902528008650     1.491107413199
    H            2.603160442755    -0.321573369877    -0.141975113848
    H            2.753531556448     0.321490031579     1.488781140251
    H            2.379872904909     1.397206155378     0.148093281847

  Mulliken Charges: (a.u.)
   Center  Symbol    Alpha    Beta     Spin     Total
       1     H     0.46262  0.46262  0.00000  0.07477
       2     C     2.83789  2.83789  0.00000  0.32422
       3     O     4.16110  4.16110  0.00000 -0.32221
       4     O     4.16611  4.16611  0.00000 -0.33221
       5     C     2.96762  2.96762  0.00000  0.06476
       6     C     3.13433  3.13433  0.00000 -0.26866
       7     H     0.45295  0.45295  0.00000  0.09410
       8     H     0.46528  0.46528  0.00000  0.06944
       9     H     0.44640  0.44640  0.00000  0.10719
      10     H     0.45592  0.45592  0.00000  0.08817
      11     H     0.44978  0.44978  0.00000  0.10044

   Total alpha = 20.00000, Total beta = 20.00000, Total charge =  0.00000

*** Psi4 exiting successfully. Buy a developer a beer!
