                              Psi4 1.0.54 Driver

  ==> Input File <==

--------------------------------------------------------------------------
set {
	reference rhf
	basis cc-pvtz
}

set_num_threads( 4 )
memory 2 gb

molecule MOL {
0 1

O	 1.745760	 1.471228	 0.401982
C	 1.408714	 0.632121	 1.165749
C	 0.092498	 -0.101580	 1.135773
O	 2.165403	 0.220555	 2.169965
C	 -0.824290	 0.329213	 -0.000115
H	 0.317402	 -1.161594	 1.078887
H	 -0.380311	 0.048253	 2.100887
C	 -2.146151	 -0.432825	 -0.000068
H	 -0.314744	 0.182621	 -0.945709
H	 -1.013059	 1.393947	 0.077336
C	 -3.366283	 0.483552	 0.000557
H	 -2.189286	 -1.084450	 -0.869996
H	 -2.188867	 -1.085083	 0.869399
C	 -4.687436	 -0.278003	 0.000108
H	 -3.325150	 1.134819	 -0.867957
H	 -3.325087	 1.133730	 0.869885
H	 -4.773783	 -0.912098	 -0.876078
H	 -5.531922	 0.401392	 0.000363
H	 -4.773901	 -0.912898	 0.875703
C	 3.433477	 0.826725	 2.317851
H	 4.040554	 0.659795	 1.440467
H	 3.887011	 0.361931	 3.178154
H	 3.331527	 1.889708	 2.478750

	symmetry c1
}
set optking {
	frozen_dihedral = ("
		9 5 8 12
	")
}

ee,wfn = optimize('scf', return_wfn=True)
oeprop( wfn, 'DIPOLE', 'QUADRUPOLE', 'MULLIKEN_CHARGES')
f=open( 'psi4out.xyz', 'w' )
f.write( "23  " )
f.write( str(ee) + "\n" )
f.write( MOL.save_string_xyz() )
f.close()
--------------------------------------------------------------------------

    Molecular point group: c1
  Charge       = 0
  Multiplicity = 1
  Basis Set: CC-PVTZ
  Basis Set:
  @DF-RHF Final Energy:  -423.12541727308940
    Total Energy =                       -423.1254172730892833
    Molecular point group: c1
  Basis Set: CC-PVTZ
  Basis Set:
  Basis Set: CC-PVTZ
  Basis Set:
  @DF-RHF Final Energy:  -423.12565331938254
    Total Energy =                       -423.1256533193826499
  Basis Set: CC-PVTZ
  Basis Set:
  Basis Set: CC-PVTZ
  Basis Set:
  @DF-RHF Final Energy:  -423.12568596637374
    Total Energy =                       -423.1256859663734531
  Basis Set: CC-PVTZ
  Basis Set:
  Basis Set: CC-PVTZ
  Basis Set:
  @DF-RHF Final Energy:  -423.12571884310921
    Total Energy =                       -423.1257188431085297
  Basis Set: CC-PVTZ
  Basis Set:
  Basis Set: CC-PVTZ
  Basis Set:
  @DF-RHF Final Energy:  -423.12572136311979
    Total Energy =                       -423.1257213631192826
  Basis Set: CC-PVTZ
  Basis Set:
  Charge       = 0
  Multiplicity = 1
  Basis Set: CC-PVTZ
  Basis Set:

    Orbital Energies (a.u.)
    -----------------------

    Doubly Occupied:

       1A    -20.596223     2A    -20.534137     3A    -11.364292
       4A    -11.278433     5A    -11.234118     6A    -11.216985
       7A    -11.215782     8A    -11.215177     9A    -11.207871
      10A     -1.472096    11A     -1.365698    12A     -1.092566
      13A     -1.044623    14A     -0.987237    15A     -0.932114
      16A     -0.845647    17A     -0.795739    18A     -0.769348
      19A     -0.701668    20A     -0.685710    21A     -0.676033
      22A     -0.641861    23A     -0.617781    24A     -0.600303
      25A     -0.573274    26A     -0.560488    27A     -0.555975
      28A     -0.529057    29A     -0.522887    30A     -0.501681
      31A     -0.491932    32A     -0.470774    33A     -0.465081
      34A     -0.462328    35A     -0.454350    36A     -0.437917

  @DF-RHF Final Energy:  -423.12572170252332

   => Energetics <=

    Nuclear Repulsion Energy =            453.7208940291478143
    One-Electron Energy =               -1475.4588581423072355
    Two-Electron Energy =                 598.6122424106359858
    DFT Exchange-Correlation Energy =       0.0000000000000000
    Empirical Dispersion Energy =           0.0000000000000000
    PCM Polarization Energy =               0.0000000000000000
    EFP Energy =                            0.0000000000000000
    Total Energy =                       -423.1257217025234922
    Molecular point group: c1
  Basis Set: CC-PVTZ
  Basis Set:

  -Total Gradient:
     Atom            X                  Y                   Z
    ------   -----------------  -----------------  -----------------
       1       -0.000016683413     0.000004218741    -0.000003237154
       2        0.000029117849    -0.000005669957    -0.000007489210
       3       -0.000022547147     0.000041058000    -0.000021503471
       4        0.000003450344     0.000001074991     0.000023575688
       5       -0.001125717451     0.001887688607    -0.000899224173
       6       -0.000006630843    -0.000010518674    -0.000010486401
       7        0.000004739386     0.000005671178    -0.000022797209
       8        0.001045475925    -0.001737081793     0.001219980532
       9        0.000764000929    -0.001331274356     0.000606549601
      10        0.000009957259     0.000016181974     0.000013075700
      11        0.000037877755    -0.000029935871    -0.000033892081
      12       -0.000697535196     0.001199541871    -0.000891835498
      13       -0.000006598781    -0.000021657763     0.000015631757
      14       -0.000020231143     0.000006470354     0.000025572669
      15        0.000002372760    -0.000012596926    -0.000009071929
      16        0.000017286671    -0.000006732713    -0.000006581869
      17        0.000005208724     0.000006571708    -0.000003724963
      18       -0.000016432412    -0.000004191492     0.000006873030
      19       -0.000003478307    -0.000005513989     0.000001443343
      20        0.000000528337     0.000000471979    -0.000003106875
      21        0.000000515639     0.000001577053     0.000001515157
      22       -0.000003553189    -0.000001630974    -0.000000211411
      23       -0.000001123695    -0.000003721947    -0.000001055233

  **** Optimization is complete! (in 6 steps) ****
    Final optimized geometry and variables:
    Molecular point group: c1

    Geometry (in Angstrom), charge = 0, multiplicity = 1:

    O            1.957566643529     1.115756799580    -0.407820974642
    C            1.623924881956     0.274820017385     0.355571162058
    C            0.305632125961    -0.455578541890     0.332350738999
    O            2.386521544871    -0.141216950195     1.353589117297
    C           -0.618989522694    -0.020437524631    -0.797713007494
    H            0.526792978323    -1.516180524224     0.271880707674
    H           -0.161312312006    -0.306205514137     1.300461121472
    C           -1.954657463468    -0.790427231714    -0.800763988823
    H           -0.100332503519    -0.163225837741    -1.736790647743
    H           -0.798775690321     1.043788437370    -0.711768996579
    C           -3.179156427090     0.122671212931    -0.825338166565
    H           -1.997986501197    -1.443301142054    -1.666696087052
    H           -2.018996119071    -1.436471659936     0.070093830117
    C           -4.497669566461    -0.642193386597    -0.846859945403
    H           -3.122667466878     0.771139144388    -1.695152916570
    H           -3.154311444025     0.776689365587     0.042326399058
    H           -4.567298640770    -1.277423625612    -1.723697098432
    H           -5.344224684753     0.034559974199    -0.861375478813
    H           -4.596837460174    -1.276868279376     0.027700842303
    C            3.656527312228     0.462242470154     1.495049812697
    H            4.257678395319     0.297015459833     0.613254199201
    H            4.114905993260    -0.005982411802     2.350936809615
    H            3.557610162434     1.524920138226     1.659898542115

  Mulliken Charges: (a.u.)
   Center  Symbol    Alpha    Beta     Spin     Total
       1     O     4.19681  4.19681  0.00000 -0.39361
       2     C     2.80926  2.80926  0.00000  0.38149
       3     C     3.09899  3.09899  0.00000 -0.19798
       4     O     4.14696  4.14696  0.00000 -0.29392
       5     C     3.09115  3.09115  0.00000 -0.18230
       6     H     0.43843  0.43843  0.00000  0.12313
       7     H     0.43970  0.43970  0.00000  0.12059
       8     C     3.09442  3.09442  0.00000 -0.18883
       9     H     0.44236  0.44236  0.00000  0.11528
      10     H     0.44584  0.44584  0.00000  0.10833
      11     C     3.08319  3.08319  0.00000 -0.16637
      12     H     0.44971  0.44971  0.00000  0.10057
      13     H     0.45623  0.45623  0.00000  0.08754
      14     C     3.15058  3.15058  0.00000 -0.30117
      15     H     0.45148  0.45148  0.00000  0.09703
      16     H     0.45479  0.45479  0.00000  0.09043
      17     H     0.45486  0.45486  0.00000  0.09028
      18     H     0.44800  0.44800  0.00000  0.10400
      19     H     0.45545  0.45545  0.00000  0.08909
      20     C     3.03782  3.03782  0.00000 -0.07563
      21     H     0.45434  0.45434  0.00000  0.09132
      22     H     0.44530  0.44530  0.00000  0.10940
      23     H     0.45434  0.45434  0.00000  0.09132

   Total alpha = 36.00000, Total beta = 36.00000, Total charge = -0.00000

*** Psi4 exiting successfully. Buy a developer a beer!
