                              Psi4 1.0.54 Driver

  ==> Input File <==

--------------------------------------------------------------------------
set {
	reference rhf
	basis cc-pvtz
}

set_num_threads( 4 )
memory 2 gb

molecule MOL {
0 1

H	 -3.294565	 0.569785	 0.000000
C	 -2.246225	 0.343737	 0.000000
C	 -1.809462	 -0.973484	 0.000000
C	 -1.312577	 1.353775	 0.000000
H	 -2.523539	 -1.775124	 0.000000
C	 -0.467257	 -1.267606	 0.000000
H	 -1.631287	 2.379013	 0.000000
C	 0.046966	 1.074396	 0.000000
H	 -0.119372	 -2.281828	 0.000000
C	 0.471772	 -0.241514	 0.000000
H	 0.748162	 1.882966	 0.000000
O	 1.760432	 -0.625184	 0.000000
C	 2.650306	 -0.079118	 0.926335
H	 2.738459	 0.995068	 0.807760
H	 3.608895	 -0.534060	 0.732682
H	 2.351926	 -0.303209	 1.944402

	symmetry c1
}
set optking {
	frozen_dihedral = ("
		13 12 10 8
	")
}

ee,wfn = optimize('scf', return_wfn=True)
oeprop( wfn, 'DIPOLE', 'QUADRUPOLE', 'MULLIKEN_CHARGES')
f=open( 'psi4out.xyz', 'w' )
f.write( "16  " )
f.write( str(ee) + "\n" )
f.write( MOL.save_string_xyz() )
f.close()
--------------------------------------------------------------------------

    Molecular point group: c1
  Charge       = 0
  Multiplicity = 1
  Basis Set: CC-PVTZ
  Basis Set:
  @DF-RHF Final Energy:  -344.70037960689700
    Total Energy =                       -344.7003796068968882
    Molecular point group: c1
  Basis Set: CC-PVTZ
  Basis Set:
  Basis Set: CC-PVTZ
  Basis Set:
  @DF-RHF Final Energy:  -344.70039162606315
    Total Energy =                       -344.7003916260628671
  Basis Set: CC-PVTZ
  Basis Set:
  Basis Set: CC-PVTZ
  Basis Set:
  @DF-RHF Final Energy:  -344.70119153850334
    Total Energy =                       -344.7011915385031671
  Basis Set: CC-PVTZ
  Basis Set:
  Basis Set: CC-PVTZ
  Basis Set:
  @DF-RHF Final Energy:  -344.70124775774542
    Total Energy =                       -344.7012477577454774
  Basis Set: CC-PVTZ
  Basis Set:
  Basis Set: CC-PVTZ
  Basis Set:
  @DF-RHF Final Energy:  -344.70125738946490
    Total Energy =                       -344.7012573894647858
  Basis Set: CC-PVTZ
  Basis Set:
  Charge       = 0
  Multiplicity = 1
  Basis Set: CC-PVTZ
  Basis Set:

    Orbital Energies (a.u.)
    -----------------------

    Doubly Occupied:

       1A    -20.571584     2A    -11.288914     3A    -11.275909
       4A    -11.232002     5A    -11.230784     6A    -11.223971
       7A    -11.221060     8A    -11.220514     9A     -1.409973
      10A     -1.152164    11A     -1.023065    12A     -1.018018
      13A     -0.939143    14A     -0.836965    15A     -0.809507
      16A     -0.721221    17A     -0.669262    18A     -0.666854
      19A     -0.648967    20A     -0.617290    21A     -0.595161
      22A     -0.584889    23A     -0.531900    24A     -0.515070
      25A     -0.509033    26A     -0.486241    27A     -0.450500
      28A     -0.340014    29A     -0.318351

  @DF-RHF Final Energy:  -344.70125800772809

   => Energetics <=

    Nuclear Repulsion Energy =            348.6074808376609440
    One-Electron Energy =               -1158.4008271212974250
    Two-Electron Energy =                 465.0920882759079404
    DFT Exchange-Correlation Energy =       0.0000000000000000
    Empirical Dispersion Energy =           0.0000000000000000
    PCM Polarization Energy =               0.0000000000000000
    EFP Energy =                            0.0000000000000000
    Total Energy =                       -344.7012580077285975
    Molecular point group: c1
  Basis Set: CC-PVTZ
  Basis Set:

  -Total Gradient:
     Atom            X                  Y                   Z
    ------   -----------------  -----------------  -----------------
       1       -0.000008101830    -0.000017848938     0.000001180194
       2        0.000020697445     0.000136050563    -0.000024953215
       3        0.000095890677    -0.000081677204     0.000015474171
       4       -0.000134346879    -0.000068906025     0.000028478352
       5       -0.000016858171     0.000010265929    -0.000002719050
       6       -0.000096112850    -0.000071407833     0.000015314986
       7        0.000010110156    -0.000003368429    -0.000006578127
       8        0.000088624482     0.000064083969    -0.001125051469
       9        0.000004141892     0.000011382168    -0.000007585371
      10       -0.000052018659    -0.000475915447     0.002008887035
      11        0.000003270560     0.000003004362    -0.000000726443
      12        0.000213072033     0.001384869070    -0.001471119511
      13       -0.000117227026    -0.000907253647     0.000611651819
      14        0.000004633479    -0.000019525338     0.000006027616
      15       -0.000046815351     0.000023149383     0.000026214616
      16        0.000031040043     0.000013097415    -0.000074495602

  **** Optimization is complete! (in 6 steps) ****
    Final optimized geometry and variables:
    Molecular point group: c1

    Geometry (in Angstrom), charge = 0, multiplicity = 1:

    H           -3.310602528348     0.407712776778    -0.031555186046
    C           -2.249887454895     0.251122922936    -0.062999253743
    C           -1.735162672862    -1.017096436451    -0.262816023989
    C           -1.382394165016     1.313746624992     0.091325251628
    H           -2.398204956713    -1.852143171444    -0.387064646199
    C           -0.371167657972    -1.222132283745    -0.299652161551
    H           -1.768536397428     2.304443618593     0.239121184404
    C           -0.013391874339     1.121240611607     0.047453053923
    H            0.039983519977    -2.200126945911    -0.455437416884
    C            0.493345541814    -0.152475344688    -0.141731221032
    H            0.648421914961     1.957915390293     0.151754045120
    O            1.820046058731    -0.402882967165    -0.240282236301
    C            2.670177851599     0.126794922881     0.739606435483
    H            2.789492332672     1.198620980362     0.636434869525
    H            3.632261264548    -0.342296444448     0.601418767034
    H            2.302326174386    -0.095249507483     1.734908226539

  Mulliken Charges: (a.u.)
   Center  Symbol    Alpha    Beta     Spin     Total
       1     H     0.42390  0.42390  0.00000  0.15220
       2     C     3.09334  3.09334  0.00000 -0.18669
       3     C     3.06269  3.06269  0.00000 -0.12538
       4     C     3.06410  3.06410  0.00000 -0.12820
       5     H     0.42246  0.42246  0.00000  0.15507
       6     C     3.11192  3.11192  0.00000 -0.22384
       7     H     0.42256  0.42256  0.00000  0.15488
       8     C     3.11908  3.11908  0.00000 -0.23816
       9     H     0.41837  0.41837  0.00000  0.16326
      10     C     2.86008  2.86008  0.00000  0.27985
      11     H     0.42366  0.42366  0.00000  0.15269
      12     O     4.16822  4.16822  0.00000 -0.33643
      13     C     3.04146  3.04146  0.00000 -0.08292
      14     H     0.46287  0.46287  0.00000  0.07426
      15     H     0.44262  0.44262  0.00000  0.11476
      16     H     0.46266  0.46266  0.00000  0.07467

   Total alpha = 29.00000, Total beta = 29.00000, Total charge =  0.00000

*** Psi4 exiting successfully. Buy a developer a beer!
