                              Psi4 1.0.54 Driver

  ==> Input File <==

--------------------------------------------------------------------------
set {
	reference rhf
	basis cc-pvtz
}

set_num_threads( 4 )
memory 2 gb

molecule MOL {
0 1

H	 -2.898140	 -0.885775	 0.895918
O	 -2.658848	 -0.704215	 -0.000460
C	 -1.605397	 0.107680	 0.001145
C	 -0.310616	 -0.658853	 0.000791
O	 -1.718351	 1.284629	 -0.000627
C	 0.926581	 0.227233	 0.000178
H	 -0.327628	 -1.313681	 -0.864448
H	 -0.327041	 -1.313334	 0.866298
C	 2.220156	 -0.582071	 -0.000088
H	 0.899945	 0.878221	 -0.866390
H	 0.900542	 0.878581	 0.866486
C	 3.466689	 0.296012	 -0.000457
H	 2.239073	 -1.234095	 -0.869382
H	 2.239505	 -1.233985	 0.869270
H	 3.493549	 0.935857	 -0.875887
H	 4.368821	 -0.304526	 -0.001199
H	 3.494559	 0.935166	 0.875458

	symmetry c1
}
set optking {
	frozen_dihedral = ("
		1 2 3 5
	")
}

ee,wfn = optimize('scf', return_wfn=True)
oeprop( wfn, 'DIPOLE', 'QUADRUPOLE', 'MULLIKEN_CHARGES')
f=open( 'psi4out.xyz', 'w' )
f.write( "17  " )
f.write( str(ee) + "\n" )
f.write( MOL.save_string_xyz() )
f.close()
--------------------------------------------------------------------------

    Molecular point group: c1
  Charge       = 0
  Multiplicity = 1
  Basis Set: CC-PVTZ
  Basis Set:
  @DF-RHF Final Energy:  -345.02754407433241
    Total Energy =                       -345.0275440743324680
    Molecular point group: c1
  Basis Set: CC-PVTZ
  Basis Set:
  Basis Set: CC-PVTZ
  Basis Set:
  @DF-RHF Final Energy:  -345.02805146737131
    Total Energy =                       -345.0280514673710286
  Basis Set: CC-PVTZ
  Basis Set:
  Basis Set: CC-PVTZ
  Basis Set:
  @DF-RHF Final Energy:  -345.02897056555594
    Total Energy =                       -345.0289705655557100
  Basis Set: CC-PVTZ
  Basis Set:
  Basis Set: CC-PVTZ
  Basis Set:
  @DF-RHF Final Energy:  -345.02920597575007
    Total Energy =                       -345.0292059757501875
  Basis Set: CC-PVTZ
  Basis Set:
  Basis Set: CC-PVTZ
  Basis Set:
  @DF-RHF Final Energy:  -345.02921170656833
    Total Energy =                       -345.0292117065681623
  Basis Set: CC-PVTZ
  Basis Set:
  Charge       = 0
  Multiplicity = 1
  Basis Set: CC-PVTZ
  Basis Set:

    Orbital Energies (a.u.)
    -----------------------

    Doubly Occupied:

       1A    -20.585737     2A    -20.550856     3A    -11.374293
       4A    -11.241663     5A    -11.223015     6A    -11.222396
       7A    -11.212093     8A     -1.463295     9A     -1.370435
      10A     -1.093695    11A     -1.018731    12A     -0.910131
      13A     -0.824769    14A     -0.796354    15A     -0.711448
      16A     -0.676839    17A     -0.666334    18A     -0.641515
      19A     -0.595060    20A     -0.587100    21A     -0.542314
      22A     -0.527677    23A     -0.522945    24A     -0.502010
      25A     -0.482126    26A     -0.475102    27A     -0.474580
      28A     -0.445718

  @DF-RHF Final Energy:  -345.02921742495619

   => Energetics <=

    Nuclear Repulsion Energy =            303.9416044570546092
    One-Electron Energy =               -1072.4651866430883729
    Two-Electron Energy =                 423.4943647610776907
    DFT Exchange-Correlation Energy =       0.0000000000000000
    Empirical Dispersion Energy =           0.0000000000000000
    PCM Polarization Energy =               0.0000000000000000
    EFP Energy =                            0.0000000000000000
    Total Energy =                       -345.0292174249560730
    Molecular point group: c1
  Basis Set: CC-PVTZ
  Basis Set:

  -Total Gradient:
     Atom            X                  Y                   Z
    ------   -----------------  -----------------  -----------------
       1        0.001420245884    -0.001775390359     0.000045496783
       2       -0.001647857400     0.002272097406    -0.000975333414
       3        0.000011807504    -0.000446847727     0.002888943068
       4       -0.000006797333     0.000043840172     0.000006750782
       5        0.000190847557    -0.000090249347    -0.001972567871
       6        0.000010074728    -0.000006634270     0.000011386937
       7       -0.000013809318     0.000001343778    -0.000002067519
       8        0.000011087959     0.000001945778    -0.000010902042
       9        0.000008993613     0.000011420495    -0.000000096201
      10       -0.000006346816    -0.000014119172     0.000010694317
      11        0.000006622813     0.000006231840    -0.000001136316
      12        0.000011688085    -0.000007593888     0.000000993525
      13        0.000000324386     0.000001409643    -0.000000038013
      14        0.000000667921     0.000001647986    -0.000002566061
      15       -0.000000957808    -0.000001918038     0.000001461103
      16        0.000004617897     0.000003684848     0.000000086157
      17       -0.000001209680    -0.000000869146    -0.000001105236

  **** Optimization is complete! (in 6 steps) ****
    Final optimized geometry and variables:
    Molecular point group: c1

    Geometry (in Angstrom), charge = 0, multiplicity = 1:

    H           -3.050112085755    -0.899789642457     0.729857202312
    O           -2.691914543454    -0.719880987043    -0.123346551989
    C           -1.609032835224     0.101224863554    -0.056267037215
    C           -0.303934091227    -0.646845613013     0.008565854418
    O           -1.720965504738     1.268382725509    -0.109598157176
    C            0.928447224824     0.244958810360     0.033515116267
    H           -0.289543721404    -1.320630361846    -0.842412279171
    H           -0.342234765151    -1.289166342208     0.884646285670
    C            2.226457528586    -0.555252147392     0.092040030666
    H            0.926322304759     0.878614677732    -0.846083433899
    H            0.870241447541     0.913479310843     0.885485117138
    C            3.467007711119     0.330910632153     0.116033545480
    H            2.278089370471    -1.223458276279    -0.763415118729
    H            2.221127197175    -1.190435803196     0.974057158851
    H            3.519239063002     0.953479616727    -0.770556088386
    H            4.372234746663    -0.263482991761     0.157353768868
    H            3.461637352914     0.987395374237     0.979483604694

  Mulliken Charges: (a.u.)
   Center  Symbol    Alpha    Beta     Spin     Total
       1     H     0.38853  0.38853  0.00000  0.22294
       2     O     4.17534  4.17534  0.00000 -0.35067
       3     C     2.79915  2.79915  0.00000  0.40170
       4     C     3.11654  3.11654  0.00000 -0.23307
       5     O     4.16117  4.16117  0.00000 -0.32235
       6     C     3.08356  3.08356  0.00000 -0.16712
       7     H     0.43629  0.43629  0.00000  0.12742
       8     H     0.44787  0.44787  0.00000  0.10427
       9     C     3.08619  3.08619  0.00000 -0.17238
      10     H     0.44450  0.44450  0.00000  0.11100
      11     H     0.44721  0.44721  0.00000  0.10559
      12     C     3.14912  3.14912  0.00000 -0.29824
      13     H     0.45421  0.45421  0.00000  0.09158
      14     H     0.45548  0.45548  0.00000  0.08903
      15     H     0.45314  0.45314  0.00000  0.09373
      16     H     0.44785  0.44785  0.00000  0.10431
      17     H     0.45386  0.45386  0.00000  0.09228

   Total alpha = 28.00000, Total beta = 28.00000, Total charge = -0.00000

*** Psi4 exiting successfully. Buy a developer a beer!
