                              Psi4 1.0.54 Driver

  ==> Input File <==

--------------------------------------------------------------------------
set {
	reference rhf
	basis cc-pvtz
}

set_num_threads( 4 )
memory 2 gb

molecule MOL {
0 1

H	 -1.835082	 1.385983	 0.000069
C	 -1.300516	 0.441153	 -0.000028
O	 -0.006604	 0.654344	 -0.000106
O	 -1.828920	 -0.612308	 0.000113
C	 0.848987	 -0.463588	 0.219014
C	 2.275057	 0.031394	 0.174077
H	 0.659143	 -1.203754	 -0.545231
H	 0.609476	 -0.904381	 1.176250
H	 2.499532	 0.473486	 -0.788283
H	 2.953568	 -0.797268	 0.337771
H	 2.449610	 0.774389	 0.941839

	symmetry c1
}
set optking {
	frozen_dihedral = ("
		5 3 2 4
	")
}

ee,wfn = optimize('scf', return_wfn=True)
oeprop( wfn, 'DIPOLE', 'QUADRUPOLE', 'MULLIKEN_CHARGES')
f=open( 'psi4out.xyz', 'w' )
f.write( "11  " )
f.write( str(ee) + "\n" )
f.write( MOL.save_string_xyz() )
f.close()
--------------------------------------------------------------------------

    Molecular point group: c1
  Charge       = 0
  Multiplicity = 1
  Basis Set: CC-PVTZ
  Basis Set:
  @DF-RHF Final Energy:  -266.93124155653572
    Total Energy =                       -266.9312415565356105
    Molecular point group: c1
  Basis Set: CC-PVTZ
  Basis Set:
  Basis Set: CC-PVTZ
  Basis Set:
  @DF-RHF Final Energy:  -266.92914184927969
    Total Energy =                       -266.9291418492797447
  Basis Set: CC-PVTZ
  Basis Set:
  Basis Set: CC-PVTZ
  Basis Set:
  @DF-RHF Final Energy:  -266.93123965160538
    Total Energy =                       -266.9312396516053809
  Basis Set: CC-PVTZ
  Basis Set:
  Basis Set: CC-PVTZ
  Basis Set:
  @DF-RHF Final Energy:  -266.93131826850981
    Total Energy =                       -266.9313182685099264
  Basis Set: CC-PVTZ
  Basis Set:
  Basis Set: CC-PVTZ
  Basis Set:
  @DF-RHF Final Energy:  -266.93132393604952
    Total Energy =                       -266.9313239360494663
  Basis Set: CC-PVTZ
  Basis Set:
  Charge       = 0
  Multiplicity = 1
  Basis Set: CC-PVTZ
  Basis Set:

    Orbital Energies (a.u.)
    -----------------------

    Doubly Occupied:

       1A    -20.605141     2A    -20.546067     3A    -11.370212
       4A    -11.290265     5A    -11.225215     6A     -1.479213
       7A     -1.377468     8A     -1.053814     9A     -0.903592
      10A     -0.806393    11A     -0.740651    12A     -0.693220
      13A     -0.682339    14A     -0.594838    15A     -0.577223
      16A     -0.558338    17A     -0.519430    18A     -0.516206
      19A     -0.463949    20A     -0.457874

  @DF-RHF Final Energy:  -266.93132456594805

   => Energetics <=

    Nuclear Repulsion Energy =            179.5863060186131293
    One-Electron Energy =                -720.1123666583553131
    Two-Electron Energy =                 273.5947360737941381
    DFT Exchange-Correlation Energy =       0.0000000000000000
    Empirical Dispersion Energy =           0.0000000000000000
    PCM Polarization Energy =               0.0000000000000000
    EFP Energy =                            0.0000000000000000
    Total Energy =                       -266.9313245659479890
    Molecular point group: c1
  Basis Set: CC-PVTZ
  Basis Set:

  -Total Gradient:
     Atom            X                  Y                   Z
    ------   -----------------  -----------------  -----------------
       1        0.000024026802     0.000012620676     0.000011480734
       2        0.000209196499     0.000586952027     0.006792020209
       3       -0.000116954034    -0.000876596851    -0.005885475216
       4       -0.000137720731    -0.000248488675    -0.003570647987
       5        0.000031276906     0.000506924885     0.002622141401
       6       -0.000002407053     0.000005657768     0.000015286437
       7       -0.000003024846    -0.000000742403     0.000003449856
       8       -0.000002939133     0.000012458341     0.000005911236
       9       -0.000006875858    -0.000004675836     0.000001304654
      10       -0.000001739471     0.000001294586     0.000001654927
      11        0.000007160917     0.000004595480     0.000002873749

  **** Optimization is complete! (in 6 steps) ****
    Final optimized geometry and variables:
    Molecular point group: c1

    Geometry (in Angstrom), charge = 0, multiplicity = 1:

    H           -1.831658156148     1.380210303736    -0.110756347711
    C           -1.299682837490     0.434826883048    -0.068833968223
    O           -0.004977219443     0.641465342980    -0.116021506708
    O           -1.831466055381    -0.615754713017    -0.020494815437
    C            0.852991460223    -0.473504131374     0.109457346069
    C            2.276787332787     0.029611360652     0.094308046688
    H            0.682987211685    -1.210613991946    -0.662161675850
    H            0.597641504197    -0.920938782139     1.059761605000
    H            2.515728809282     0.479412994717    -0.860957678814
    H            2.956890437353    -0.796530091172     0.264129779265
    H            2.433458622019     0.768359182961     0.869992062029

  Mulliken Charges: (a.u.)
   Center  Symbol    Alpha    Beta     Spin     Total
       1     H     0.44821  0.44821  0.00000  0.10357
       2     C     2.84612  2.84612  0.00000  0.30777
       3     O     4.14468  4.14468  0.00000 -0.28935
       4     O     4.19425  4.19425  0.00000 -0.38851
       5     C     2.97233  2.97233  0.00000  0.05535
       6     C     3.13319  3.13319  0.00000 -0.26639
       7     H     0.45167  0.45167  0.00000  0.09665
       8     H     0.45466  0.45466  0.00000  0.09067
       9     H     0.44995  0.44995  0.00000  0.10010
      10     H     0.45425  0.45425  0.00000  0.09149
      11     H     0.45067  0.45067  0.00000  0.09865

   Total alpha = 20.00000, Total beta = 20.00000, Total charge =  0.00000

*** Psi4 exiting successfully. Buy a developer a beer!
