                              Psi4 1.0.54 Driver

  ==> Input File <==

--------------------------------------------------------------------------
set {
	reference rhf
	basis cc-pvtz
}

set_num_threads( 4 )
memory 2 gb

molecule MOL {
0 1

O	 1.847685	 1.294399	 -0.000190
C	 1.704209	 0.119472	 -0.000093
C	 0.380337	 -0.600947	 -0.000234
O	 2.715427	 -0.733672	 0.000025
C	 -0.824290	 0.329213	 -0.000115
H	 0.371455	 -1.255476	 -0.865660
H	 0.371410	 -1.255787	 0.864952
C	 -1.530688	 0.364073	 1.351848
H	 -1.518938	 0.014313	 -0.770554
H	 -0.504413	 1.328106	 -0.274308
C	 -2.741632	 1.292347	 1.371644
H	 -1.846699	 -0.641093	 1.622086
H	 -0.827729	 0.677533	 2.120503
C	 -3.447968	 1.326853	 2.722685
H	 -3.444852	 0.979608	 0.604941
H	 -2.426895	 2.296927	 1.103468
H	 -3.805390	 0.341547	 3.003141
H	 -4.301786	 1.994165	 2.702100
H	 -2.779504	 1.669660	 3.505547
C	 4.020999	 -0.192556	 0.000019
H	 4.182809	 0.412891	 -0.879449
H	 4.692590	 -1.035653	 0.000152
H	 4.182726	 0.413087	 0.879368

	symmetry c1
}
set optking {
	frozen_dihedral = ("
		9 5 3 6
	")
}

ee,wfn = optimize('scf', return_wfn=True)
oeprop( wfn, 'DIPOLE', 'QUADRUPOLE', 'MULLIKEN_CHARGES')
f=open( 'psi4out.xyz', 'w' )
f.write( "23  " )
f.write( str(ee) + "\n" )
f.write( MOL.save_string_xyz() )
f.close()
--------------------------------------------------------------------------

    Molecular point group: c1
  Charge       = 0
  Multiplicity = 1
  Basis Set: CC-PVTZ
  Basis Set:
  @DF-RHF Final Energy:  -423.12698785455382
    Total Energy =                       -423.1269878545537040
    Molecular point group: c1
  Basis Set: CC-PVTZ
  Basis Set:
  Basis Set: CC-PVTZ
  Basis Set:
  @DF-RHF Final Energy:  -423.12728810854560
    Total Energy =                       -423.1272881085458266
  Basis Set: CC-PVTZ
  Basis Set:
  Basis Set: CC-PVTZ
  Basis Set:
  @DF-RHF Final Energy:  -423.12714696614103
    Total Energy =                       -423.1271469661411402
  Basis Set: CC-PVTZ
  Basis Set:
  Basis Set: CC-PVTZ
  Basis Set:
  @DF-RHF Final Energy:  -423.12736946924008
    Total Energy =                       -423.1273694692397385
  Basis Set: CC-PVTZ
  Basis Set:
  Basis Set: CC-PVTZ
  Basis Set:
  @DF-RHF Final Energy:  -423.12737594424999
    Total Energy =                       -423.1273759442497067
  Basis Set: CC-PVTZ
  Basis Set:
  Basis Set: CC-PVTZ
  Basis Set:
  @DF-RHF Final Energy:  -423.12737977767398
    Total Energy =                       -423.1273797776750598
  Basis Set: CC-PVTZ
  Basis Set:
  Basis Set: CC-PVTZ
  Basis Set:
  @DF-RHF Final Energy:  -423.12738306356795
    Total Energy =                       -423.1273830635677768
  Basis Set: CC-PVTZ
  Basis Set:
  Charge       = 0
  Multiplicity = 1
  Basis Set: CC-PVTZ
  Basis Set:

    Orbital Energies (a.u.)
    -----------------------

    Doubly Occupied:

       1A    -20.596863     2A    -20.535035     3A    -11.365647
       4A    -11.278887     5A    -11.233565     6A    -11.215766
       7A    -11.213288     8A    -11.212209     9A    -11.205779
      10A     -1.473051    11A     -1.366530    12A     -1.091737
      13A     -1.043117    14A     -0.987405    15A     -0.931705
      16A     -0.844515    17A     -0.794843    18A     -0.769034
      19A     -0.705065    20A     -0.684017    21A     -0.676115
      22A     -0.642141    23A     -0.612513    24A     -0.600505
      25A     -0.570790    26A     -0.558274    27A     -0.555144
      28A     -0.532149    29A     -0.524734    30A     -0.499066
      31A     -0.488732    32A     -0.467204    33A     -0.464760
      34A     -0.459890    35A     -0.453966    36A     -0.442423

  @DF-RHF Final Energy:  -423.12738344555316

   => Energetics <=

    Nuclear Repulsion Energy =            457.7892450413149845
    One-Electron Energy =               -1483.6403308662784184
    Two-Electron Energy =                 602.7237023794104971
    DFT Exchange-Correlation Energy =       0.0000000000000000
    Empirical Dispersion Energy =           0.0000000000000000
    PCM Polarization Energy =               0.0000000000000000
    EFP Energy =                            0.0000000000000000
    Total Energy =                       -423.1273834455528231
    Molecular point group: c1
  Basis Set: CC-PVTZ
  Basis Set:

  -Total Gradient:
     Atom            X                  Y                   Z
    ------   -----------------  -----------------  -----------------
       1        0.000009486177    -0.000028045491    -0.000002352618
       2       -0.000051918028     0.000023240538     0.000000706792
       3        0.002180696692     0.002969156062    -0.002401025963
       4        0.000043406273    -0.000001123513    -0.000000844913
       5       -0.001945814808    -0.002672376606     0.002795233063
       6       -0.001494550884    -0.001999712910     0.001548779712
       7       -0.000006408530    -0.000011083307     0.000004368636
       8        0.000013854034    -0.000016599807    -0.000026139961
       9        0.001268323851     0.001719911683    -0.001920061708
      10       -0.000002901743     0.000007532715    -0.000005186636
      11       -0.000001328165     0.000012791640     0.000004969971
      12        0.000004412884    -0.000003321907     0.000001979349
      13       -0.000002378119    -0.000000632535    -0.000003300781
      14       -0.000008199197     0.000002019177    -0.000001132122
      15        0.000003261347     0.000000266660     0.000004955370
      16       -0.000003817011     0.000002461490    -0.000000240017
      17        0.000001944894     0.000001811349     0.000000219773
      18       -0.000002404870    -0.000000226666     0.000002902763
      19       -0.000000840516    -0.000000373355    -0.000003418424
      20       -0.000004246638    -0.000004061587    -0.000001732235
      21       -0.000000241806    -0.000004216766     0.000007136664
      22       -0.000000349767     0.000005684335     0.000001096256
      23        0.000000013923    -0.000003101205    -0.000006912971

  **** Optimization is complete! (in 8 steps) ****
    Final optimized geometry and variables:
    Molecular point group: c1

    Geometry (in Angstrom), charge = 0, multiplicity = 1:

    O            1.589994660149     0.909640539875    -0.493759858864
    C            1.429623610134    -0.259031122822    -0.592410978616
    C            0.099335474215    -0.969336912778    -0.623353362741
    O            2.429581132955    -1.120740400754    -0.677160741685
    C           -1.123934903010    -0.046167950856    -0.611637029403
    H            0.098343575874    -1.634499936823    -1.477919841733
    H            0.094953021355    -1.631539871782     0.237133439101
    C           -1.817228011696     0.031470504479     0.745251590839
    H           -1.825255537390    -0.375508706341    -1.370739502704
    H           -0.811632487253     0.947141064840    -0.906349448191
    C           -3.013553040251     0.977572795386     0.755064052919
    H           -2.143117617395    -0.962631477249     1.043709056168
    H           -1.097431990012     0.356103967294     1.492599319573
    C           -3.706383974365     1.052573971841     2.111528155872
    H           -3.729437509543     0.658458247312     0.002180004951
    H           -2.685400574533     1.970650383891     0.462260079100
    H           -4.076099713876     0.079317941739     2.417272552660
    H           -4.550063643981     1.732522169057     2.084341491786
    H           -3.024722728343     1.402253284471     2.879641058176
    C            3.742197525656    -0.598201344448    -0.640758062124
    H            3.905200027672     0.081081144493    -1.464232623935
    H            4.402376393873    -1.446400569897    -0.721793002583
    H            3.919007046930    -0.075600754384     0.287603241426

  Mulliken Charges: (a.u.)
   Center  Symbol    Alpha    Beta     Spin     Total
       1     O     4.19760  4.19760  0.00000 -0.39521
       2     C     2.80027  2.80027  0.00000  0.39947
       3     C     3.11419  3.11419  0.00000 -0.22838
       4     O     4.14659  4.14659  0.00000 -0.29317
       5     C     3.09802  3.09802  0.00000 -0.19604
       6     H     0.43010  0.43010  0.00000  0.13980
       7     H     0.43986  0.43986  0.00000  0.12028
       8     C     3.08634  3.08634  0.00000 -0.17267
       9     H     0.44694  0.44694  0.00000  0.10612
      10     H     0.43980  0.43980  0.00000  0.12040
      11     C     3.08625  3.08625  0.00000 -0.17250
      12     H     0.45634  0.45634  0.00000  0.08732
      13     H     0.45159  0.45159  0.00000  0.09682
      14     C     3.15011  3.15011  0.00000 -0.30023
      15     H     0.45558  0.45558  0.00000  0.08885
      16     H     0.45115  0.45115  0.00000  0.09771
      17     H     0.45604  0.45604  0.00000  0.08792
      18     H     0.44829  0.44829  0.00000  0.10343
      19     H     0.45429  0.45429  0.00000  0.09142
      20     C     3.03641  3.03641  0.00000 -0.07281
      21     H     0.45424  0.45424  0.00000  0.09152
      22     H     0.44551  0.44551  0.00000  0.10898
      23     H     0.45451  0.45451  0.00000  0.09098

   Total alpha = 36.00000, Total beta = 36.00000, Total charge = -0.00000

*** Psi4 exiting successfully. Buy a developer a beer!
