  ==> Input File <==

--------------------------------------------------------------------------
set {
	reference rhf
	basis cc-pvtz
}

set_num_threads( 4 )
memory 2 gb

molecule MOL {
0 1

H	 3.889604	 0.356866	 -0.089510
N	 3.091268	 -0.241216	 -0.065538
C	 1.860978	 0.530248	 0.016256
H	 3.192566	 -0.835836	 0.730398
C	 0.644130	 -0.381765	 -0.031064
H	 1.835721	 1.204666	 -0.833114
H	 1.808789	 1.151975	 0.911067
C	 -0.678115	 0.376691	 0.025731
H	 0.693998	 -0.977147	 -0.936845
H	 0.693309	 -1.082142	 0.800523
C	 -1.770817	 -0.248074	 -0.837329
H	 -0.517083	 1.404259	 -0.292275
H	 -1.023615	 0.428524	 1.055690
C	 -3.089099	 0.516674	 -0.782851
H	 -1.427424	 -0.301220	 -1.866673
H	 -1.936359	 -1.273791	 -0.519097
H	 -2.963948	 1.537508	 -1.128502
H	 -3.841915	 0.047289	 -1.405708
H	 -3.476613	 0.557585	 0.229816

	symmetry c1
}
set optking {
	frozen_dihedral = ("
		12 8 5 9
	")
}

ee = optimize('scf')
oeprop('DIPOLE', 'QUADRUPOLE', 'MULLIKEN_CHARGES')
f=open( 'psi4out.xyz', 'w' )
f.write( "19  " )
f.write( str(ee) + "\n" )
f.write( MOL.save_string_xyz() )
f.close()
--------------------------------------------------------------------------

    Molecular point group: c1
  Charge       = 0
  Multiplicity = 1
  Basis Set: CC-PVTZ
  Basis Set:
  @DF-RHF Final Energy:  -251.44473477255087
    Total Energy =                       -251.4447347725508166
    Molecular point group: c1
  Basis Set: CC-PVTZ
  Basis Set:
  Basis Set: CC-PVTZ
  Basis Set:
  @DF-RHF Final Energy:  -251.44499640552226
    Total Energy =                       -251.4449964055222040
  Basis Set: CC-PVTZ
  Basis Set:
  Basis Set: CC-PVTZ
  Basis Set:
  @DF-RHF Final Energy:  -251.44504034844022
    Total Energy =                       -251.4450403484405001
  Basis Set: CC-PVTZ
  Basis Set:
  Basis Set: CC-PVTZ
  Basis Set:
  @DF-RHF Final Energy:  -251.44504217352173
    Total Energy =                       -251.4450421735216992
  Basis Set: CC-PVTZ
  Basis Set:
  Charge       = 0
  Multiplicity = 1
  Basis Set: CC-PVTZ
  Basis Set:

    Orbital Energies (a.u.)
    -----------------------

    Doubly Occupied:

       1A    -15.526536     2A    -11.238563     3A    -11.212119
       4A    -11.210388     5A    -11.207505     6A    -11.205298
       7A     -1.178449     8A     -1.073141     9A     -0.999026
      10A     -0.901180    11A     -0.815287    12A     -0.789811
      13A     -0.663335    14A     -0.639183    15A     -0.622698
      16A     -0.586488    17A     -0.569992    18A     -0.550413
      19A     -0.526342    20A     -0.502294    21A     -0.480327
      22A     -0.466434    23A     -0.454549    24A     -0.452265
      25A     -0.383901

  @DF-RHF Final Energy:  -251.44504339477072

   => Energetics <=

    Nuclear Repulsion Energy =            246.0900129988685876
    One-Electron Energy =                -826.5590634973623310
    Two-Electron Energy =                 329.0240071037227949
    DFT Exchange-Correlation Energy =       0.0000000000000000
    Empirical Dispersion Energy =           0.0000000000000000
    PCM Polarization Energy =               0.0000000000000000
    EFP Energy =                            0.0000000000000000
    Total Energy =                       -251.4450433947709485
    Molecular point group: c1
  Basis Set: CC-PVTZ
  Basis Set:

  -Total Gradient:
     Atom            X                  Y                   Z
    ------   -----------------  -----------------  -----------------
       1        0.000025501003    -0.000007796219     0.000004754346
       2        0.000035750258     0.000002117979    -0.000003744799
       3       -0.000037906361    -0.000019492699    -0.000013894436
       4        0.000001883765     0.000000318605     0.000002802960
       5        0.002200416991     0.003996072675    -0.001464887803
       6       -0.000008463090    -0.000005887267     0.000004380086
       7       -0.000012502560    -0.000013420797    -0.000009879770
       8       -0.001307923876    -0.002035387298    -0.004052465672
       9       -0.001631385022    -0.002945143764     0.001860691651
      10       -0.000001768107    -0.000001875087     0.000020267663
      11        0.000014146118     0.000008406088     0.000015446284
      12        0.000735584244     0.001018491046     0.003613630530
      13       -0.000011654596    -0.000011193846     0.000015436966
      14       -0.000008514202     0.000002072753    -0.000006064715
      15        0.000008441558     0.000005295862     0.000013352503
      16        0.000009169571     0.000007963681     0.000005468672
      17       -0.000000055113    -0.000005542960     0.000000977107
      18       -0.000015303506     0.000006189805    -0.000001983335
      19        0.000004582923    -0.000001188556    -0.000004288239

  **** Optimization is complete! (in 5 steps) ****
    Final optimized geometry and variables:
    Molecular point group: c1

    Geometry (in Angstrom), charge = 0, multiplicity = 1:

    H            3.864012794633     0.234855887972     0.273420257408
    N            3.058464006914    -0.353983601477     0.268965857417
    C            1.834785145538     0.430684756130     0.281975999731
    H            3.116054355743    -0.938632322678     1.076521559199
    C            0.610953874077    -0.466405883891     0.191783624430
    H            1.854351207287     1.092679468246    -0.577250876256
    H            1.746200983570     1.066957112023     1.164163940069
    C           -0.716255956754     0.302223838977     0.243581357240
    H            0.668457600024    -1.068238576975    -0.708816946399
    H            0.640158496705    -1.181304710158     1.011350003045
    C           -1.829536202581    -0.336553273030    -0.579795107687
    H           -0.560411864088     1.329874927296    -0.076521846735
    H           -1.043383123632     0.380554188249     1.277367906790
    C           -3.158334824225     0.403041535940    -0.470840782405
    H           -1.523088361038    -0.378717557156    -1.621135727149
    H           -1.962639535770    -1.367064813291    -0.261069963322
    H           -3.063249551121     1.429585868394    -0.809320801122
    H           -3.923985502791    -0.073413330742    -1.072376319172
    H           -3.510780422992     0.426369524863     0.555048359405

  Mulliken Charges: (a.u.)
   Center  Symbol    Alpha    Beta     Spin     Total
       1     H     0.43028  0.43028  0.00000  0.13945
       2     N     3.68960  3.68960  0.00000 -0.37920
       3     C     3.02635  3.02635  0.00000 -0.05271
       4     H     0.43082  0.43082  0.00000  0.13836
       5     C     3.08381  3.08381  0.00000 -0.16762
       6     H     0.45682  0.45682  0.00000  0.08637
       7     H     0.46740  0.46740  0.00000  0.06520
       8     C     3.09676  3.09676  0.00000 -0.19351
       9     H     0.44942  0.44942  0.00000  0.10115
      10     H     0.45877  0.45877  0.00000  0.08246
      11     C     3.08248  3.08248  0.00000 -0.16495
      12     H     0.45595  0.45595  0.00000  0.08809
      13     H     0.45475  0.45475  0.00000  0.09049
      14     C     3.14989  3.14989  0.00000 -0.29977
      15     H     0.45376  0.45376  0.00000  0.09247
      16     H     0.45374  0.45374  0.00000  0.09252
      17     H     0.45531  0.45531  0.00000  0.08937
      18     H     0.44858  0.44858  0.00000  0.10285
      19     H     0.45551  0.45551  0.00000  0.08898

   Total alpha = 25.00000, Total beta = 25.00000, Total charge = -0.00000
