  ==> Input File <==

--------------------------------------------------------------------------
set {
	reference rhf
	basis 6-31G*
}

set_num_threads( 4 )
memory 2 gb

molecule MOL {
0 1

O	 3.225979	 0.970355	 -0.599647
C	 2.701189	 0.057885	 -0.047330
C	 1.245376	 -0.013843	 0.345420
O	 3.347903	 -1.046386	 0.304773
C	 0.455112	 1.231400	 -0.050772
H	 0.838542	 -0.913825	 -0.103701
H	 1.208210	 -0.175333	 1.419774
C	 -0.998893	 1.219485	 0.433193
H	 0.482531	 1.345121	 -1.130325
H	 0.957290	 2.103070	 0.354729
C	 -1.883438	 0.145884	 -0.207175
H	 -1.431207	 2.195402	 0.224832
H	 -1.019646	 1.105716	 1.516076
C	 -3.347647	 0.245583	 0.225435
H	 -1.822183	 0.231698	 -1.291012
H	 -1.510341	 -0.844814	 0.042401
C	 -4.239992	 -0.825570	 -0.404234
H	 -3.732888	 1.230466	 -0.033079
H	 -3.408585	 0.170602	 1.310038
C	 -5.521010	 -1.078474	 0.389953
H	 -4.497429	 -0.528613	 -1.418722
H	 -3.680688	 -1.754743	 -0.491400
H	 -6.132058	 -1.842227	 -0.081120
H	 -6.120281	 -0.175480	 0.465254
H	 -5.297137	 -1.410452	 1.399877
C	 4.728119	 -1.109107	 -0.004993
H	 4.882018	 -1.033965	 -1.071845
H	 5.068212	 -2.067527	 0.355250
H	 5.265056	 -0.311663	 0.488280

	symmetry c1
}
set optking {
	frozen_dihedral = ("
		21 17 14 11
	")
}

ee = optimize('scf')
oeprop('DIPOLE', 'QUADRUPOLE', 'MULLIKEN_CHARGES')
f=open( 'psi4out.xyz', 'w' )
f.write( "29  " )
f.write( str(ee) + "\n" )
f.write( MOL.save_string_xyz() )
f.close()
--------------------------------------------------------------------------

    Molecular point group: c1
  Charge       = 0
  Multiplicity = 1
  Basis Set: 6-31G*
  Basis Set:
  @DF-RHF Final Energy:  -501.04236787096681
    Total Energy =                       -501.0423678709663591
    Molecular point group: c1
  Basis Set: 6-31G*
  Basis Set:
  Basis Set: 6-31G*
  Basis Set:
  @DF-RHF Final Energy:  -501.04249706165274
    Total Energy =                       -501.0424970616520568
  Basis Set: 6-31G*
  Basis Set:
  Basis Set: 6-31G*
  Basis Set:
  @DF-RHF Final Energy:  -501.04256237269840
    Total Energy =                       -501.0425623726980575
  Basis Set: 6-31G*
  Basis Set:
  Basis Set: 6-31G*
  Basis Set:
  @DF-RHF Final Energy:  -501.04255944739521
    Total Energy =                       -501.0425594473953197
  Basis Set: 6-31G*
  Basis Set:
  @DF-RHF Final Energy:  -501.04254915699846
    Total Energy =                       -501.0425491569981205
  Basis Set: 6-31G*
  Basis Set:
  @DF-RHF Final Energy:  -501.04256491801686
    Total Energy =                       -501.0425649180167511
  Basis Set: 6-31G*
  Basis Set:
  Basis Set: 6-31G*
  Basis Set:
  @DF-RHF Final Energy:  -501.04256131733382
    Total Energy =                       -501.0425613173332522
  Basis Set: 6-31G*
  Basis Set:
  Basis Set: 6-31G*
  Basis Set:
  @DF-RHF Final Energy:  -501.04256519751254
    Total Energy =                       -501.0425651975128858
  Basis Set: 6-31G*
  Basis Set:
  Charge       = 0
  Multiplicity = 1
  Basis Set: 6-31G*
  Basis Set:

    Orbital Energies (a.u.)
    -----------------------

    Doubly Occupied:

       1A    -20.603383     2A    -20.545203     3A    -11.372018
       4A    -11.280671     5A    -11.234768     6A    -11.219081
       7A    -11.217564     8A    -11.216052     9A    -11.215832
      10A    -11.214404    11A    -11.208957    12A     -1.469077
      13A     -1.362520    14A     -1.097840    15A     -1.066348
      16A     -1.019415    17A     -0.977184    18A     -0.928340
      19A     -0.861407    20A     -0.799479    21A     -0.790376
      22A     -0.763824    23A     -0.700790    24A     -0.682345
      25A     -0.672105    26A     -0.650638    27A     -0.627031
      28A     -0.606257    29A     -0.595312    30A     -0.581638
      31A     -0.565837    32A     -0.549622    33A     -0.532194
      34A     -0.530680    35A     -0.516068    36A     -0.508803
      37A     -0.498892    38A     -0.477173    39A     -0.470747
      40A     -0.460232    41A     -0.459829    42A     -0.455731
      43A     -0.440735    44A     -0.435070

  @DF-RHF Final Energy:  -501.04256526817437

   => Energetics <=

    Nuclear Repulsion Energy =            610.4383261490578434
    One-Electron Energy =               -1891.9988417338829549
    Two-Electron Energy =                 780.5179503166513086
    DFT Exchange-Correlation Energy =       0.0000000000000000
    Empirical Dispersion Energy =           0.0000000000000000
    PCM Polarization Energy =               0.0000000000000000
    EFP Energy =                            0.0000000000000000
    Total Energy =                       -501.0425652681739166
    Molecular point group: c1
  Basis Set: 6-31G*
  Basis Set:

  -Total Gradient:
     Atom            X                  Y                   Z
    ------   -----------------  -----------------  -----------------
       1       -0.000005941048    -0.000010233857    -0.000021789504
       2        0.000014368040     0.000028306130     0.000059492259
       3       -0.000001192053    -0.000007531561    -0.000014378065
       4       -0.000003671536    -0.000008351297    -0.000016058122
       5       -0.000003272644    -0.000002426300    -0.000009611511
       6       -0.000000183958     0.000002463104     0.000000659482
       7        0.000004398451    -0.000000969813    -0.000001686167
       8       -0.000000661246    -0.000011311197     0.000012421422
       9        0.000000078323    -0.000000308401    -0.000000814722
      10       -0.000001152923     0.000000410504    -0.000001104139
      11        0.000526368838    -0.001731228129     0.002039778259
      12       -0.000004405613    -0.000004940487     0.000000022605
      13        0.000004647779     0.000002007464     0.000004176285
      14       -0.001450729931     0.002810714964    -0.002547801380
      15        0.000007761449    -0.000011155270    -0.000009079487
      16        0.000002291998     0.000013797553     0.000006765482
      17        0.003938477034    -0.002810929165    -0.000899360307
      18       -0.000004423922    -0.000007412578    -0.000005593606
      19       -0.000015393564    -0.000005767112     0.000005805864
      20        0.000005399070    -0.000004359824     0.000027240310
      21       -0.003018150741     0.001749766085     0.001363365202
      22        0.000004917305     0.000012734599     0.000003826405
      23        0.000006874764     0.000002939405    -0.000002710474
      24        0.000004753732    -0.000003045682    -0.000003440252
      25       -0.000010825248    -0.000002623836     0.000010822289
      26       -0.000000257864    -0.000000312026    -0.000000424348
      27        0.000000674840    -0.000000140496    -0.000000231189
      28       -0.000000073886    -0.000000203371    -0.000000346147
      29       -0.000000675458     0.000000110596     0.000000053558

  **** Optimization is complete! (in 9 steps) ****
    Final optimized geometry and variables:
    Molecular point group: c1

    Geometry (in Angstrom), charge = 0, multiplicity = 1:

    O            3.208214356769     1.001749632561    -0.649263599038
    C            2.687287413290     0.095571627678    -0.083110402158
    C            1.232459719244     0.024973848747     0.313479500262
    O            3.337963640858    -1.001817359567     0.282945536705
    C            0.437389886316     1.261662400647    -0.099595326800
    H            0.827787904885    -0.882942247651    -0.121373020653
    H            1.197948168182    -0.120592022029     1.390200852318
    C           -1.015576184675     1.252601920408     0.387662041742
    H            0.462168531273     1.359364228581    -1.180770156291
    H            0.937751234895     2.140783386731     0.291793507957
    C           -1.899130468582     0.169097488167    -0.236728378516
    H           -1.450540908121     2.224742601076     0.167750859068
    H           -1.033767078970     1.152786219191     1.472075213850
    C           -3.359186963302     0.258293424627     0.213064889585
    H           -1.846865925360     0.246802276812    -1.322112514787
    H           -1.519772894132    -0.817701750558     0.017095557006
    C           -4.264461903323    -0.794141433119    -0.439025456729
    H           -3.751959841539     1.251724028494     0.007896557520
    H           -3.393131961530     0.137821180836     1.294914297193
    C           -5.556288258905    -1.030433621677     0.345616380591
    H           -4.531470922586    -0.466507890933    -1.441038693048
    H           -3.728359395830    -1.734172040890    -0.541658134352
    H           -6.198776452734    -1.745569623523    -0.158960021249
    H           -6.117463993886    -0.107284179145     0.462109616439
    H           -5.346939474708    -1.415906482954     1.339428861844
    C            4.717741212933    -1.064793626904    -0.028736615305
    H            4.869283877185    -1.004036985751    -1.096845508899
    H            5.061365377591    -2.017112784800     0.344097243820
    H            5.253294256587    -0.259004392056     0.452327483768

  Mulliken Charges: (a.u.)
   Center  Symbol    Alpha    Beta     Spin     Total
       1     O     4.28595  4.28595  0.00000 -0.57190
       2     C     2.60483  2.60483  0.00000  0.79034
       3     C     3.20972  3.20972  0.00000 -0.41945
       4     O     4.30747  4.30747  0.00000 -0.61494
       5     C     3.15373  3.15373  0.00000 -0.30745
       6     H     0.39887  0.39887  0.00000  0.20226
       7     H     0.40124  0.40124  0.00000  0.19751
       8     C     3.15685  3.15685  0.00000 -0.31370
       9     H     0.41306  0.41306  0.00000  0.17388
      10     H     0.40874  0.40874  0.00000  0.18251
      11     C     3.15562  3.15562  0.00000 -0.31124
      12     H     0.41821  0.41821  0.00000  0.16357
      13     H     0.42392  0.42392  0.00000  0.15215
      14     C     3.15131  3.15131  0.00000 -0.30263
      15     H     0.42265  0.42265  0.00000  0.15471
      16     H     0.42335  0.42335  0.00000  0.15330
      17     C     3.15205  3.15205  0.00000 -0.30410
      18     H     0.42174  0.42174  0.00000  0.15652
      19     H     0.42411  0.42411  0.00000  0.15178
      20     C     3.23972  3.23972  0.00000 -0.47945
      21     H     0.42167  0.42167  0.00000  0.15666
      22     H     0.42257  0.42257  0.00000  0.15486
      23     H     0.41976  0.41976  0.00000  0.16048
      24     H     0.42172  0.42172  0.00000  0.15656
      25     H     0.42200  0.42200  0.00000  0.15599
      26     C     3.09241  3.09241  0.00000 -0.18481
      27     H     0.40908  0.40908  0.00000  0.18185
      28     H     0.40852  0.40852  0.00000  0.18296
      29     H     0.40912  0.40912  0.00000  0.18175

   Total alpha = 44.00000, Total beta = 44.00000, Total charge =  0.00000
