                              Psi4 1.0.54 Driver

  ==> Input File <==

--------------------------------------------------------------------------
set {
	reference rhf
	basis cc-pvtz
}

set_num_threads( 4 )
memory 2 gb

molecule MOL {
0 1

H	 -2.698799	 -0.000846	 0.036018
C	 -1.694291	 -0.000483	 0.434279
O	 -0.828718	 -0.000608	 -0.655022
H	 -1.576855	 0.881100	 1.056504
H	 -1.576401	 -0.881658	 1.057001
C	 0.557892	 0.000078	 -0.420099
C	 0.907120	 0.343919	 1.023537
C	 1.231880	 -1.284677	 -0.888494
H	 0.914719	 0.807530	 -1.047248
H	 0.382917	 1.238962	 1.335253
H	 1.972092	 0.525528	 1.110705
H	 0.655768	 -0.457745	 1.708183
H	 0.932968	 -1.519022	 -1.902781
H	 2.308676	 -1.162331	 -0.870734
H	 0.989056	 -2.129557	 -0.254651

	symmetry c1
}
set optking {
	frozen_dihedral = ("
		9 6 3 2
	")
}

ee,wfn = optimize('scf', return_wfn=True)
oeprop( wfn, 'DIPOLE', 'QUADRUPOLE', 'MULLIKEN_CHARGES')
f=open( 'psi4out.xyz', 'w' )
f.write( "15  " )
f.write( str(ee) + "\n" )
f.write( MOL.save_string_xyz() )
f.close()
--------------------------------------------------------------------------

    Molecular point group: c1
  Charge       = 0
  Multiplicity = 1
  Basis Set: CC-PVTZ
  Basis Set:
  @DF-RHF Final Energy:  -232.21907476077141
    Total Energy =                       -232.2190747607716048
    Molecular point group: c1
  Basis Set: CC-PVTZ
  Basis Set:
  Basis Set: CC-PVTZ
  Basis Set:
  @DF-RHF Final Energy:  -231.49644659839976
    Total Energy =                       -231.4964465983998707
  Basis Set: CC-PVTZ
  Basis Set:
  Basis Set: CC-PVTZ
  Basis Set:
  @DF-RHF Final Energy:  -231.68554050553448
    Total Energy =                       -231.6855405055346750
  Basis Set: CC-PVTZ
  Basis Set:
  Basis Set: CC-PVTZ
  Basis Set:
  @DF-RHF Final Energy:  -231.98563035369310
    Total Energy =                       -231.9856303536930113
  Basis Set: CC-PVTZ
  Basis Set:
  @DF-RHF Final Energy:  -232.18244578122500
    Total Energy =                       -232.1824457812248852
  @DF-RHF Final Energy:  -232.21948707923690
    Total Energy =                       -232.2194870792367283
  @DF-RHF Final Energy:  -232.22192676789604
    Total Energy =                       -232.2219267678959227
  Basis Set: CC-PVTZ
  Basis Set:
  @DF-RHF Final Energy:  -232.22206427384091
    Total Energy =                       -232.2220642738409992
  Basis Set: CC-PVTZ
  Basis Set:
  Basis Set: CC-PVTZ
  Basis Set:
  @DF-RHF Final Energy:  -232.22211668774432
    Total Energy =                       -232.2221166877442329
  Basis Set: CC-PVTZ
  Basis Set:
  Basis Set: CC-PVTZ
  Basis Set:
  @DF-RHF Final Energy:  -232.22211848595794
    Total Energy =                       -232.2221184859579353
  Basis Set: CC-PVTZ
  Basis Set:
  Charge       = 0
  Multiplicity = 1
  Basis Set: CC-PVTZ
  Basis Set:

    Orbital Energies (a.u.)
    -----------------------

    Doubly Occupied:

       1A    -20.538717     2A    -11.273152     3A    -11.259724
       4A    -11.213216     5A    -11.204112     6A     -1.369518
       7A     -1.053470     8A     -0.948537     9A     -0.919524
      10A     -0.781863    11A     -0.676358    12A     -0.644012
      13A     -0.632646    14A     -0.582805    15A     -0.554828
      16A     -0.543592    17A     -0.535692    18A     -0.507742
      19A     -0.493090    20A     -0.447509    21A     -0.401499

  @DF-RHF Final Energy:  -232.22212002656994

   => Energetics <=

    Nuclear Repulsion Energy =            198.3005214460696948
    One-Electron Energy =                -707.8820715844942697
    Two-Electron Energy =                 277.3594301118544649
    DFT Exchange-Correlation Energy =       0.0000000000000000
    Empirical Dispersion Energy =           0.0000000000000000
    PCM Polarization Energy =               0.0000000000000000
    EFP Energy =                            0.0000000000000000
    Total Energy =                       -232.2221200265701100
    Molecular point group: c1
  Basis Set: CC-PVTZ
  Basis Set:

  -Total Gradient:
     Atom            X                  Y                   Z
    ------   -----------------  -----------------  -----------------
       1        0.000016927820     0.000035797557     0.000025586576
       2       -0.001440865814     0.001122593892    -0.000298022401
       3        0.001998700468    -0.001422144629     0.000767158286
       4        0.000019869720    -0.000036581923    -0.000005141380
       5       -0.000002682566     0.000013012556    -0.000024481566
       6        0.000512742779    -0.000764616496    -0.001863594716
       7        0.000031482715    -0.000011117709     0.000051983222
       8        0.000048762728    -0.000021838147     0.000058171504
       9       -0.001123559630     0.001141809121     0.001319429096
      10       -0.000013079923     0.000011842215    -0.000003145512
      11       -0.000021418944    -0.000036230281    -0.000014003273
      12       -0.000000704895     0.000002230791    -0.000000267933
      13       -0.000013446863    -0.000026594626    -0.000032911991
      14       -0.000031914051     0.000002701957     0.000019343564
      15        0.000019186453    -0.000010864278    -0.000000103477

  **** Optimization is complete! (in 11 steps) ****
    Final optimized geometry and variables:
    Molecular point group: c1

    Geometry (in Angstrom), charge = 0, multiplicity = 1:

    H           -1.913673315581    -1.822863712196     0.692059095227
    C           -1.279894717969    -0.965548391304     0.869007632947
    O           -0.717841081118    -0.628942535113    -0.356928720432
    H           -1.893131689735    -0.170615274436     1.280032500956
    H           -0.534297664110    -1.245148277794     1.607933266888
    C            0.201015078855     0.436820070942    -0.478723418392
    C            0.296416486821     1.358819193024     0.731944227594
    C            1.556930231418    -0.139303796214    -0.856959855126
    H           -0.167554276025     1.039834863887    -1.302334007740
    H           -0.661909836898     1.796166543370     0.980791430600
    H            0.974730504005     2.169585170345     0.495560887522
    H            0.682523736563     0.851264817817     1.607614924113
    H            1.460282304631    -0.774956750523    -1.727534062603
    H            2.265419831966     0.650190984389    -1.082654669480
    H            1.958822454667    -0.736767296444    -0.045259176283

  Mulliken Charges: (a.u.)
   Center  Symbol    Alpha    Beta     Spin     Total
       1     H     0.44196  0.44196  0.00000  0.11608
       2     C     3.03708  3.03708  0.00000 -0.07417
       3     O     4.18976  4.18976  0.00000 -0.37951
       4     H     0.46886  0.46886  0.00000  0.06229
       5     H     0.47134  0.47134  0.00000  0.05732
       6     C     2.92522  2.92522  0.00000  0.14956
       7     C     3.17219  3.17219  0.00000 -0.34438
       8     C     3.13977  3.13977  0.00000 -0.27954
       9     H     0.45277  0.45277  0.00000  0.09446
      10     H     0.44463  0.44463  0.00000  0.11074
      11     H     0.44358  0.44358  0.00000  0.11284
      12     H     0.45069  0.45069  0.00000  0.09862
      13     H     0.44604  0.44604  0.00000  0.10793
      14     H     0.45830  0.45830  0.00000  0.08341
      15     H     0.45782  0.45782  0.00000  0.08437

   Total alpha = 21.00000, Total beta = 21.00000, Total charge =  0.00000

*** Psi4 exiting successfully. Buy a developer a beer!
