  ==> Input File <==

--------------------------------------------------------------------------
set {
	reference rhf
	basis 6-31G*
}

set_num_threads( 4 )
memory 2 gb

molecule MOL {
0 1

O	 -0.291628	 1.323815	 -0.000732
C	 -0.449655	 0.146360	 0.000961
C	 -1.783294	 -0.549321	 -0.000296
O	 0.550821	 -0.724572	 0.000672
H	 -1.863538	 -1.185371	 -0.874187
H	 -2.574672	 0.185258	 -0.002793
H	 -1.866414	 -1.182381	 0.875436
C	 0.892625	 -1.309774	 1.244453
H	 1.194431	 -0.550200	 1.951076
H	 1.714211	 -1.978264	 1.039842
H	 0.054336	 -1.858677	 1.648581

	symmetry c1
}
set optking {
	frozen_dihedral = ("
		8 4 2 1
	")
}

ee = optimize('scf')
oeprop('DIPOLE', 'QUADRUPOLE', 'MULLIKEN_CHARGES')
f=open( 'psi4out.xyz', 'w' )
f.write( "11  " )
f.write( str(ee) + "\n" )
f.write( MOL.save_string_xyz() )
f.close()
--------------------------------------------------------------------------

    Molecular point group: c1
  Charge       = 0
  Multiplicity = 1
  Basis Set: 6-31G*
  Basis Set:
  @DF-RHF Final Energy:  -266.81333756644642
    Total Energy =                       -266.8133375664461937
    Molecular point group: c1
  Basis Set: 6-31G*
  Basis Set:
  Basis Set: 6-31G*
  Basis Set:
  @DF-RHF Final Energy:  -266.81227914941223
    Total Energy =                       -266.8122791494124613
  Basis Set: 6-31G*
  Basis Set:
  Basis Set: 6-31G*
  Basis Set:
  @DF-RHF Final Energy:  -266.81439011330122
    Total Energy =                       -266.8143901133012150
  Basis Set: 6-31G*
  Basis Set:
  Basis Set: 6-31G*
  Basis Set:
  @DF-RHF Final Energy:  -266.81528285447848
    Total Energy =                       -266.8152828544784825
  Basis Set: 6-31G*
  Basis Set:
  @DF-RHF Final Energy:  -266.81530849783690
    Total Energy =                       -266.8153084978369520
  Basis Set: 6-31G*
  Basis Set:
  @DF-RHF Final Energy:  -266.81531341938535
    Total Energy =                       -266.8153134193852907
  Basis Set: 6-31G*
  Basis Set:
  Basis Set: 6-31G*
  Basis Set:
  @DF-RHF Final Energy:  -266.81531580469021
    Total Energy =                       -266.8153158046901581
  Basis Set: 6-31G*
  Basis Set:
  Basis Set: 6-31G*
  Basis Set:
  @DF-RHF Final Energy:  -266.81531688603411
    Total Energy =                       -266.8153168860341111
  Basis Set: 6-31G*
  Basis Set:
  Charge       = 0
  Multiplicity = 1
  Basis Set: 6-31G*
  Basis Set:

    Orbital Energies (a.u.)
    -----------------------

    Doubly Occupied:

       1A    -20.588188     2A    -20.558501     3A    -11.379580
       4A    -11.294750     5A    -11.239853     6A     -1.460828
       7A     -1.369945     8A     -1.025375     9A     -0.967501
      10A     -0.779678    11A     -0.694932    12A     -0.683801
      13A     -0.669677    14A     -0.615886    15A     -0.589447
      16A     -0.579181    17A     -0.543336    18A     -0.492611
      19A     -0.461960    20A     -0.441068

  @DF-RHF Final Energy:  -266.81531716261884

   => Energetics <=

    Nuclear Repulsion Energy =            182.2919444443598138
    One-Electron Energy =                -725.3423272597243567
    Two-Electron Energy =                 276.2350656527455612
    DFT Exchange-Correlation Energy =       0.0000000000000000
    Empirical Dispersion Energy =           0.0000000000000000
    PCM Polarization Energy =               0.0000000000000000
    EFP Energy =                            0.0000000000000000
    Total Energy =                       -266.8153171626189533
    Molecular point group: c1
  Basis Set: 6-31G*
  Basis Set:

  -Total Gradient:
     Atom            X                  Y                   Z
    ------   -----------------  -----------------  -----------------
       1       -0.000041153913    -0.000133601408    -0.001294995656
       2       -0.000305660588    -0.000186096206     0.001874941959
       3        0.000022864758    -0.000049600868     0.000036006595
       4        0.000992400570     0.001091858440    -0.000454039488
       5        0.000021093944    -0.000007397271    -0.000018165727
       6       -0.000023699432     0.000002237293    -0.000001219182
       7        0.000006145085     0.000060143798    -0.000030185693
       8       -0.000696816700    -0.000789873892    -0.000115853546
       9       -0.000003100957    -0.000010663114     0.000007748987
      10        0.000011326383     0.000002799307    -0.000005177852
      11        0.000016600849     0.000020193920     0.000000939603

  **** Optimization is complete! (in 9 steps) ****
    Final optimized geometry and variables:
    Molecular point group: c1

    Geometry (in Angstrom), charge = 0, multiplicity = 1:

    O           -0.077692601199     1.536308722064    -0.292306065150
    C           -0.263793179971     0.371449281488    -0.248907533895
    C           -1.625575343856    -0.272662319244    -0.286321302375
    O            0.764637307180    -0.508090432022    -0.244813519158
    H           -1.708643798869    -0.864666859925    -1.191381954669
    H           -2.392789537268     0.487110584177    -0.272250915367
    H           -1.761222641191    -0.944396440894     0.553700898515
    C            1.148153163771    -1.054978449124     0.997938555669
    H            1.444823327734    -0.271259207654     1.684634092328
    H            1.991618083834    -1.698124647033     0.801907133800
    H            0.349427888255    -1.642025628177     1.438462967276

  Mulliken Charges: (a.u.)
   Center  Symbol    Alpha    Beta     Spin     Total
       1     O     4.24579  4.24579  0.00000 -0.49159
       2     C     2.63058  2.63058  0.00000  0.73884
       3     C     3.28910  3.28910  0.00000 -0.57820
       4     O     4.30818  4.30818  0.00000 -0.61636
       5     H     0.39690  0.39690  0.00000  0.20620
       6     H     0.39534  0.39534  0.00000  0.20932
       7     H     0.40730  0.40730  0.00000  0.18541
       8     C     3.09241  3.09241  0.00000 -0.18482
       9     H     0.41047  0.41047  0.00000  0.17905
      10     H     0.40126  0.40126  0.00000  0.19747
      11     H     0.42267  0.42267  0.00000  0.15467

   Total alpha = 20.00000, Total beta = 20.00000, Total charge =  0.00000
