  ==> Input File <==

--------------------------------------------------------------------------
set {
	reference rhf
	basis 6-31G*
}

set_num_threads( 1 )
memory 2 gb

molecule MOL {
0 1

H	 3.276176	 0.174363	 -0.109463
N	 2.434251	 -0.367735	 -0.081097
C	 1.267428	 0.496480	 0.024474
H	 2.501951	 -0.965776	 0.720575
C	 -0.016086	 -0.325158	 -0.029487
H	 1.288818	 1.183521	 -0.816092
H	 1.267576	 1.109062	 0.929528
C	 -1.282277	 0.529072	 0.046735
H	 -0.012495	 -0.908639	 -0.945788
H	 -0.015903	 -1.041248	 0.791956
C	 -1.715540	 0.822914	 1.482577
H	 -2.090936	 0.022140	 -0.475832
H	 -1.120503	 1.467758	 -0.479245
H	 -1.919174	 -0.095492	 2.025517
H	 -2.616421	 1.428217	 1.505914
H	 -0.941568	 1.360538	 2.023084

	symmetry c1
}
set optking {
	frozen_dihedral = ("
		6 3 5 9,
		1 2 3 6
	")
}

ee = energy('scf')
oeprop('DIPOLE', 'QUADRUPOLE', 'MULLIKEN_CHARGES')
f=open( 'psi4out.xyz', 'w' )
f.write( "16  " )
f.write( str(ee) + "\n" )
f.write( MOL.save_string_xyz() )
f.close()
--------------------------------------------------------------------------

    Molecular point group: c1

    Geometry (in Angstrom), charge = 0, multiplicity = 1:

       Center              X                  Y                   Z               Mass
    ------------   -----------------  -----------------  -----------------  -----------------
           H          3.101815987593    -0.056778583579    -0.415480945549     1.007825032070
           N          2.259890987593    -0.598876583579    -0.387114945549    14.003074004780
           C          1.093067987593     0.265338416421    -0.281543945549    12.000000000000
           H          2.327590987593    -1.196917583579     0.414557054451     1.007825032070
           C         -0.190446012407    -0.556299583579    -0.335504945549    12.000000000000
           H          1.114457987593     0.952379416421    -1.122109945549     1.007825032070
           H          1.093215987593     0.877920416421     0.623510054451     1.007825032070
           C         -1.456637012407     0.297930416421    -0.259282945549    12.000000000000
           H         -0.186855012407    -1.139780583579    -1.251805945549     1.007825032070
           H         -0.190263012407    -1.272389583579     0.485938054451     1.007825032070
           C         -1.889900012407     0.591772416421     1.176559054451    12.000000000000
           H         -2.265296012407    -0.209001583579    -0.781849945549     1.007825032070
           H         -1.294863012407     1.236616416421    -0.785262945549     1.007825032070
           H         -2.093534012407    -0.326633583579     1.719499054451     1.007825032070
           H         -2.790781012407     1.197075416421     1.199896054451     1.007825032070
           H         -1.115928012407     1.129396416421     1.717066054451     1.007825032070

  Charge       = 0
  Multiplicity = 1
  Basis Set: 6-31G*
  Basis Set:

    Orbital Energies (a.u.)
    -----------------------

    Doubly Occupied:

       1A    -15.532618     2A    -11.239964     3A    -11.214530
       4A    -11.208926     5A    -11.208609     6A     -1.176808
       7A     -1.060414     8A     -0.955949     9A     -0.852586
      10A     -0.785989    11A     -0.658135    12A     -0.636990
      13A     -0.615783    14A     -0.573921    15A     -0.562324
      16A     -0.529928    17A     -0.501448    18A     -0.469580
      19A     -0.461940    20A     -0.461360    21A     -0.380562

  @DF-RHF Final Energy:  -212.31407196297118

   => Energetics <=

    Nuclear Repulsion Energy =            188.4192335209735916
    One-Electron Energy =                -659.2898963989523509
    Two-Electron Energy =                 258.5565909150078596
    DFT Exchange-Correlation Energy =       0.0000000000000000
    Empirical Dispersion Energy =           0.0000000000000000
    PCM Polarization Energy =               0.0000000000000000
    EFP Energy =                            0.0000000000000000
    Total Energy =                       -212.3140719629708997

  Mulliken Charges: (a.u.)
   Center  Symbol    Alpha    Beta     Spin     Total
       1     H     0.33254  0.33254  0.00000  0.33493
       2     N     3.92165  3.92165  0.00000 -0.84330
       3     C     3.06190  3.06190  0.00000 -0.12380
       4     H     0.33529  0.33529  0.00000  0.32942
       5     C     3.15292  3.15292  0.00000 -0.30584
       6     H     0.42050  0.42050  0.00000  0.15900
       7     H     0.43410  0.43410  0.00000  0.13179
       8     C     3.15838  3.15838  0.00000 -0.31676
       9     H     0.41114  0.41114  0.00000  0.17772
      10     H     0.42706  0.42706  0.00000  0.14589
      11     C     3.24005  3.24005  0.00000 -0.48010
      12     H     0.41878  0.41878  0.00000  0.16245
      13     H     0.42244  0.42244  0.00000  0.15512
      14     H     0.42145  0.42145  0.00000  0.15711
      15     H     0.41948  0.41948  0.00000  0.16104
      16     H     0.42233  0.42233  0.00000  0.15534

   Total alpha = 21.00000, Total beta = 21.00000, Total charge =  0.00000
