  ==> Input File <==

--------------------------------------------------------------------------
set {
	reference rhf
	basis 6-31G*
}

set_num_threads( 1 )
memory 2 gb

molecule MOL {
0 1

O	 0.141542	 -0.084052	 -0.639915
C	 1.122059	 0.121804	 -0.000188
C	 1.347571	 1.309149	 0.903831
O	 2.172624	 -0.688929	 0.000216
C	 0.168145	 2.276087	 0.940238
H	 1.572026	 0.924512	 1.895006
H	 2.253653	 1.805830	 0.567561
C	 0.422818	 3.469264	 1.862646
H	 -0.721403	 1.744318	 1.263394
H	 -0.039116	 2.626548	 -0.066103
C	 -0.753407	 4.443833	 1.904073
H	 0.630724	 3.112495	 2.869407
H	 1.316606	 3.996968	 1.535932
H	 -1.655166	 3.954141	 2.260004
H	 -0.547343	 5.279891	 2.564997
H	 -0.963978	 4.845394	 0.917134
C	 3.452279	 -0.082609	 0.000533
H	 3.583069	 0.529321	 -0.880332
H	 4.163299	 -0.894027	 0.001117
H	 3.582335	 0.529955	 0.881077

	symmetry c1
}
set optking {
	frozen_dihedral = ("
		9 5 8 12,
		1 2 3 6,
		9 5 3 6
	")
}

ee = energy('scf')
oeprop('DIPOLE', 'QUADRUPOLE', 'MULLIKEN_CHARGES')
f=open( 'psi4out.xyz', 'w' )
f.write( "20  " )
f.write( str(ee) + "\n" )
f.write( MOL.save_string_xyz() )
f.close()
--------------------------------------------------------------------------

    Molecular point group: c1

    Geometry (in Angstrom), charge = 0, multiplicity = 1:

       Center              X                  Y                   Z               Mass
    ------------   -----------------  -----------------  -----------------  -----------------
           O         -0.887079896189    -1.417267097403    -1.251705444094    15.994914619560
           C          0.093437103811    -1.211411097403    -0.611978444094    12.000000000000
           C          0.318949103811    -0.024066097403     0.292040555906    12.000000000000
           O          1.144002103811    -2.022144097403    -0.611574444094    15.994914619560
           C         -0.860476896189     0.942871902597     0.328447555906    12.000000000000
           H          0.543404103811    -0.408703097403     1.283215555906     1.007825032070
           H          1.225031103811     0.472614902597    -0.044229444094     1.007825032070
           C         -0.605803896189     2.136048902597     1.250855555906    12.000000000000
           H         -1.750024896189     0.411102902597     0.651603555906     1.007825032070
           H         -1.067737896189     1.293332902597    -0.677893444094     1.007825032070
           C         -1.782028896189     3.110617902597     1.292282555906    12.000000000000
           H         -0.397897896189     1.779279902597     2.257616555906     1.007825032070
           H          0.287984103811     2.663752902597     0.924141555906     1.007825032070
           H         -2.683787896189     2.620925902597     1.648213555906     1.007825032070
           H         -1.575964896189     3.946675902597     1.953206555906     1.007825032070
           H         -1.992599896189     3.512178902597     0.305343555906     1.007825032070
           C          2.423657103811    -1.415824097403    -0.611257444094    12.000000000000
           H          2.554447103811    -0.803894097403    -1.492122444094     1.007825032070
           H          3.134677103811    -2.227242097403    -0.610673444094     1.007825032070
           H          2.553713103811    -0.803260097403     0.269286555906     1.007825032070

  Charge       = 0
  Multiplicity = 1
  Basis Set: 6-31G*
  Basis Set:

    Orbital Energies (a.u.)
    -----------------------

    Doubly Occupied:

       1A    -20.599518     2A    -20.549334     3A    -11.374654
       4A    -11.297342     5A    -11.240572     6A    -11.223911
       7A    -11.222708     8A    -11.213331     9A     -1.466434
      10A     -1.369688    11A     -1.091646    12A     -1.018069
      13A     -0.986479    14A     -0.905075    15A     -0.811679
      16A     -0.766340    17A     -0.700398    18A     -0.687945
      19A     -0.679723    20A     -0.649644    21A     -0.614949
      22A     -0.592027    23A     -0.584646    24A     -0.558898
      25A     -0.542200    26A     -0.523822    27A     -0.501307
      28A     -0.481818    29A     -0.478132    30A     -0.473952
      31A     -0.454318    32A     -0.430437

  @DF-RHF Final Energy:  -383.91556646400119

   => Energetics <=

    Nuclear Repulsion Energy =            385.8265530353755253
    One-Electron Energy =               -1287.3021686488648356
    Two-Electron Energy =                 517.5600491494888047
    DFT Exchange-Correlation Energy =       0.0000000000000000
    Empirical Dispersion Energy =           0.0000000000000000
    PCM Polarization Energy =               0.0000000000000000
    EFP Energy =                            0.0000000000000000
    Total Energy =                       -383.9155664640004488

  Mulliken Charges: (a.u.)
   Center  Symbol    Alpha    Beta     Spin     Total
       1     O     4.26601  4.26601  0.00000 -0.53202
       2     C     2.59684  2.59684  0.00000  0.80631
       3     C     3.23931  3.23931  0.00000 -0.47861
       4     O     4.30195  4.30195  0.00000 -0.60390
       5     C     3.14784  3.14784  0.00000 -0.29567
       6     H     0.39881  0.39881  0.00000  0.20237
       7     H     0.40359  0.40359  0.00000  0.19281
       8     C     3.15412  3.15412  0.00000 -0.30824
       9     H     0.40983  0.40983  0.00000  0.18034
      10     H     0.41155  0.41155  0.00000  0.17689
      11     C     3.23951  3.23951  0.00000 -0.47903
      12     H     0.42333  0.42333  0.00000  0.15333
      13     H     0.42469  0.42469  0.00000  0.15063
      14     H     0.41906  0.41906  0.00000  0.16188
      15     H     0.41859  0.41859  0.00000  0.16282
      16     H     0.41964  0.41964  0.00000  0.16071
      17     C     3.10362  3.10362  0.00000 -0.20724
      18     H     0.41134  0.41134  0.00000  0.17732
      19     H     0.39772  0.39772  0.00000  0.20455
      20     H     0.41263  0.41263  0.00000  0.17474

   Total alpha = 32.00000, Total beta = 32.00000, Total charge =  0.00000
