  ==> Input File <==

--------------------------------------------------------------------------
set {
	reference rhf
	basis cc-pvtz
}

set_num_threads( 4 )
memory 2 gb

molecule MOL {
0 1

H	 2.867672	 -0.456275	 0.875795
C	 2.403497	 -0.020426	 0.000000
N	 0.989899	 -0.304564	 0.000000
H	 2.867672	 -0.456275	 -0.875795
H	 2.620366	 1.051270	 0.000000
C	 0.277836	 0.429829	 -1.025281
C	 0.382290	 -0.089833	 1.297023
H	 0.369520	 1.510602	 -0.879446
H	 0.702363	 0.192425	 -1.993860
C	 -1.190360	 0.049714	 -1.012913
H	 0.883458	 -0.708530	 2.032396
H	 0.481831	 0.951853	 1.617530
C	 -1.088590	 -0.456596	 1.249722
H	 -1.745870	 0.659172	 -1.711910
H	 -1.298325	 -0.993475	 -1.303084
O	 -1.754114	 0.254673	 0.248562
H	 -1.570537	 -0.213118	 2.186244
H	 -1.191288	 -1.525985	 1.076636

	symmetry c1
}
set optking {
	frozen_dihedral = ("
		6 3 2 5
	")
}

ee = optimize('scf')
oeprop('DIPOLE', 'QUADRUPOLE', 'MULLIKEN_CHARGES')
f=open( 'psi4out.xyz', 'w' )
f.write( "18  " )
f.write( str(ee) + "\n" )
f.write( MOL.save_string_xyz() )
f.close()
--------------------------------------------------------------------------

    Molecular point group: c1
  Charge       = 0
  Multiplicity = 1
  Basis Set: CC-PVTZ
  Basis Set:
  @DF-RHF Final Energy:  -325.14514435313458
    Total Energy =                       -325.1451443531346399
    Molecular point group: c1
  Basis Set: CC-PVTZ
  Basis Set:
  Basis Set: CC-PVTZ
  Basis Set:
  @DF-RHF Final Energy:  -325.14521176712009
    Total Energy =                       -325.1452117671199176
  Basis Set: CC-PVTZ
  Basis Set:
  Charge       = 0
  Multiplicity = 1
  Basis Set: CC-PVTZ
  Basis Set:

    Orbital Energies (a.u.)
    -----------------------

    Doubly Occupied:

       1A    -20.547591     2A    -15.544989     3A    -11.264432
       4A    -11.264328     5A    -11.242591     6A    -11.242549
       7A    -11.239185     8A     -1.386552     9A     -1.234227
      10A     -1.039046    11A     -0.982096    12A     -0.883831
      13A     -0.869675    14A     -0.775108    15A     -0.685175
      16A     -0.646504    17A     -0.645171    18A     -0.635064
      19A     -0.631212    20A     -0.574333    21A     -0.557405
      22A     -0.540558    23A     -0.527542    24A     -0.501606
      25A     -0.484824    26A     -0.453956    27A     -0.410622
      28A     -0.356886

  @DF-RHF Final Energy:  -325.14521541735780

   => Energetics <=

    Nuclear Repulsion Energy =            341.9713311500687496
    One-Electron Energy =               -1119.8989862749415352
    Two-Electron Energy =                 452.7824397075145839
    DFT Exchange-Correlation Energy =       0.0000000000000000
    Empirical Dispersion Energy =           0.0000000000000000
    PCM Polarization Energy =               0.0000000000000000
    EFP Energy =                            0.0000000000000000
    Total Energy =                       -325.1452154173582016
    Molecular point group: c1
  Basis Set: CC-PVTZ
  Basis Set:

  -Total Gradient:
     Atom            X                  Y                   Z
    ------   -----------------  -----------------  -----------------
       1        0.000034856528    -0.000007628039     0.000001856793
       2       -0.000241922335     0.000563849318     0.004327199204
       3        0.000369904686    -0.002106804697    -0.002626585223
       4       -0.000031471361     0.000023830978    -0.000010977436
       5        0.000022878003     0.000025353642    -0.002923199480
       6       -0.000216080112     0.001430007068     0.001431018742
       7        0.000154285018    -0.000101260686    -0.000027080140
       8       -0.000045161382     0.000004944135    -0.000021821879
       9       -0.000013416664     0.000048860051    -0.000075058776
      10       -0.000048314545     0.000112415959    -0.000043978432
      11       -0.000013346158     0.000015800871     0.000060208142
      12        0.000010401859     0.000031702687    -0.000023180661
      13        0.000039488789    -0.000059982079    -0.000070558870
      14       -0.000015565906    -0.000006010876    -0.000013252544
      15        0.000032919663     0.000015841006     0.000004298011
      16       -0.000045046317     0.000018701611     0.000010131051
      17        0.000025888559     0.000012187803    -0.000013185416
      18       -0.000020298319    -0.000021808752     0.000014166916

  **** Optimization is complete! (in 3 steps) ****
    Final optimized geometry and variables:
    Molecular point group: c1

    Geometry (in Angstrom), charge = 0, multiplicity = 1:

    H            2.879792324054    -0.457952975441     0.748899035751
    C            2.401767120990    -0.007321434424    -0.110640475319
    N            0.988509567175    -0.301368503840    -0.106905288989
    H            2.860128269573    -0.420217081064    -1.001917697047
    H            2.610474989828     1.065407510955    -0.106289302857
    C            0.278218605374     0.438650939706    -1.130065744073
    C            0.377718154083    -0.073152805440     1.187921277003
    H            0.371828951693     1.517819543725    -0.975818240040
    H            0.705058739996     0.208529930243    -2.100009619550
    C           -1.190719465906     0.061675486020    -1.124506316860
    H            0.874447434863    -0.686394709691     1.930622614591
    H            0.476083728878     0.971219309392     1.500028230655
    C           -1.093360949151    -0.439859370282     1.139204144043
    H           -1.741650189878     0.673228510854    -1.825439389203
    H           -1.299713876005    -0.980895749178    -1.416519768379
    O           -1.758678488661     0.267048292011     0.134870570292
    H           -1.576229487484    -0.193307562986     2.074517021405
    H           -1.194817266952    -1.510145243652     0.970309577544

  Mulliken Charges: (a.u.)
   Center  Symbol    Alpha    Beta     Spin     Total
       1     H     0.45214  0.45214  0.00000  0.09573
       2     C     3.09499  3.09499  0.00000 -0.18998
       3     N     3.61751  3.61751  0.00000 -0.23503
       4     H     0.45051  0.45051  0.00000  0.09897
       5     H     0.46900  0.46900  0.00000  0.06200
       6     C     3.04208  3.04208  0.00000 -0.08416
       7     C     3.04023  3.04023  0.00000 -0.08046
       8     H     0.46796  0.46796  0.00000  0.06408
       9     H     0.45411  0.45411  0.00000  0.09179
      10     C     2.98337  2.98337  0.00000  0.03325
      11     H     0.45380  0.45380  0.00000  0.09239
      12     H     0.46940  0.46940  0.00000  0.06120
      13     C     2.98387  2.98387  0.00000  0.03226
      14     H     0.44981  0.44981  0.00000  0.10039
      15     H     0.46744  0.46744  0.00000  0.06511
      16     O     4.18649  4.18649  0.00000 -0.37297
      17     H     0.44974  0.44974  0.00000  0.10052
      18     H     0.46755  0.46755  0.00000  0.06490

   Total alpha = 28.00000, Total beta = 28.00000, Total charge = -0.00000
