                              Psi4 1.0.54 Driver

  ==> Input File <==

--------------------------------------------------------------------------
set {
	reference rhf
	basis cc-pvtz
}

set_num_threads( 4 )
memory 2 gb

molecule MOL {
0 1

H	 -1.484589	 -0.271923	 -0.297566
N	 -0.625934	 -0.663929	 -0.000707
C	 -0.608552	 -2.048847	 0.407698
C	 0.468494	 0.129045	 -0.002160
H	 -1.270109	 -2.213383	 1.249873
H	 0.395994	 -2.304014	 0.699023
H	 -0.912990	 -2.697511	 -0.405069
C	 1.785715	 -0.615093	 0.000603
O	 0.413285	 1.323206	 0.000532
H	 1.866994	 -1.243310	 -0.878792
H	 2.591506	 0.100263	 0.006422
H	 1.860358	 -1.250360	 0.875522

	symmetry c1
}
set optking {
	frozen_dihedral = ("
		3 2 4 9
	")
}

ee,wfn = optimize('scf', return_wfn=True)
oeprop( wfn, 'DIPOLE', 'QUADRUPOLE', 'MULLIKEN_CHARGES')
f=open( 'psi4out.xyz', 'w' )
f.write( "12  " )
f.write( str(ee) + "\n" )
f.write( MOL.save_string_xyz() )
f.close()
--------------------------------------------------------------------------

    Molecular point group: c1
  Charge       = 0
  Multiplicity = 1
  Basis Set: CC-PVTZ
  Basis Set:
  @DF-RHF Final Energy:  -247.08804040277869
    Total Energy =                       -247.0880404027787449
    Molecular point group: c1
  Basis Set: CC-PVTZ
  Basis Set:
  Basis Set: CC-PVTZ
  Basis Set:
  @DF-RHF Final Energy:  -247.09071259006757
    Total Energy =                       -247.0907125900676533
  Basis Set: CC-PVTZ
  Basis Set:
  Basis Set: CC-PVTZ
  Basis Set:
  @DF-RHF Final Energy:  -247.09384354117157
    Total Energy =                       -247.0938435411713954
  Basis Set: CC-PVTZ
  Basis Set:
  Basis Set: CC-PVTZ
  Basis Set:
  @DF-RHF Final Energy:  -247.09538457968512
    Total Energy =                       -247.0953845796852306
  Basis Set: CC-PVTZ
  Basis Set:
  @DF-RHF Final Energy:  -247.07134735108983
    Total Energy =                       -247.0713473510897416
  @DF-RHF Final Energy:  -247.09546977793161
    Total Energy =                       -247.0954697779317257
  @DF-RHF Final Energy:  -247.09600363696606
    Total Energy =                       -247.0960036369658610
  @DF-RHF Final Energy:  -247.09618279712197
    Total Energy =                       -247.0961827971219122
  @DF-RHF Final Energy:  -247.09599998405673
    Total Energy =                       -247.0959999840567889
  @DF-RHF Final Energy:  -247.09662961408571
    Total Energy =                       -247.0966296140857139
  @DF-RHF Final Energy:  -247.09585028323829
    Total Energy =                       -247.0958502832384056
  @DF-RHF Final Energy:  -247.09678171191473
    Total Energy =                       -247.0967817119146730
  @DF-RHF Final Energy:  -247.09699044382211
    Total Energy =                       -247.0969904438219942
  Basis Set: CC-PVTZ
  Basis Set:
  @DF-RHF Final Energy:  -247.09705152519660
    Total Energy =                       -247.0970515251966049
  Basis Set: CC-PVTZ
  Basis Set:
  Basis Set: CC-PVTZ
  Basis Set:
  @DF-RHF Final Energy:  -247.09707198523452
    Total Energy =                       -247.0970719852343791
  Basis Set: CC-PVTZ
  Basis Set:
  Basis Set: CC-PVTZ
  Basis Set:
  @DF-RHF Final Energy:  -247.09707704743053
    Total Energy =                       -247.0970770474306732
  Basis Set: CC-PVTZ
  Basis Set:
  Charge       = 0
  Multiplicity = 1
  Basis Set: CC-PVTZ
  Basis Set:

    Orbital Energies (a.u.)
    -----------------------

    Doubly Occupied:

       1A    -20.509110     2A    -15.573037     3A    -11.338042
       4A    -11.268574     5A    -11.228716     6A     -1.390691
       7A     -1.231239     8A     -1.006927     9A     -0.956653
      10A     -0.781964    11A     -0.676321    12A     -0.669856
      13A     -0.642193    14A     -0.588768    15A     -0.579077
      16A     -0.562414    17A     -0.556383    18A     -0.517893
      19A     -0.418756    20A     -0.390428

  @DF-RHF Final Energy:  -247.09707721695975

   => Energetics <=

    Nuclear Repulsion Energy =            181.7488622004391914
    One-Electron Energy =                -695.9177943604331631
    Two-Electron Energy =                 267.0718549430342819
    DFT Exchange-Correlation Energy =       0.0000000000000000
    Empirical Dispersion Energy =           0.0000000000000000
    PCM Polarization Energy =               0.0000000000000000
    EFP Energy =                            0.0000000000000000
    Total Energy =                       -247.0970772169597467
    Molecular point group: c1
  Basis Set: CC-PVTZ
  Basis Set:

  -Total Gradient:
     Atom            X                  Y                   Z
    ------   -----------------  -----------------  -----------------
       1       -0.000000368229    -0.000002939368    -0.000001137790
       2        0.000580995071    -0.000116484174    -0.001463209429
       3       -0.000385498398    -0.000057041616     0.001320865594
       4       -0.000087139861     0.000709017416    -0.001339628354
       5        0.000000158734    -0.000003370350     0.000002649256
       6       -0.000005514438    -0.000005484439    -0.000001520076
       7        0.000001534018    -0.000003322620    -0.000001536271
       8        0.000012469984     0.000005795261    -0.000008179611
       9       -0.000106353448    -0.000526994109     0.001486589258
      10        0.000001109546     0.000002799668     0.000012988293
      11       -0.000006109771    -0.000008299717    -0.000003328008
      12       -0.000005283206     0.000006324048    -0.000004552862

  **** Optimization is complete! (in 17 steps) ****
    Final optimized geometry and variables:
    Molecular point group: c1

    Geometry (in Angstrom), charge = 0, multiplicity = 1:

    H           -1.746315573229     0.147725824565    -0.039298581423
    N           -0.871143214013    -0.273521773402    -0.248072976920
    C           -0.853357737748    -1.715385425062    -0.333960522905
    C            0.179388448660     0.513808706226     0.107737518942
    H           -0.730487842849    -2.196505552698     0.631825792904
    H           -0.065132710206    -2.055956899958    -0.989683797711
    H           -1.791390727678    -2.044713211444    -0.757148633353
    C            1.561079192231    -0.080960066898    -0.030516558236
    O            0.011065757248     1.631670116113     0.494167628233
    H            1.731305288782    -0.431930928905    -1.040764098893
    H            2.282730532929     0.680157054484     0.215994600012
    H            1.684972743545    -0.923211988653     0.640042666663

  Mulliken Charges: (a.u.)
   Center  Symbol    Alpha    Beta     Spin     Total
       1     H     0.41505  0.41505  0.00000  0.16990
       2     N     3.60660  3.60660  0.00000 -0.21321
       3     C     3.08751  3.08751  0.00000 -0.17502
       4     C     2.84492  2.84492  0.00000  0.31017
       5     H     0.45629  0.45629  0.00000  0.08742
       6     H     0.45222  0.45222  0.00000  0.09555
       7     H     0.44340  0.44340  0.00000  0.11320
       8     C     3.16146  3.16146  0.00000 -0.32292
       9     O     4.20752  4.20752  0.00000 -0.41504
      10     H     0.44606  0.44606  0.00000  0.10788
      11     H     0.42938  0.42938  0.00000  0.14125
      12     H     0.44959  0.44959  0.00000  0.10082

   Total alpha = 20.00000, Total beta = 20.00000, Total charge =  0.00000

*** Psi4 exiting successfully. Buy a developer a beer!
