                              Psi4 1.0.54 Driver

  ==> Input File <==

--------------------------------------------------------------------------
set {
	reference rhf
	basis cc-pvtz
}

set_num_threads( 4 )
memory 2 gb

molecule MOL {
0 1

H	 -3.436473	 1.252944	 -1.023892
O	 -3.458596	 0.315260	 -0.960865
C	 -3.176635	 -0.080824	 0.355601
C	 -1.763371	 0.265266	 0.799691
H	 -3.321825	 -1.153438	 0.379502
H	 -3.895468	 0.357385	 1.043382
C	 -0.673390	 -0.426948	 -0.013392
H	 -1.631049	 1.344913	 0.747560
H	 -1.664587	 -0.001624	 1.849167
C	 0.737842	 -0.043159	 0.423759
H	 -0.806103	 -0.190518	 -1.063345
H	 -0.797221	 -1.503753	 0.074146
C	 0.762639	 1.159019	 1.365673
H	 1.203121	 -0.899247	 0.902839
H	 1.340040	 0.179457	 -0.454681
C	 2.160270	 1.632653	 1.768348
H	 0.192873	 0.924001	 2.261766
H	 0.244382	 1.985285	 0.886806
C	 2.947155	 0.643819	 2.625181
H	 2.061726	 2.564773	 2.316268
H	 2.730893	 1.867228	 0.873482
H	 2.397931	 0.385855	 3.525116
H	 3.896500	 1.069595	 2.929648
H	 3.159519	 -0.275400	 2.092692

	symmetry c1
}
set optking {
	frozen_dihedral = ("
		13 10 7 11
	")
}

ee,wfn = optimize('scf', return_wfn=True)
oeprop( wfn, 'DIPOLE', 'QUADRUPOLE', 'MULLIKEN_CHARGES')
f=open( 'psi4out.xyz', 'w' )
f.write( "24  " )
f.write( str(ee) + "\n" )
f.write( MOL.save_string_xyz() )
f.close()
--------------------------------------------------------------------------

    Molecular point group: c1
  Charge       = 0
  Multiplicity = 1
  Basis Set: CC-PVTZ
  Basis Set:
  @DF-RHF Final Energy:  -349.36579203765450
    Total Energy =                       -349.3657920376547281
    Molecular point group: c1
  Basis Set: CC-PVTZ
  Basis Set:
  Basis Set: CC-PVTZ
  Basis Set:
  @DF-RHF Final Energy:  -349.27969547524521
    Total Energy =                       -349.2796954752448073
  Basis Set: CC-PVTZ
  Basis Set:
  Basis Set: CC-PVTZ
  Basis Set:
  @DF-RHF Final Energy:  -349.35704815033728
    Total Energy =                       -349.3570481503371639
  Basis Set: CC-PVTZ
  Basis Set:
  Basis Set: CC-PVTZ
  Basis Set:
  @DF-RHF Final Energy:  -349.36972478697891
    Total Energy =                       -349.3697247869789066
  Basis Set: CC-PVTZ
  Basis Set:
  @DF-RHF Final Energy:  -349.37075906536228
    Total Energy =                       -349.3707590653626767
  Basis Set: CC-PVTZ
  Basis Set:
  @DF-RHF Final Energy:  -349.37076969240155
    Total Energy =                       -349.3707696924014954
  Basis Set: CC-PVTZ
  Basis Set:
  Basis Set: CC-PVTZ
  Basis Set:
  @DF-RHF Final Energy:  -349.37077571173666
    Total Energy =                       -349.3707757117366555
  Basis Set: CC-PVTZ
  Basis Set:
  Basis Set: CC-PVTZ
  Basis Set:
  @DF-RHF Final Energy:  -349.37078982599957
    Total Energy =                       -349.3707898259997933
  Basis Set: CC-PVTZ
  Basis Set:
  Charge       = 0
  Multiplicity = 1
  Basis Set: CC-PVTZ
  Basis Set:

    Orbital Energies (a.u.)
    -----------------------

    Doubly Occupied:

       1A    -20.546026     2A    -11.265220     3A    -11.214864
       4A    -11.213030     5A    -11.211160     6A    -11.210265
       7A    -11.209300     8A    -11.205812     9A     -1.363894
      10A     -1.087610    11A     -1.047410    12A     -0.983919
      13A     -0.917898    14A     -0.856301    15A     -0.811532
      16A     -0.762364    17A     -0.678469    18A     -0.653030
      19A     -0.627575    20A     -0.621792    21A     -0.600869
      22A     -0.579424    23A     -0.562706    24A     -0.541596
      25A     -0.522921    26A     -0.512066    27A     -0.498094
      28A     -0.481337    29A     -0.474555    30A     -0.456153
      31A     -0.444177    32A     -0.437283    33A     -0.426842

  @DF-RHF Final Energy:  -349.37078955340110

   => Energetics <=

    Nuclear Repulsion Energy =            389.2608084505163788
    One-Electron Energy =               -1245.2121986150364137
    Two-Electron Energy =                 506.5806006111184843
    DFT Exchange-Correlation Energy =       0.0000000000000000
    Empirical Dispersion Energy =           0.0000000000000000
    PCM Polarization Energy =               0.0000000000000000
    EFP Energy =                            0.0000000000000000
    Total Energy =                       -349.3707895534015506
    Molecular point group: c1
  Basis Set: CC-PVTZ
  Basis Set:

  -Total Gradient:
     Atom            X                  Y                   Z
    ------   -----------------  -----------------  -----------------
       1       -0.000004589657    -0.000016697022     0.000020958454
       2       -0.000036849597    -0.000040409275    -0.000046267341
       3        0.000041357242     0.000059981603    -0.000041030867
       4       -0.000027043358    -0.000032174342     0.000110379439
       5       -0.000010375350     0.000006367746    -0.000034530923
       6       -0.000024429267     0.000017295862     0.000002795837
       7       -0.001174696593     0.004509221143     0.002238813335
       8        0.000019527866     0.000031790916     0.000032166231
       9        0.000000375897     0.000004717549    -0.000007579868
      10        0.002120607677     0.001682567723    -0.003747966787
      11        0.000507737325    -0.004379256685    -0.000939962314
      12        0.000054682818     0.000008406856     0.000014382318
      13       -0.001452512697    -0.001803349469     0.002475391434
      14       -0.000028799517     0.000025912961    -0.000043460187
      15       -0.000024016008    -0.000022914560    -0.000021814751
      16       -0.000006820451    -0.000054959140    -0.000017082560
      17        0.000037304671     0.000030432955     0.000004313442
      18       -0.000044207392    -0.000026059983    -0.000013298796
      19        0.000038532104     0.000037549383    -0.000001602870
      20       -0.000020408949    -0.000018132266    -0.000019122814
      21        0.000009666805    -0.000003411175     0.000040511662
      22        0.000007795644     0.000019869122    -0.000017763330
      23        0.000017387186    -0.000018684028     0.000015623898
      24       -0.000000226397    -0.000018065873    -0.000003852647

  **** Optimization is complete! (in 9 steps) ****
    Final optimized geometry and variables:
    Molecular point group: c1

    Geometry (in Angstrom), charge = 0, multiplicity = 1:

    H           -2.405678894523     1.545316892313    -2.435284151316
    O           -2.609524036503     0.627666928380    -2.437224923374
    C           -2.769450312710     0.172486830497    -1.119521442894
    C           -1.493178470484     0.248346198811    -0.293099924684
    H           -3.101729205066    -0.854725186725    -1.200149203119
    H           -3.559839341309     0.729286539423    -0.622299816445
    C           -0.377553522788    -0.638313684287    -0.842991648475
    H           -1.173486630757     1.285597257201    -0.243520244683
    H           -1.739984797413    -0.043755931165     0.723877188252
    C            0.970617919238    -0.653270650512    -0.077607574251
    H           -0.201340336032    -0.391597159814    -1.882400273281
    H           -0.755990028178    -1.656332912422    -0.869506152592
    C            1.211005250489     0.472634872143     0.930518736167
    H            1.050171304151    -1.597557327753     0.448358950158
    H            1.780618863461    -0.649573357736    -0.799803785784
    C            2.590776011960     0.428487865065     1.592439304117
    H            0.449919258038     0.448451887832     1.704270384602
    H            1.109217487002     1.432460196865     0.432652910457
    C            2.825594311413    -0.767732298812     2.512066657674
    H            2.720049488841     1.338467962852     2.170493986631
    H            3.358622814103     0.447660685709     0.823603729942
    H            2.064815095645    -0.819813991449     3.284551747941
    H            3.788491075886    -0.689471432122     3.003970174028
    H            2.813032906653    -1.706314240514     1.971794092958

  Mulliken Charges: (a.u.)
   Center  Symbol    Alpha    Beta     Spin     Total
       1     H     0.39530  0.39530  0.00000  0.20941
       2     O     4.20383  4.20383  0.00000 -0.40766
       3     C     2.97810  2.97810  0.00000  0.04379
       4     C     3.10753  3.10753  0.00000 -0.21506
       5     H     0.45866  0.45866  0.00000  0.08269
       6     H     0.45955  0.45955  0.00000  0.08090
       7     C     3.09344  3.09344  0.00000 -0.18688
       8     H     0.45543  0.45543  0.00000  0.08913
       9     H     0.45149  0.45149  0.00000  0.09702
      10     C     3.09967  3.09967  0.00000 -0.19933
      11     H     0.44311  0.44311  0.00000  0.11378
      12     H     0.45275  0.45275  0.00000  0.09451
      13     C     3.09908  3.09908  0.00000 -0.19815
      14     H     0.45100  0.45100  0.00000  0.09801
      15     H     0.44947  0.44947  0.00000  0.10105
      16     C     3.09045  3.09045  0.00000 -0.18091
      17     H     0.45105  0.45105  0.00000  0.09791
      18     H     0.44912  0.44912  0.00000  0.10177
      19     C     3.15242  3.15242  0.00000 -0.30484
      20     H     0.44863  0.44863  0.00000  0.10275
      21     H     0.45475  0.45475  0.00000  0.09051
      22     H     0.45558  0.45558  0.00000  0.08884
      23     H     0.44647  0.44647  0.00000  0.10707
      24     H     0.45315  0.45315  0.00000  0.09370

   Total alpha = 33.00000, Total beta = 33.00000, Total charge = -0.00000

*** Psi4 exiting successfully. Buy a developer a beer!
