                              Psi4 1.0.54 Driver

  ==> Input File <==

--------------------------------------------------------------------------
set {
	reference rhf
	basis cc-pvtz
}

set_num_threads( 4 )
memory 2 gb

molecule MOL {
0 1

H	 3.721907	 -0.933076	 -0.066039
O	 2.824271	 -1.154299	 0.131461
C	 2.076458	 -0.067370	 -0.038225
C	 0.626018	 -0.337582	 0.258241
O	 2.538288	 0.965419	 -0.381593
C	 -0.267326	 0.883135	 0.076490
H	 0.325620	 -1.161483	 -0.378003
H	 0.574537	 -0.713685	 1.275261
C	 -1.726822	 0.642622	 0.463839
H	 -0.210803	 1.217591	 -0.953497
H	 0.129920	 1.693110	 0.675679
C	 -2.480891	 -0.340606	 -0.429852
H	 -2.243098	 1.597649	 0.438609
H	 -1.776542	 0.301208	 1.495542
C	 -1.547944	 -1.223786	 -1.252092
H	 -3.118052	 -0.967478	 0.188284
H	 -3.141058	 0.195934	 -1.103840
H	 -2.106995	 -1.912551	 -1.874785
H	 -0.898142	 -1.809692	 -0.610867
H	 -0.917398	 -0.627074	 -1.902862

	symmetry c1
}
set optking {
	frozen_dihedral = ("
		16 12 9 6
	")
}

ee,wfn = optimize('scf', return_wfn=True)
oeprop( wfn, 'DIPOLE', 'QUADRUPOLE', 'MULLIKEN_CHARGES')
f=open( 'psi4out.xyz', 'w' )
f.write( "20  " )
f.write( str(ee) + "\n" )
f.write( MOL.save_string_xyz() )
f.close()
--------------------------------------------------------------------------

    Molecular point group: c1
  Charge       = 0
  Multiplicity = 1
  Basis Set: CC-PVTZ
  Basis Set:
  @DF-RHF Final Energy:  -384.06052484349306
    Total Energy =                       -384.0605248434928853
    Molecular point group: c1
  Basis Set: CC-PVTZ
  Basis Set:
  Basis Set: CC-PVTZ
  Basis Set:
  @DF-RHF Final Energy:  -384.07809640550863
    Total Energy =                       -384.0780964055089726
  Basis Set: CC-PVTZ
  Basis Set:
  Basis Set: CC-PVTZ
  Basis Set:
  @DF-RHF Final Energy:  -384.08216878970171
    Total Energy =                       -384.0821687897017682
  Basis Set: CC-PVTZ
  Basis Set:
  Basis Set: CC-PVTZ
  Basis Set:
  @DF-RHF Final Energy:  -384.07865780085774
    Total Energy =                       -384.0786578008584229
  Basis Set: CC-PVTZ
  Basis Set:
  @DF-RHF Final Energy:  -384.08330784616294
    Total Energy =                       -384.0833078461630521
  @DF-RHF Final Energy:  -384.08376296849843
    Total Energy =                       -384.0837629684983767
  @DF-RHF Final Energy:  -384.08371972987925
    Total Energy =                       -384.0837197298793626
  @DF-RHF Final Energy:  -384.08383429030209
    Total Energy =                       -384.0838342903018656
  Basis Set: CC-PVTZ
  Basis Set:
  @DF-RHF Final Energy:  -384.08384626503147
    Total Energy =                       -384.0838462650316387
  Basis Set: CC-PVTZ
  Basis Set:
  Basis Set: CC-PVTZ
  Basis Set:
  @DF-RHF Final Energy:  -384.08384885627106
    Total Energy =                       -384.0838488562707198
  Basis Set: CC-PVTZ
  Basis Set:
  Basis Set: CC-PVTZ
  Basis Set:
  @DF-RHF Final Energy:  -384.08385074108571
    Total Energy =                       -384.0838507410866214
  Basis Set: CC-PVTZ
  Basis Set:
  Charge       = 0
  Multiplicity = 1
  Basis Set: CC-PVTZ
  Basis Set:

    Orbital Energies (a.u.)
    -----------------------

    Doubly Occupied:

       1A    -20.603538     2A    -20.540159     3A    -11.372951
       4A    -11.237535     5A    -11.220953     6A    -11.219424
       7A    -11.218883     8A    -11.211584     9A     -1.477084
      10A     -1.368573    11A     -1.093636    12A     -1.037774
      13A     -0.963394    14A     -0.882432    15A     -0.811079
      16A     -0.771232    17A     -0.703094    18A     -0.690019
      19A     -0.669257    20A     -0.632695    21A     -0.620094
      22A     -0.590823    23A     -0.571769    24A     -0.558776
      25A     -0.535564    26A     -0.513073    27A     -0.510086
      28A     -0.483910    29A     -0.469378    30A     -0.457242
      31A     -0.455938    32A     -0.443625

  @DF-RHF Final Energy:  -384.08385087767823

   => Energetics <=

    Nuclear Repulsion Energy =            383.6391363105955747
    One-Electron Energy =               -1283.5748283108291616
    Two-Electron Energy =                 515.8518411225555838
    DFT Exchange-Correlation Energy =       0.0000000000000000
    Empirical Dispersion Energy =           0.0000000000000000
    PCM Polarization Energy =               0.0000000000000000
    EFP Energy =                            0.0000000000000000
    Total Energy =                       -384.0838508776779463
    Molecular point group: c1
  Basis Set: CC-PVTZ
  Basis Set:

  -Total Gradient:
     Atom            X                  Y                   Z
    ------   -----------------  -----------------  -----------------
       1        0.000011641500     0.000000398584     0.000001597342
       2       -0.000014297255     0.000010743695    -0.000011633458
       3       -0.000000681708    -0.000022541046     0.000010474928
       4        0.000003565702     0.000002790617    -0.000009221459
       5        0.000004526149     0.000009663515     0.000003297442
       6        0.000893201789    -0.002500187904     0.002102615313
       7       -0.000018173074    -0.000021827626    -0.000001798777
       8        0.000001220338     0.000006360996     0.000010638560
       9       -0.000616324531     0.003062443913    -0.002991365437
      10       -0.000003931080    -0.000000826774    -0.000003749705
      11       -0.000005800802    -0.000001028228    -0.000003113791
      12       -0.003540440464     0.002350265670     0.000275277051
      13       -0.000001775579    -0.000004873131    -0.000002047687
      14       -0.000001015016    -0.000000399540    -0.000001264558
      15       -0.000000393154     0.000012572481    -0.000004973350
      16        0.003266727444    -0.002910199865     0.000612293550
      17        0.000000206167    -0.000000289252     0.000001597067
      18        0.000004383270     0.000004662491     0.000005714655
      19        0.000014479261     0.000002638748     0.000002425389
      20        0.000002881052    -0.000000367344     0.000003236925

  **** Optimization is complete! (in 12 steps) ****
    Final optimized geometry and variables:
    Molecular point group: c1

    Geometry (in Angstrom), charge = 0, multiplicity = 1:

    H            3.524352561239    -0.420846149983     0.764446448536
    O            2.632338054590    -0.685263977772     0.932156528292
    C            1.817716468724     0.212262231237     0.383940297275
    C            0.371452640152    -0.138779894101     0.608689243710
    O            2.225113027274     1.156290533832    -0.200043521629
    C           -0.595878953966     0.870344438690     0.001538546971
    H            0.228387079170    -1.138593594098     0.222078496987
    H            0.227681929313    -0.213351827980     1.681901496554
    C           -2.075952059554     0.578951026711     0.285012595369
    H           -0.412766668000     0.958453062597    -1.061915976706
    H           -0.358629887709     1.842448888580     0.416234920727
    C           -2.826551580036    -0.445590828063    -0.606375895010
    H           -2.614244775290     1.517273232488     0.225873103491
    H           -2.158170021201     0.266944775952     1.322365998363
    C           -1.997580491377    -1.434384140196    -1.428257897806
    H           -3.473341252968    -1.037603958856     0.031676442626
    H           -3.471219252377     0.095381562257    -1.289552298731
    H           -2.656195594678    -2.025037925501    -2.054647591496
    H           -1.450576520887    -2.127737733162    -0.801023147815
    H           -1.289464498620    -0.939778133964    -2.081551836328

  Mulliken Charges: (a.u.)
   Center  Symbol    Alpha    Beta     Spin     Total
       1     H     0.38243  0.38243  0.00000  0.23515
       2     O     4.16099  4.16099  0.00000 -0.32198
       3     C     2.80365  2.80365  0.00000  0.39270
       4     C     3.10972  3.10972  0.00000 -0.21945
       5     O     4.19134  4.19134  0.00000 -0.38269
       6     C     3.10198  3.10198  0.00000 -0.20395
       7     H     0.43530  0.43530  0.00000  0.12940
       8     H     0.43725  0.43725  0.00000  0.12550
       9     C     3.10745  3.10745  0.00000 -0.21490
      10     H     0.44155  0.44155  0.00000  0.11690
      11     H     0.43660  0.43660  0.00000  0.12680
      12     C     3.08295  3.08295  0.00000 -0.16589
      13     H     0.44176  0.44176  0.00000  0.11649
      14     H     0.45532  0.45532  0.00000  0.08936
      15     C     3.16545  3.16545  0.00000 -0.33089
      16     H     0.45082  0.45082  0.00000  0.09837
      17     H     0.45014  0.45014  0.00000  0.09973
      18     H     0.44057  0.44057  0.00000  0.11885
      19     H     0.45435  0.45435  0.00000  0.09131
      20     H     0.45040  0.45040  0.00000  0.09920

   Total alpha = 32.00000, Total beta = 32.00000, Total charge = -0.00000

*** Psi4 exiting successfully. Buy a developer a beer!
