  ==> Input File <==

--------------------------------------------------------------------------
set {
	reference rhf
	basis cc-pvtz
}

set_num_threads( 4 )
memory 2 gb

molecule MOL {
0 1

H	 2.867672	 -0.456275	 0.875795
C	 2.403497	 -0.020426	 0.000000
N	 0.989899	 -0.304564	 0.000000
H	 2.867672	 -0.456275	 -0.875795
H	 2.620366	 1.051270	 0.000000
C	 0.695215	 -1.646646	 -0.457763
C	 0.229451	 0.670550	 -0.753948
H	 1.035333	 -1.801843	 -1.486343
H	 1.215423	 -2.360071	 0.170835
C	 -0.797311	 -1.905721	 -0.383684
H	 0.407912	 1.657327	 -0.342671
H	 0.534536	 0.689640	 -1.804806
C	 -1.251108	 0.351936	 -0.672259
H	 -1.036414	 -2.870399	 -0.808953
H	 -1.116389	 -1.898613	 0.656623
O	 -1.512140	 -0.949153	 -1.108350
H	 -1.818233	 1.019180	 -1.306122
H	 -1.593668	 0.475872	 0.353115

	symmetry c1
}
set optking {
	frozen_dihedral = ("
		6 3 2 5
	")
}

ee = optimize('scf')
oeprop('DIPOLE', 'QUADRUPOLE', 'MULLIKEN_CHARGES')
f=open( 'psi4out.xyz', 'w' )
f.write( "18  " )
f.write( str(ee) + "\n" )
f.write( MOL.save_string_xyz() )
f.close()
--------------------------------------------------------------------------

    Molecular point group: c1
  Charge       = 0
  Multiplicity = 1
  Basis Set: CC-PVTZ
  Basis Set:
  @DF-RHF Final Energy:  -325.14314709605685
    Total Energy =                       -325.1431470960573051
    Molecular point group: c1
  Basis Set: CC-PVTZ
  Basis Set:
  Basis Set: CC-PVTZ
  Basis Set:
  @DF-RHF Final Energy:  -325.14383477863760
    Total Energy =                       -325.1438347786379381
  Basis Set: CC-PVTZ
  Basis Set:
  Basis Set: CC-PVTZ
  Basis Set:
  @DF-RHF Final Energy:  -325.14392218908864
    Total Energy =                       -325.1439221890891531
  Basis Set: CC-PVTZ
  Basis Set:
  Charge       = 0
  Multiplicity = 1
  Basis Set: CC-PVTZ
  Basis Set:

    Orbital Energies (a.u.)
    -----------------------

    Doubly Occupied:

       1A    -20.547464     2A    -15.544708     3A    -11.264229
       4A    -11.264199     5A    -11.242684     6A    -11.242447
       7A    -11.239163     8A     -1.386485     9A     -1.233376
      10A     -1.038857    11A     -0.981798    12A     -0.883614
      13A     -0.869870    14A     -0.775344    15A     -0.685051
      16A     -0.646068    17A     -0.644906    18A     -0.634524
      19A     -0.630663    20A     -0.574031    21A     -0.557853
      22A     -0.542197    23A     -0.527032    24A     -0.501180
      25A     -0.484165    26A     -0.453778    27A     -0.410478
      28A     -0.356469

  @DF-RHF Final Energy:  -325.14392425364298

   => Energetics <=

    Nuclear Repulsion Energy =            341.8993175166562537
    One-Electron Energy =               -1119.7612170582142426
    Two-Electron Energy =                 452.7179752879145553
    DFT Exchange-Correlation Energy =       0.0000000000000000
    Empirical Dispersion Energy =           0.0000000000000000
    PCM Polarization Energy =               0.0000000000000000
    EFP Energy =                            0.0000000000000000
    Total Energy =                       -325.1439242536433767
    Molecular point group: c1
  Basis Set: CC-PVTZ
  Basis Set:

  -Total Gradient:
     Atom            X                  Y                   Z
    ------   -----------------  -----------------  -----------------
       1       -0.000008197586    -0.000011019711     0.000004617354
       2       -0.000092958322     0.000349901199     0.004422293553
       3        0.000328576326    -0.001609444919     0.003103227165
       4       -0.000001675669    -0.000015664876    -0.000030838511
       5       -0.000046658739    -0.000007448760    -0.004414651848
       6       -0.000105548611     0.001176872659    -0.003165320856
       7        0.000008690032    -0.000097257486     0.000140425044
       8        0.000027976815     0.000000140151    -0.000023153469
       9        0.000021497775    -0.000003519546     0.000002749433
      10       -0.000007971158     0.000157059120     0.000108067995
      11       -0.000019937853    -0.000001902980    -0.000020813158
      12       -0.000037411566     0.000003854019     0.000000873121
      13       -0.000050062546     0.000103391339    -0.000105312424
      14        0.000049004466     0.000036144774    -0.000004463362
      15       -0.000033100443    -0.000033836041     0.000036042132
      16       -0.000007872252    -0.000018110454    -0.000023088029
      17       -0.000059045831    -0.000003145670    -0.000008537560
      18        0.000034695159    -0.000026012820    -0.000022116585

  **** Optimization is complete! (in 4 steps) ****
    Final optimized geometry and variables:
    Molecular point group: c1

    Geometry (in Angstrom), charge = 0, multiplicity = 1:

    H            2.778082156621     0.070284133952     1.359190440801
    C            2.300367303968     0.513430479035     0.494195585560
    N            0.879578969980     0.242814962007     0.498574578624
    H            2.791901983630     0.124338862244    -0.400777060822
    H            2.475283136814     1.581121049243     0.500190565274
    C            0.582356694316    -1.096306613811     0.031640329827
    C            0.122793532061     1.212137018942    -0.270472260807
    H            0.919925341854    -1.239112088879    -0.999075128322
    H            1.106923424325    -1.816187027418     0.650395962221
    C           -0.909025637040    -1.359339985352     0.108458370597
    H            0.298166623692     2.202831722053     0.131635274334
    H            0.428465692738     1.220766660557    -1.321294258639
    C           -1.358932708210     0.897453777650    -0.188122924961
    H           -1.145321167808    -2.324735746703    -0.316941253069
    H           -1.227281489495    -1.353739911221     1.149072031268
    O           -1.625992903125    -0.404813581244    -0.616462796649
    H           -1.923883337201     1.563824550356    -0.825071435621
    H           -1.699744197187     1.028635364978     0.836997884996

  Mulliken Charges: (a.u.)
   Center  Symbol    Alpha    Beta     Spin     Total
       1     H     0.44866  0.44866  0.00000  0.10268
       2     C     3.09421  3.09421  0.00000 -0.18842
       3     N     3.61813  3.61813  0.00000 -0.23626
       4     H     0.46853  0.46853  0.00000  0.06293
       5     H     0.45369  0.45369  0.00000  0.09263
       6     C     3.04220  3.04220  0.00000 -0.08440
       7     C     3.03994  3.03994  0.00000 -0.07988
       8     H     0.46779  0.46779  0.00000  0.06443
       9     H     0.45413  0.45413  0.00000  0.09175
      10     C     2.98362  2.98362  0.00000  0.03277
      11     H     0.45392  0.45392  0.00000  0.09215
      12     H     0.46955  0.46955  0.00000  0.06090
      13     C     2.98427  2.98427  0.00000  0.03145
      14     H     0.44994  0.44994  0.00000  0.10011
      15     H     0.46749  0.46749  0.00000  0.06503
      16     O     4.18648  4.18648  0.00000 -0.37296
      17     H     0.44978  0.44978  0.00000  0.10044
      18     H     0.46767  0.46767  0.00000  0.06465

   Total alpha = 28.00000, Total beta = 28.00000, Total charge = -0.00000
