  ==> Input File <==

--------------------------------------------------------------------------
set {
	reference rhf
	basis 6-31G*
}

set_num_threads( 4 )
memory 2 gb

molecule MOL {
0 1

H	 -3.892951	 0.981613	 -0.358725
C	 -3.196921	 0.361773	 0.172313
C	 -2.076860	 -0.007332	 -0.404944
H	 -3.439953	 0.057760	 1.173024
O	 -0.873386	 0.113817	 0.214598
H	 -2.045808	 -0.442843	 -1.388083
C	 0.273449	 -0.132320	 -0.524345
C	 0.741000	 1.103348	 -1.259746
H	 0.133548	 -0.924927	 -1.250911
H	 1.053124	 -0.422629	 0.164359
F	 1.856678	 0.827967	 -1.919468
F	 -0.154321	 1.518383	 -2.140641
F	 0.990681	 2.102815	 -0.439310

	symmetry c1
}
set optking {
	frozen_dihedral = ("
		6 3 2 1
	")
}

ee = optimize('scf')
oeprop('DIPOLE', 'QUADRUPOLE', 'MULLIKEN_CHARGES')
f=open( 'psi4out.xyz', 'w' )
f.write( "13  " )
f.write( str(ee) + "\n" )
f.write( MOL.save_string_xyz() )
f.close()
--------------------------------------------------------------------------

    Molecular point group: c1
  Charge       = 0
  Multiplicity = 1
  Basis Set: 6-31G*
  Basis Set:
  @DF-RHF Final Energy:  -527.48047009942252
    Total Energy =                       -527.4804700994232007
    Molecular point group: c1
  Basis Set: 6-31G*
  Basis Set:
  Basis Set: 6-31G*
  Basis Set:
  @DF-RHF Final Energy:  -527.50267435779028
    Total Energy =                       -527.5026743577902835
  Basis Set: 6-31G*
  Basis Set:
  Basis Set: 6-31G*
  Basis Set:
  @DF-RHF Final Energy:  -527.51624946604875
    Total Energy =                       -527.5162494660488619
  Basis Set: 6-31G*
  Basis Set:
  Basis Set: 6-31G*
  Basis Set:
  @DF-RHF Final Energy:  -527.51716774100532
    Total Energy =                       -527.5171677410055509
  Basis Set: 6-31G*
  Basis Set:
  @DF-RHF Final Energy:  -527.51727243784148
    Total Energy =                       -527.5172724378415978
  @DF-RHF Final Energy:  -527.51732963899121
    Total Energy =                       -527.5173296389909865
  @DF-RHF Final Energy:  -527.51736086060964
    Total Energy =                       -527.5173608606095286
  @DF-RHF Final Energy:  -527.51271268409801
    Total Energy =                       -527.5127126840980054
  @DF-RHF Final Energy:  -527.44881341333496
    Total Energy =                       -527.4488134133351878
  @DF-RHF Final Energy:  -527.50654060024453
    Total Energy =                       -527.5065406002447617
  @DF-RHF Final Energy:  -527.51587604351630
    Total Energy =                       -527.5158760435157319
  @DF-RHF Final Energy:  -527.51586317828730
    Total Energy =                       -527.5158631782874181
  @DF-RHF Final Energy:  -527.51678038239902
    Total Energy =                       -527.5167803823990198
  @DF-RHF Final Energy:  -527.51639220736263
    Total Energy =                       -527.5163922073624008
  @DF-RHF Final Energy:  -527.51693486989871
    Total Energy =                       -527.5169348698984777
  @DF-RHF Final Energy:  -527.51624435988549
    Total Energy =                       -527.5162443598853770
  @DF-RHF Final Energy:  -527.51687685129514
    Total Energy =                       -527.5168768512951374
  @DF-RHF Final Energy:  -527.51736971545597
    Total Energy =                       -527.5173697154559704
  Basis Set: 6-31G*
  Basis Set:
  @DF-RHF Final Energy:  -527.51615919926633
    Total Energy =                       -527.5161591992664398
  Basis Set: 6-31G*
  Basis Set:
  Basis Set: 6-31G*
  Basis Set:
  @DF-RHF Final Energy:  -527.51732302852452
    Total Energy =                       -527.5173230285242880
  Basis Set: 6-31G*
  Basis Set:
  Basis Set: 6-31G*
  Basis Set:
  @DF-RHF Final Energy:  -527.51738927172823
    Total Energy =                       -527.5173892717280069
  Basis Set: 6-31G*
  Basis Set:
  Charge       = 0
  Multiplicity = 1
  Basis Set: 6-31G*
  Basis Set:

    Orbital Energies (a.u.)
    -----------------------

    Doubly Occupied:

       1A    -26.345490     2A    -26.344955     3A    -26.341359
       4A    -20.608149     5A    -11.504171     6A    -11.319063
       7A    -11.305678     8A    -11.218219     9A     -1.742700
      10A     -1.640861    11A     -1.639135    12A     -1.437587
      13A     -1.085754    14A     -1.014937    15A     -0.925693
      16A     -0.838057    17A     -0.831893    18A     -0.823817
      19A     -0.792354    20A     -0.723565    21A     -0.712181
      22A     -0.698068    23A     -0.675372    24A     -0.659777
      25A     -0.654651    26A     -0.644065    27A     -0.629757
      28A     -0.590311    29A     -0.561750    30A     -0.518514
      31A     -0.509529    32A     -0.350484

  @DF-RHF Final Energy:  -527.51738958408191

   => Energetics <=

    Nuclear Repulsion Energy =            411.8862479069151732
    One-Electron Energy =               -1547.4314768711869874
    Two-Electron Energy =                 608.0278393801899028
    DFT Exchange-Correlation Energy =       0.0000000000000000
    Empirical Dispersion Energy =           0.0000000000000000
    PCM Polarization Energy =               0.0000000000000000
    EFP Energy =                            0.0000000000000000
    Total Energy =                       -527.5173895840817977
    Molecular point group: c1
  Basis Set: 6-31G*
  Basis Set:

  -Total Gradient:
     Atom            X                  Y                   Z
    ------   -----------------  -----------------  -----------------
       1        0.003419670625     0.021867744625     0.009340710174
       2       -0.001466859943    -0.041321359198    -0.009725724520
       3       -0.009580991679     0.041529067547    -0.007668067641
       4        0.000034698745     0.000011691719     0.000011793189
       5       -0.000015740550    -0.000028017164     0.000014849265
       6        0.007565419734    -0.022073987507     0.008044034729
       7        0.000033628012    -0.000003996214     0.000031815741
       8       -0.000051140809    -0.000006363563     0.000008069355
       9       -0.000015795450     0.000011632235    -0.000008778452
      10        0.000005974061    -0.000008546571    -0.000002519041
      11        0.000026517936     0.000009853443    -0.000006395703
      12        0.000040607825     0.000026897388    -0.000014527351
      13        0.000004011507    -0.000014616744    -0.000025259745

  **** Optimization is complete! (in 22 steps) ****
    Final optimized geometry and variables:
    Molecular point group: c1

    Geometry (in Angstrom), charge = 0, multiplicity = 1:

    H           -4.083477949220    -0.381304256831     0.678891197147
    C           -3.130605613367    -0.694750898025     1.064674107104
    C           -2.017097175327    -0.567933907963     0.359926534756
    H           -3.042508014958    -0.605980526483     2.135186344819
    O           -0.825395294802    -0.472786175231     1.014886039135
    H           -1.905337825813    -0.900969268905    -0.657191331218
    C            0.328653736028    -0.882802549408     0.361182676659
    C            0.970506052742     0.262976729780    -0.387421530456
    H            0.145967698803    -1.688337462789    -0.340430807101
    H            1.030131904502    -1.225646989397     1.107780448189
    F            2.080056179117    -0.159185193147    -0.975368216703
    F            0.173681371635     0.741271841983    -1.329558297692
    F            1.288735679297     1.259758572348     0.412110856759

  Mulliken Charges: (a.u.)
   Center  Symbol    Alpha    Beta     Spin     Total
       1     H     0.40568  0.40568  0.00000  0.18863
       2     C     3.23041  3.23041  0.00000 -0.46081
       3     C     2.89843  2.89843  0.00000  0.20313
       4     H     0.40675  0.40675  0.00000  0.18650
       5     O     4.29961  4.29961  0.00000 -0.59922
       6     H     0.40758  0.40758  0.00000  0.18484
       7     C     3.06544  3.06544  0.00000 -0.13088
       8     C     2.45525  2.45525  0.00000  1.08949
       9     H     0.40442  0.40442  0.00000  0.19117
      10     H     0.38942  0.38942  0.00000  0.22116
      11     F     4.68274  4.68274  0.00000 -0.36547
      12     F     4.67986  4.67986  0.00000 -0.35973
      13     F     4.67440  4.67440  0.00000 -0.34881

   Total alpha = 32.00000, Total beta = 32.00000, Total charge = -0.00000
