                              Psi4 1.0.54 Driver

  ==> Input File <==

--------------------------------------------------------------------------
set {
	reference rhf
	basis cc-pvtz
}

set_num_threads( 4 )
memory 2 gb

molecule MOL {
0 1

H	 4.629452	 -2.190836	 0.241155
C	 4.090206	 -1.779621	 -0.604412
C	 2.637251	 -1.489794	 -0.243513
H	 4.601358	 -0.874678	 -0.914279
H	 4.158235	 -2.493472	 -1.419021
C	 1.842431	 -0.918527	 -1.415641
H	 2.607067	 -0.793926	 0.587027
H	 2.162487	 -2.406741	 0.098000
C	 0.382503	 -0.624325	 -1.085575
H	 2.315143	 -0.008929	 -1.764933
H	 1.869549	 -1.625513	 -2.239788
C	 0.166485	 0.574257	 -0.177158
H	 -0.166768	 -0.413235	 -1.999637
H	 -0.099703	 -1.493014	 -0.646969
C	 -1.180025	 0.697761	 0.509157
O	 1.008265	 1.399150	 -0.021491
C	 -2.285431	 -0.137488	 -0.145671
H	 -1.447360	 1.745713	 0.496200
H	 -1.065514	 0.394096	 1.546399
C	 -3.646545	 0.082747	 0.508954
H	 -2.348635	 0.118247	 -1.199806
H	 -2.034895	 -1.192387	 -0.096473
C	 -4.757412	 -0.737227	 -0.138149
H	 -3.900211	 1.137405	 0.459735
H	 -3.580878	 -0.166775	 1.564416
H	 -4.867876	 -0.486707	 -1.187777
H	 -4.549650	 -1.800049	 -0.072540
H	 -5.709585	 -0.556397	 0.346597

	symmetry c1
}
set optking {
	frozen_dihedral = ("
		16 12 15 17
	")
}

ee,wfn = optimize('scf', return_wfn=True)
oeprop( wfn, 'DIPOLE', 'QUADRUPOLE', 'MULLIKEN_CHARGES')
f=open( 'psi4out.xyz', 'w' )
f.write( "28  " )
f.write( str(ee) + "\n" )
f.write( MOL.save_string_xyz() )
f.close()
--------------------------------------------------------------------------

    Molecular point group: c1
  Charge       = 0
  Multiplicity = 1
  Basis Set: CC-PVTZ
  Basis Set:
  @DF-RHF Final Energy:  -426.31543948174988
    Total Energy =                       -426.3154394817505590
    Molecular point group: c1
  Basis Set: CC-PVTZ
  Basis Set:
  Basis Set: CC-PVTZ
  Basis Set:
  @DF-RHF Final Energy:  -426.31580200784572
    Total Energy =                       -426.3158020078449226
  Basis Set: CC-PVTZ
  Basis Set:
  Basis Set: CC-PVTZ
  Basis Set:
  @DF-RHF Final Energy:  -426.31771004807172
    Total Energy =                       -426.3177100480716035
  Basis Set: CC-PVTZ
  Basis Set:
  Basis Set: CC-PVTZ
  Basis Set:
  @DF-RHF Final Energy:  -426.31790922569894
    Total Energy =                       -426.3179092256991680
  Basis Set: CC-PVTZ
  Basis Set:
  @DF-RHF Final Energy:  -426.31794371444801
    Total Energy =                       -426.3179437144478925
  @DF-RHF Final Energy:  -426.31800215193300
    Total Energy =                       -426.3180021519328875
  Basis Set: CC-PVTZ
  Basis Set:
  @DF-RHF Final Energy:  -426.31801904571171
    Total Energy =                       -426.3180190457114804
  Basis Set: CC-PVTZ
  Basis Set:
  Basis Set: CC-PVTZ
  Basis Set:
  @DF-RHF Final Energy:  -426.31804530650129
    Total Energy =                       -426.3180453065015172
  Basis Set: CC-PVTZ
  Basis Set:
  Basis Set: CC-PVTZ
  Basis Set:
  @DF-RHF Final Energy:  -426.31805081957907
    Total Energy =                       -426.3180508195796392
  Basis Set: CC-PVTZ
  Basis Set:
  Charge       = 0
  Multiplicity = 1
  Basis Set: CC-PVTZ
  Basis Set:

    Orbital Energies (a.u.)
    -----------------------

    Doubly Occupied:

       1A    -20.534347     2A    -11.318127     3A    -11.228990
       4A    -11.228314     5A    -11.227643     6A    -11.223935
       7A    -11.214709     8A    -11.214134     9A    -11.209161
      10A    -11.202972    11A     -1.396040    12A     -1.096265
      13A     -1.078156    14A     -1.022699    15A     -0.991679
      16A     -0.907296    17A     -0.876536    18A     -0.809894
      19A     -0.800429    20A     -0.722244    21A     -0.666031
      22A     -0.660908    23A     -0.631323    24A     -0.618910
      25A     -0.609697    26A     -0.586830    27A     -0.583152
      28A     -0.573172    29A     -0.540721    30A     -0.534149
      31A     -0.520448    32A     -0.515372    33A     -0.491737
      34A     -0.488551    35A     -0.481349    36A     -0.475457
      37A     -0.469409    38A     -0.465617    39A     -0.456456
      40A     -0.393956

  @DF-RHF Final Energy:  -426.31805073523162

   => Energetics <=

    Nuclear Repulsion Energy =            532.2687207342219153
    One-Electron Energy =               -1633.0399141634784428
    Two-Electron Energy =                 674.4531426940246774
    DFT Exchange-Correlation Energy =       0.0000000000000000
    Empirical Dispersion Energy =           0.0000000000000000
    PCM Polarization Energy =               0.0000000000000000
    EFP Energy =                            0.0000000000000000
    Total Energy =                       -426.3180507352318500
    Molecular point group: c1
  Basis Set: CC-PVTZ
  Basis Set:

  -Total Gradient:
     Atom            X                  Y                   Z
    ------   -----------------  -----------------  -----------------
       1        0.000001021658    -0.000000405080    -0.000000466931
       2        0.000002188351    -0.000001273085     0.000001369172
       3       -0.000002964311     0.000007527881    -0.000001781209
       4       -0.000000116886    -0.000000619284     0.000000137372
       5       -0.000000927438     0.000001558661     0.000001468495
       6        0.000004018350    -0.000005177978     0.000004532990
       7        0.000002256836    -0.000002516414    -0.000004112874
       8       -0.000000959829     0.000000402927    -0.000000060646
       9       -0.000003517901    -0.000001227311    -0.000003440870
      10       -0.000000932872    -0.000004153217     0.000001357129
      11        0.000006253477    -0.000000869691    -0.000000066823
      12       -0.000608790329     0.000837949784    -0.001712085603
      13        0.000005453424    -0.000000360857    -0.000000203658
      14       -0.000002093789     0.000005620844    -0.000004058868
      15       -0.000103832898     0.001311108949    -0.000733524816
      16        0.000505082456    -0.001017045955     0.001564514571
      17        0.000196134804    -0.001123486221     0.000870681486
      18        0.000002178641    -0.000008060562    -0.000005633370
      19        0.000007559309     0.000015759865     0.000011100737
      20        0.000001777659    -0.000006559023     0.000002640698
      21       -0.000018898579     0.000002454069    -0.000000770583
      22        0.000008531592     0.000005058327    -0.000002491095
      23       -0.000000358296    -0.000011281408     0.000012156731
      24        0.000003490889    -0.000007185230    -0.000008925492
      25       -0.000002553726     0.000005062136     0.000005311886
      26        0.000002924253     0.000002844664     0.000004135442
      27       -0.000002914061    -0.000000792792    -0.000002157717
      28       -0.000000010780    -0.000004333996     0.000000373847

  **** Optimization is complete! (in 10 steps) ****
    Final optimized geometry and variables:
    Molecular point group: c1

    Geometry (in Angstrom), charge = 0, multiplicity = 1:

    H            4.997594384024    -1.748334724503     0.487794441490
    C            4.401993630754    -1.391338071292    -0.344497107333
    C            2.946946543889    -1.190979460092     0.065284146995
    H            4.839975280220    -0.460954991788    -0.689210507378
    H            4.488815379771    -2.115684001834    -1.148085625040
    C            2.073717073614    -0.702472019506    -1.088526082677
    H            2.898329166767    -0.480030606491     0.880934367319
    H            2.548037033263    -2.130271575000     0.441592729336
    C            0.609980277228    -0.493647320901    -0.713614475564
    H            2.475554603095     0.224402045474    -1.479445280697
    H            2.116542743556    -1.429583017524    -1.894416837472
    C            0.336821348182     0.740357239971     0.124345983689
    H            0.000135369650    -0.404984870242    -1.608680135175
    H            0.221059970395    -1.359516476921    -0.185164888293
    C           -1.055146239054     0.945804106188     0.705846352142
    O            1.189061529184     1.533432604954     0.365498166138
    C           -2.230873829713     0.226010667503     0.049066334947
    H           -1.221862548107     2.015383525543     0.727358953962
    H           -0.977502739849     0.633381923120     1.745228086346
    C           -3.556735609309     0.547862270708     0.734661209039
    H           -2.298340256940     0.507390781330    -0.998409514329
    H           -2.076027779801    -0.847415472661     0.069720154253
    C           -4.745846314197    -0.160292061818     0.094862731551
    H           -3.720815994046     1.621234747693     0.712061254260
    H           -3.493664523995     0.271694711845     1.783553393433
    H           -4.856016461495     0.122520604155    -0.946660885031
    H           -4.627492512725    -1.238046990551     0.133274239965
    H           -5.669462208459     0.088690027095     0.603972885643

  Mulliken Charges: (a.u.)
   Center  Symbol    Alpha    Beta     Spin     Total
       1     H     0.44876  0.44876  0.00000  0.10248
       2     C     3.15197  3.15197  0.00000 -0.30393
       3     C     3.08405  3.08405  0.00000 -0.16810
       4     H     0.45190  0.45190  0.00000  0.09619
       5     H     0.45730  0.45730  0.00000  0.08540
       6     C     3.08714  3.08714  0.00000 -0.17429
       7     H     0.44394  0.44394  0.00000  0.11213
       8     H     0.45934  0.45934  0.00000  0.08132
       9     C     3.13163  3.13163  0.00000 -0.26325
      10     H     0.44573  0.44573  0.00000  0.10855
      11     H     0.44791  0.44791  0.00000  0.10418
      12     C     2.87274  2.87274  0.00000  0.25453
      13     H     0.43141  0.43141  0.00000  0.13719
      14     H     0.44120  0.44120  0.00000  0.11760
      15     C     3.08722  3.08722  0.00000 -0.17444
      16     O     4.18134  4.18134  0.00000 -0.36268
      17     C     3.10152  3.10152  0.00000 -0.20304
      18     H     0.43647  0.43647  0.00000  0.12705
      19     H     0.44373  0.44373  0.00000  0.11254
      20     C     3.08650  3.08650  0.00000 -0.17300
      21     H     0.44959  0.44959  0.00000  0.10081
      22     H     0.44962  0.44962  0.00000  0.10075
      23     C     3.14930  3.14930  0.00000 -0.29859
      24     H     0.45084  0.45084  0.00000  0.09832
      25     H     0.45300  0.45300  0.00000  0.09401
      26     H     0.45433  0.45433  0.00000  0.09134
      27     H     0.45501  0.45501  0.00000  0.08999
      28     H     0.44653  0.44653  0.00000  0.10694

   Total alpha = 40.00000, Total beta = 40.00000, Total charge = -0.00000

*** Psi4 exiting successfully. Buy a developer a beer!
