  ==> Input File <==

--------------------------------------------------------------------------
set {
	reference rhf
	basis 6-31G*
}

set_num_threads( 1 )
memory 2 gb

molecule MOL {
0 1

H	 -1.019963	 -0.859516	 -1.003954
O	 -1.422729	 -0.573567	 -0.196946
C	 -0.731407	 0.539437	 0.309156
C	 0.680193	 0.672443	 -0.251532
H	 -1.319765	 1.404033	 0.030086
H	 -0.700012	 0.506517	 1.397677
C	 1.599139	 -0.492137	 0.118598
H	 0.616402	 0.758534	 -1.332349
H	 1.107032	 1.602637	 0.117369
H	 1.239738	 -1.428634	 -0.297334
H	 2.601428	 -0.335055	 -0.265730
H	 1.674954	 -0.608418	 1.197020

	symmetry c1
}
set optking {
	frozen_dihedral = ("
		8 4 3 2
	")
}

ee = energy('scf')
oeprop('DIPOLE', 'QUADRUPOLE', 'MULLIKEN_CHARGES')
f=open( 'psi4out.xyz', 'w' )
f.write( "12  " )
f.write( str(ee) + "\n" )
f.write( MOL.save_string_xyz() )
f.close()
--------------------------------------------------------------------------

    Molecular point group: c1

    Geometry (in Angstrom), charge = 0, multiplicity = 1:

       Center              X                  Y                   Z               Mass
    ------------   -----------------  -----------------  -----------------  -----------------
           H         -1.020817993710    -0.868024470716    -0.984074461702     1.007825032070
           O         -1.423583993710    -0.582075470716    -0.177066461702    15.994914619560
           C         -0.732261993710     0.530928529284     0.329035538298    12.000000000000
           C          0.679338006290     0.663934529284    -0.231652461702    12.000000000000
           H         -1.320619993710     1.395524529284     0.049965538298     1.007825032070
           H         -0.700866993710     0.498008529284     1.417556538298     1.007825032070
           C          1.598284006290    -0.500645470716     0.138477538298    12.000000000000
           H          0.615547006290     0.750025529284    -1.312469461702     1.007825032070
           H          1.106177006290     1.594128529284     0.137248538298     1.007825032070
           H          1.238883006290    -1.437142470716    -0.277454461702     1.007825032070
           H          2.600573006290    -0.343563470716    -0.245850461702     1.007825032070
           H          1.674099006290    -0.616926470716     1.216899538298     1.007825032070

  Charge       = 0
  Multiplicity = 1
  Basis Set: 6-31G*
  Basis Set:

    Orbital Energies (a.u.)
    -----------------------

    Doubly Occupied:

       1A    -20.550242     2A    -11.267335     3A    -11.227279
       4A    -11.217830     5A     -1.358973     6A     -1.054305
       7A     -0.926527     8A     -0.819632     9A     -0.660928
      10A     -0.648279    11A     -0.636931    12A     -0.574547
      13A     -0.544507    14A     -0.512852    15A     -0.494124
      16A     -0.464593    17A     -0.429630

  @DF-RHF Final Energy:  -193.10684432886151

   => Energetics <=

    Nuclear Repulsion Energy =            133.2370663123712404
    One-Electron Energy =                -525.9109105435377387
    Two-Electron Energy =                 199.5669999023049002
    DFT Exchange-Correlation Energy =       0.0000000000000000
    Empirical Dispersion Energy =           0.0000000000000000
    PCM Polarization Energy =               0.0000000000000000
    EFP Energy =                            0.0000000000000000
    Total Energy =                       -193.1068443288616265

  Mulliken Charges: (a.u.)
   Center  Symbol    Alpha    Beta     Spin     Total
       1     H     0.28032  0.28032  0.00000  0.43936
       2     O     4.37494  4.37494  0.00000 -0.74988
       3     C     2.97938  2.97938  0.00000  0.04124
       4     C     3.18550  3.18550  0.00000 -0.37100
       5     H     0.42564  0.42564  0.00000  0.14872
       6     H     0.42183  0.42183  0.00000  0.15633
       7     C     3.23877  3.23877  0.00000 -0.47755
       8     H     0.42271  0.42271  0.00000  0.15457
       9     H     0.41632  0.41632  0.00000  0.16736
      10     H     0.42036  0.42036  0.00000  0.15928
      11     H     0.41700  0.41700  0.00000  0.16600
      12     H     0.41722  0.41722  0.00000  0.16556

   Total alpha = 17.00000, Total beta = 17.00000, Total charge = -0.00000
