                              Psi4 1.0.54 Driver

  ==> Input File <==

--------------------------------------------------------------------------
set {
	reference rhf
	basis cc-pvtz
}

set_num_threads( 4 )
memory 2 gb

molecule MOL {
0 1

H	 3.889604	 0.356866	 -0.089510
N	 3.091268	 -0.241216	 -0.065538
C	 1.860978	 0.530248	 0.016256
H	 3.192566	 -0.835836	 0.730398
C	 0.644130	 -0.381765	 -0.031064
H	 1.835721	 1.204666	 -0.833114
H	 1.808789	 1.151975	 0.911067
C	 -0.678115	 0.376691	 0.025731
H	 0.693998	 -0.977147	 -0.936845
H	 0.693309	 -1.082142	 0.800523
C	 -1.898633	 -0.538633	 0.067199
H	 -0.753894	 1.032339	 -0.838756
H	 -0.688580	 1.024303	 0.899437
C	 -3.218653	 0.223401	 0.117443
H	 -1.889796	 -1.186820	 -0.804621
H	 -1.827263	 -1.192283	 0.932311
H	 -3.336012	 0.860738	 -0.752769
H	 -4.063484	 -0.455169	 0.145896
H	 -3.272722	 0.855536	 0.997681

	symmetry c1
}
set optking {
	frozen_dihedral = ("
		12 8 5 9
	")
}

ee,wfn = optimize('scf', return_wfn=True)
oeprop( wfn, 'DIPOLE', 'QUADRUPOLE', 'MULLIKEN_CHARGES')
f=open( 'psi4out.xyz', 'w' )
f.write( "19  " )
f.write( str(ee) + "\n" )
f.write( MOL.save_string_xyz() )
f.close()
--------------------------------------------------------------------------

    Molecular point group: c1
  Charge       = 0
  Multiplicity = 1
  Basis Set: CC-PVTZ
  Basis Set:
  @DF-RHF Final Energy:  -251.44809878090317
    Total Energy =                       -251.4480987809030808
    Molecular point group: c1
  Basis Set: CC-PVTZ
  Basis Set:
  Basis Set: CC-PVTZ
  Basis Set:
  @DF-RHF Final Energy:  -251.44810506069661
    Total Energy =                       -251.4481050606963208
  Basis Set: CC-PVTZ
  Basis Set:
  Basis Set: CC-PVTZ
  Basis Set:
  @DF-RHF Final Energy:  -251.44810728506405
    Total Energy =                       -251.4481072850639407
  Basis Set: CC-PVTZ
  Basis Set:
  Charge       = 0
  Multiplicity = 1
  Basis Set: CC-PVTZ
  Basis Set:

    Orbital Energies (a.u.)
    -----------------------

    Doubly Occupied:

       1A    -15.526380     2A    -11.237869     3A    -11.211869
       4A    -11.210464     5A    -11.207676     6A    -11.205446
       7A     -1.178139     8A     -1.074285     9A     -0.999601
      10A     -0.900941    11A     -0.813252    12A     -0.789578
      13A     -0.666015    14A     -0.643667    15A     -0.617404
      16A     -0.590348    17A     -0.565028    18A     -0.549072
      19A     -0.531562    20A     -0.498032    21A     -0.481392
      22A     -0.465004    23A     -0.461726    24A     -0.450782
      25A     -0.383783

  @DF-RHF Final Energy:  -251.44810737389227

   => Energetics <=

    Nuclear Repulsion Energy =            246.0648224876069037
    One-Electron Energy =                -826.5072266485626642
    Two-Electron Energy =                 328.9942967870635471
    DFT Exchange-Correlation Energy =       0.0000000000000000
    Empirical Dispersion Energy =           0.0000000000000000
    PCM Polarization Energy =               0.0000000000000000
    EFP Energy =                            0.0000000000000000
    Total Energy =                       -251.4481073738922419
    Molecular point group: c1
  Basis Set: CC-PVTZ
  Basis Set:

  -Total Gradient:
     Atom            X                  Y                   Z
    ------   -----------------  -----------------  -----------------
       1       -0.000003031664     0.000002371044     0.000003677790
       2       -0.000000717547    -0.000006445222     0.000006186504
       3       -0.000005675952     0.000003085111    -0.000004122031
       4        0.000001865463     0.000006598185    -0.000003823210
       5       -0.000403133966    -0.000720221318     0.000279401866
       6        0.000001888310    -0.000005296823     0.000008391246
       7        0.000009508558     0.000001525724    -0.000004920314
       8        0.000410849115     0.000691896358     0.000326081886
       9        0.000266410989     0.000484945414    -0.000309800257
      10       -0.000001054069     0.000012978571     0.000000500009
      11        0.000003553120     0.000001555208     0.000032246023
      12       -0.000266506339    -0.000457781765    -0.000325050320
      13       -0.000006833221    -0.000009562489     0.000002436070
      14       -0.000002873597    -0.000000424308    -0.000014208337
      15       -0.000000455933     0.000003434522     0.000004907096
      16       -0.000008390404    -0.000004496939     0.000001563715
      17        0.000000179602     0.000003645268     0.000002905943
      18        0.000000782746    -0.000000834972    -0.000004969485
      19        0.000003634790    -0.000006971569    -0.000001404196

  **** Optimization is complete! (in 4 steps) ****
    Final optimized geometry and variables:
    Molecular point group: c1

    Geometry (in Angstrom), charge = 0, multiplicity = 1:

    H            3.887919031125     0.359640347770    -0.137917883248
    N            3.090151996465    -0.239077508556    -0.110142747306
    C            1.860316253376     0.530967632378    -0.010786767893
    H            3.199822779236    -0.838719987473     0.680928078631
    C            0.643325978964    -0.381786973602    -0.050110496069
    H            1.825293938872     1.210247013042    -0.856003218875
    H            1.817385012087     1.147564993595     0.888017611463
    C           -0.678288659843     0.377911515137     0.006769148489
    H            0.691627441713    -0.976781374063    -0.956130753473
    H            0.696080283157    -1.079312045160     0.783480337869
    C           -1.899315677128    -0.537427643814     0.040662828252
    H           -0.752258307577     1.033147873221    -0.858041016051
    H           -0.692020557017     1.022740900589     0.882349873769
    C           -3.219586333237     0.224854564411     0.077594837508
    H           -1.883284822046    -1.188042774568    -0.829290147230
    H           -1.835363218359    -1.188542228692     0.908212976059
    H           -3.329923724982     0.859082980677    -0.795776148383
    H           -4.064719875762    -0.453548058001     0.101797007648
    H           -3.280495190576     0.860106896510     0.955155623579

  Mulliken Charges: (a.u.)
   Center  Symbol    Alpha    Beta     Spin     Total
       1     H     0.43024  0.43024  0.00000  0.13953
       2     N     3.68918  3.68918  0.00000 -0.37836
       3     C     3.02672  3.02672  0.00000 -0.05344
       4     H     0.43104  0.43104  0.00000  0.13792
       5     C     3.08169  3.08169  0.00000 -0.16338
       6     H     0.45720  0.45720  0.00000  0.08560
       7     H     0.46855  0.46855  0.00000  0.06290
       8     C     3.09313  3.09313  0.00000 -0.18626
       9     H     0.44875  0.44875  0.00000  0.10251
      10     H     0.46040  0.46040  0.00000  0.07921
      11     C     3.08339  3.08339  0.00000 -0.16677
      12     H     0.45473  0.45473  0.00000  0.09055
      13     H     0.45688  0.45688  0.00000  0.08624
      14     C     3.14986  3.14986  0.00000 -0.29972
      15     H     0.45385  0.45385  0.00000  0.09230
      16     H     0.45500  0.45500  0.00000  0.08999
      17     H     0.45518  0.45518  0.00000  0.08964
      18     H     0.44856  0.44856  0.00000  0.10289
      19     H     0.45566  0.45566  0.00000  0.08868

   Total alpha = 25.00000, Total beta = 25.00000, Total charge = -0.00000

*** Psi4 exiting successfully. Buy a developer a beer!
