  ==> Input File <==

--------------------------------------------------------------------------
set {
	reference rhf
	basis 6-31G*
}

set_num_threads( 4 )
memory 2 gb

molecule MOL {
0 1

O	 1.214711	 1.306902	 -0.000018
C	 1.122059	 0.121804	 -0.000188
C	 -0.170150	 -0.657997	 -0.000612
O	 2.172624	 -0.688929	 0.000216
C	 -1.412532	 0.227344	 -0.000452
H	 -0.153702	 -1.313099	 -0.867402
H	 -0.153924	 -1.313811	 0.865644
C	 -1.933352	 0.498552	 -1.412741
H	 -1.183452	 1.166258	 0.493985
H	 -2.188836	 -0.244650	 0.593751
C	 -3.178812	 1.383849	 -1.421756
H	 -1.151393	 0.970750	 -2.004051
H	 -2.158857	 -0.445580	 -1.904505
H	 -2.976163	 2.349251	 -0.967238
H	 -3.527234	 1.560879	 -2.434445
H	 -3.990998	 0.922529	 -0.867519
C	 3.452279	 -0.082609	 0.000533
H	 3.583069	 0.529321	 -0.880332
H	 4.163299	 -0.894027	 0.001117
H	 3.582335	 0.529955	 0.881077

	symmetry c1
}
set optking {
	frozen_dihedral = ("
		9 5 3 6
	")
}

ee = optimize('scf')
oeprop('DIPOLE', 'QUADRUPOLE', 'MULLIKEN_CHARGES')
f=open( 'psi4out.xyz', 'w' )
f.write( "20  " )
f.write( str(ee) + "\n" )
f.write( MOL.save_string_xyz() )
f.close()
--------------------------------------------------------------------------

    Molecular point group: c1
  Charge       = 0
  Multiplicity = 1
  Basis Set: 6-31G*
  Basis Set:
  @DF-RHF Final Energy:  -383.93915547771337
    Total Energy =                       -383.9391554777133706
    Molecular point group: c1
  Basis Set: 6-31G*
  Basis Set:
  Basis Set: 6-31G*
  Basis Set:
  @DF-RHF Final Energy:  -383.93948285843453
    Total Energy =                       -383.9394828584347579
  Basis Set: 6-31G*
  Basis Set:
  Basis Set: 6-31G*
  Basis Set:
  @DF-RHF Final Energy:  -383.93950428795154
    Total Energy =                       -383.9395042879514222
  Basis Set: 6-31G*
  Basis Set:
  Basis Set: 6-31G*
  Basis Set:
  @DF-RHF Final Energy:  -383.93939754656333
    Total Energy =                       -383.9393975465633275
  Basis Set: 6-31G*
  Basis Set:
  @DF-RHF Final Energy:  -383.93955373451377
    Total Energy =                       -383.9395537345137654
  Basis Set: 6-31G*
  Basis Set:
  @DF-RHF Final Energy:  -383.93955692641674
    Total Energy =                       -383.9395569264167989
  Basis Set: 6-31G*
  Basis Set:
  Basis Set: 6-31G*
  Basis Set:
  @DF-RHF Final Energy:  -383.93955840513752
    Total Energy =                       -383.9395584051375181
  Basis Set: 6-31G*
  Basis Set:
  Basis Set: 6-31G*
  Basis Set:
  @DF-RHF Final Energy:  -383.93955957572439
    Total Energy =                       -383.9395595757247293
  Basis Set: 6-31G*
  Basis Set:
  Charge       = 0
  Multiplicity = 1
  Basis Set: 6-31G*
  Basis Set:

    Orbital Energies (a.u.)
    -----------------------

    Doubly Occupied:

       1A    -20.604488     2A    -20.546582     3A    -11.373128
       4A    -11.281463     5A    -11.235798     6A    -11.218398
       7A    -11.215341     8A    -11.207202     9A     -1.470338
      10A     -1.363642    11A     -1.086254    12A     -1.022336
      13A     -0.968259    14A     -0.884350    15A     -0.804100
      16A     -0.766486    17A     -0.702311    18A     -0.681058
      19A     -0.672609    20A     -0.630233    21A     -0.607871
      22A     -0.587520    23A     -0.578406    24A     -0.544974
      25A     -0.530569    26A     -0.514909    27A     -0.513386
      28A     -0.475862    29A     -0.470290    30A     -0.461238
      31A     -0.456165    32A     -0.438438

  @DF-RHF Final Energy:  -383.93955968033947

   => Energetics <=

    Nuclear Repulsion Energy =            386.9113048524259284
    One-Electron Energy =               -1289.8737168760144414
    Two-Electron Energy =                 519.0228523432488146
    DFT Exchange-Correlation Energy =       0.0000000000000000
    Empirical Dispersion Energy =           0.0000000000000000
    PCM Polarization Energy =               0.0000000000000000
    EFP Energy =                            0.0000000000000000
    Total Energy =                       -383.9395596803396984
    Molecular point group: c1
  Basis Set: 6-31G*
  Basis Set:

  -Total Gradient:
     Atom            X                  Y                   Z
    ------   -----------------  -----------------  -----------------
       1       -0.000011497133    -0.000005811827     0.000000042513
       2        0.000012164406     0.000007622550     0.000000625319
       3       -0.002030489207    -0.002904306362     0.001610588471
       4        0.000002234598    -0.000005233928     0.000000239984
       5       -0.000803503470    -0.001107574028     0.003393775682
       6        0.001803443051     0.002562618702    -0.001861990149
       7        0.000006239177    -0.000001143606    -0.000000567694
       8        0.000018785645     0.000029441581     0.000003620278
       9        0.001022799817     0.001428882134    -0.003151403367
      10       -0.000001365391     0.000002091869     0.000007083086
      11       -0.000012847487    -0.000014830193    -0.000004466029
      12        0.000008480870    -0.000001348807    -0.000001313822
      13       -0.000002711277     0.000006406092     0.000004412996
      14        0.000005102155    -0.000001851776    -0.000006984506
      15       -0.000003273465    -0.000003005343     0.000000545057
      16       -0.000003188100     0.000006095950     0.000005646134
      17       -0.000006306494     0.000003995748    -0.000000008031
      18       -0.000000117958    -0.000000138745    -0.000001074994
      19       -0.000004184109    -0.000002093739     0.000000153258
      20        0.000000234369     0.000000183730     0.000001075812

  **** Optimization is complete! (in 9 steps) ****
    Final optimized geometry and variables:
    Molecular point group: c1

    Geometry (in Angstrom), charge = 0, multiplicity = 1:

    O            1.004002913421     1.031224844384     0.287945970763
    C            0.920192387384    -0.153318517112     0.348686545819
    C           -0.364073434955    -0.951393806039     0.385842731321
    O            1.978065996290    -0.953199539570     0.384042918630
    C           -1.623760167135    -0.079789261200     0.369075555165
    H           -0.326590971593    -1.607095729559    -0.479891285963
    H           -0.318975350994    -1.591467992609     1.260607406085
    C           -2.113207069565     0.230613401993    -1.048395871777
    H           -1.410218510685     0.859418931354     0.865533722274
    H           -2.413957557116    -0.577506926303     0.923616308634
    C           -3.343302363551     1.136126923836    -1.062629614832
    H           -1.309426765703     0.705275525320    -1.605093089941
    H           -2.343178632242    -0.699840952689    -1.564193306968
    H           -3.130510828061     2.090660212884    -0.590531649700
    H           -3.672567293892     1.334936201935    -2.077728935195
    H           -4.173023079757     0.680281169035    -0.529145285405
    C            3.252524709737    -0.336968437630     0.345732197679
    H            3.373364229795     0.229340463336    -0.566505835862
    H            3.970340403224    -1.141420152410     0.384395224157
    H            3.381836287743     0.321441025095     1.192596497909

  Mulliken Charges: (a.u.)
   Center  Symbol    Alpha    Beta     Spin     Total
       1     O     4.28638  4.28638  0.00000 -0.57276
       2     C     2.60956  2.60956  0.00000  0.78087
       3     C     3.20844  3.20844  0.00000 -0.41689
       4     O     4.30621  4.30621  0.00000 -0.61242
       5     C     3.15747  3.15747  0.00000 -0.31494
       6     H     0.39959  0.39959  0.00000  0.20081
       7     H     0.39718  0.39718  0.00000  0.20564
       8     C     3.15544  3.15544  0.00000 -0.31089
       9     H     0.40210  0.40210  0.00000  0.19580
      10     H     0.41914  0.41914  0.00000  0.16173
      11     C     3.24050  3.24050  0.00000 -0.48101
      12     H     0.41437  0.41437  0.00000  0.17127
      13     H     0.42525  0.42525  0.00000  0.14950
      14     H     0.41794  0.41794  0.00000  0.16413
      15     H     0.41892  0.41892  0.00000  0.16216
      16     H     0.42291  0.42291  0.00000  0.15418
      17     C     3.09226  3.09226  0.00000 -0.18451
      18     H     0.40908  0.40908  0.00000  0.18183
      19     H     0.40835  0.40835  0.00000  0.18330
      20     H     0.40890  0.40890  0.00000  0.18221

   Total alpha = 32.00000, Total beta = 32.00000, Total charge =  0.00000
