                              Psi4 1.0.54 Driver

  ==> Input File <==

--------------------------------------------------------------------------
set {
	reference rhf
	basis cc-pvtz
}

set_num_threads( 4 )
memory 2 gb

molecule MOL {
0 1

H	 1.183315	 -0.197171	 0.827837
C	 0.848385	 0.440008	 0.000011
C	 -0.623497	 0.751021	 0.000090
O	 1.624222	 0.826083	 -0.803897
C	 -1.523725	 -0.474323	 -0.000013
H	 -0.813143	 1.382932	 -0.864897
H	 -0.813071	 1.382716	 0.865253
H	 -1.342980	 -1.087348	 -0.873016
H	 -2.565269	 -0.177464	 0.000070
H	 -1.342898	 -1.087564	 0.872820

	symmetry c1
}
set optking {
	frozen_dihedral = ("
		4 2 3 6
	")
}

ee,wfn = optimize('scf', return_wfn=True)
oeprop( wfn, 'DIPOLE', 'QUADRUPOLE', 'MULLIKEN_CHARGES')
f=open( 'psi4out.xyz', 'w' )
f.write( "10  " )
f.write( str(ee) + "\n" )
f.write( MOL.save_string_xyz() )
f.close()
--------------------------------------------------------------------------

    Molecular point group: c1
  Charge       = 0
  Multiplicity = 1
  Basis Set: CC-PVTZ
  Basis Set:
  @DF-RHF Final Energy:  -192.02273143138552
    Total Energy =                       -192.0227314313855231
    Molecular point group: c1
  Basis Set: CC-PVTZ
  Basis Set:
  Basis Set: CC-PVTZ
  Basis Set:
  @DF-RHF Final Energy:  -192.02328233324081
    Total Energy =                       -192.0232823332407861
  Basis Set: CC-PVTZ
  Basis Set:
  Basis Set: CC-PVTZ
  Basis Set:
  @DF-RHF Final Energy:  -192.02332639894871
    Total Energy =                       -192.0233263989487114
  Basis Set: CC-PVTZ
  Basis Set:
  Basis Set: CC-PVTZ
  Basis Set:
  @DF-RHF Final Energy:  -192.02309679277374
    Total Energy =                       -192.0230967927736572
  Basis Set: CC-PVTZ
  Basis Set:
  Basis Set: CC-PVTZ
  Basis Set:
  @DF-RHF Final Energy:  -192.02334372079230
    Total Energy =                       -192.0233437207922407
  Basis Set: CC-PVTZ
  Basis Set:
  Charge       = 0
  Multiplicity = 1
  Basis Set: CC-PVTZ
  Basis Set:

    Orbital Energies (a.u.)
    -----------------------

    Doubly Occupied:

       1A    -20.553584     2A    -11.322714     3A    -11.238273
       4A    -11.232528     5A     -1.408513     6A     -1.068329
       7A     -0.905136     8A     -0.794523     9A     -0.677240
      10A     -0.644127    11A     -0.617571    12A     -0.569294
      13A     -0.545294    14A     -0.516492    15A     -0.499410
      16A     -0.415061

  @DF-RHF Final Energy:  -192.02334504940512

   => Energetics <=

    Nuclear Repulsion Energy =            117.6169791886956091
    One-Electron Energy =                -493.2644674934298337
    Two-Electron Energy =                 183.6241432553290736
    DFT Exchange-Correlation Energy =       0.0000000000000000
    Empirical Dispersion Energy =           0.0000000000000000
    PCM Polarization Energy =               0.0000000000000000
    EFP Energy =                            0.0000000000000000
    Total Energy =                       -192.0233450494051510
    Molecular point group: c1
  Basis Set: CC-PVTZ
  Basis Set:

  -Total Gradient:
     Atom            X                  Y                   Z
    ------   -----------------  -----------------  -----------------
       1       -0.000001632239     0.000004910736     0.000002007182
       2        0.000046039430     0.000134938491    -0.000033509201
       3       -0.000035261134    -0.000101873504    -0.000055829812
       4       -0.000057508417    -0.000083208069     0.000040914161
       5        0.000030628100     0.000035152280    -0.000017595551
       6        0.000024923834     0.000031687316     0.000042473405
       7        0.000010933645    -0.000008269264     0.000009481715
       8       -0.000011557134    -0.000007004913     0.000007734081
       9       -0.000003790436    -0.000005263312     0.000002189707
      10       -0.000002775650    -0.000001069759     0.000002134311

  **** Optimization is complete! (in 6 steps) ****
    Final optimized geometry and variables:
    Molecular point group: c1

    Geometry (in Angstrom), charge = 0, multiplicity = 1:

    H            1.071996687475    -0.569215264953     1.057136334734
    C            0.755616998344     0.059920018827     0.214369539345
    C           -0.707597907398     0.407788659353     0.194128141984
    O            1.544646639452     0.408614463011    -0.593508291052
    C           -1.587675522938    -0.842796928383     0.206734365789
    H           -0.902445148295     1.021372502346    -0.674676518779
    H           -0.911118149034     1.002678569896     1.081169423872
    H           -1.428474755319    -1.440210874912    -0.683005823566
    H           -2.634008311714    -0.569232732848     0.243003831043
    H           -1.378188046183    -1.464288715279     1.070317444288

  Mulliken Charges: (a.u.)
   Center  Symbol    Alpha    Beta     Spin     Total
       1     H     0.46643  0.46643  0.00000  0.06715
       2     C     2.90002  2.90002  0.00000  0.19995
       3     C     3.08055  3.08055  0.00000 -0.16109
       4     O     4.16366  4.16366  0.00000 -0.32732
       5     C     3.15098  3.15098  0.00000 -0.30195
       6     H     0.44197  0.44197  0.00000  0.11605
       7     H     0.45105  0.45105  0.00000  0.09790
       8     H     0.44747  0.44747  0.00000  0.10506
       9     H     0.44430  0.44430  0.00000  0.11140
      10     H     0.45357  0.45357  0.00000  0.09285

   Total alpha = 16.00000, Total beta = 16.00000, Total charge = -0.00000

*** Psi4 exiting successfully. Buy a developer a beer!
