  ==> Input File <==

--------------------------------------------------------------------------
set {
	reference rhf
	basis cc-pvtz
}

set_num_threads( 4 )
memory 2 gb

molecule MOL {
0 1

H	 -2.491473	 -0.923221	 0.466718
O	 -2.313989	 -0.142475	 -0.025864
C	 -0.943808	 -0.065018	 -0.330000
H	 -0.812293	 -0.225641	 -1.398673
C	 -0.231030	 -1.182113	 0.407592
C	 -0.353797	 1.300461	 0.050970
H	 -0.312800	 -0.992012	 1.473041
H	 -0.738841	 -2.119564	 0.220514
C	 1.246176	 -1.268044	 -0.015480
H	 -0.539537	 2.008579	 -0.751815
H	 -0.889989	 1.662858	 0.920677
C	 1.153605	 1.231851	 0.356834
H	 1.823096	 -1.684665	 0.802361
H	 1.352335	 -1.958223	 -0.845114
C	 1.826409	 0.100723	 -0.416008
H	 1.622968	 2.181508	 0.128734
H	 1.301983	 1.066493	 1.419367
H	 2.897299	 0.112407	 -0.249665
H	 1.683458	 0.265621	 -1.480024

	symmetry c1
}
set optking {
	frozen_dihedral = ("
		1 2 3 4
	")
}

ee = optimize('scf')
oeprop('DIPOLE', 'QUADRUPOLE', 'MULLIKEN_CHARGES')
f=open( 'psi4out.xyz', 'w' )
f.write( "19  " )
f.write( str(ee) + "\n" )
f.write( MOL.save_string_xyz() )
f.close()
--------------------------------------------------------------------------

    Molecular point group: c1
  Charge       = 0
  Multiplicity = 1
  Basis Set: CC-PVTZ
  Basis Set:
  @DF-RHF Final Energy:  -309.15986477172083
    Total Energy =                       -309.1598647717206632
    Molecular point group: c1
  Basis Set: CC-PVTZ
  Basis Set:
  Basis Set: CC-PVTZ
  Basis Set:
  @DF-RHF Final Energy:  -309.16117077283963
    Total Energy =                       -309.1611707728396823
  Basis Set: CC-PVTZ
  Basis Set:
  Basis Set: CC-PVTZ
  Basis Set:
  @DF-RHF Final Energy:  -309.16146787207464
    Total Energy =                       -309.1614678720744678
  Basis Set: CC-PVTZ
  Basis Set:
  Basis Set: CC-PVTZ
  Basis Set:
  @DF-RHF Final Energy:  -309.16147349931890
    Total Energy =                       -309.1614734993187312
  Basis Set: CC-PVTZ
  Basis Set:
  Charge       = 0
  Multiplicity = 1
  Basis Set: CC-PVTZ
  Basis Set:

    Orbital Energies (a.u.)
    -----------------------

    Doubly Occupied:

       1A    -20.540734     2A    -11.267191     3A    -11.219333
       4A    -11.218573     5A    -11.215083     6A    -11.213463
       7A    -11.206459     8A     -1.361195     9A     -1.111830
      10A     -1.005594    11A     -0.990114    12A     -0.853080
      13A     -0.833914    14A     -0.743884    15A     -0.686651
      16A     -0.665381    17A     -0.623463    18A     -0.606262
      19A     -0.577095    20A     -0.551119    21A     -0.531884
      22A     -0.522292    23A     -0.500317    24A     -0.491633
      25A     -0.466717    26A     -0.449557    27A     -0.427413
      28A     -0.414739

  @DF-RHF Final Energy:  -309.16147391266207

   => Energetics <=

    Nuclear Repulsion Energy =            331.9368890681092239
    One-Electron Energy =               -1077.6067795106928315
    Two-Electron Energy =                 436.5084165299213623
    DFT Exchange-Correlation Energy =       0.0000000000000000
    Empirical Dispersion Energy =           0.0000000000000000
    PCM Polarization Energy =               0.0000000000000000
    EFP Energy =                            0.0000000000000000
    Total Energy =                       -309.1614739126623022
    Molecular point group: c1
  Basis Set: CC-PVTZ
  Basis Set:

  -Total Gradient:
     Atom            X                  Y                   Z
    ------   -----------------  -----------------  -----------------
       1        0.000187659803     0.000539986519     0.000984086024
       2       -0.000236497455    -0.000459207186    -0.001245379908
       3        0.000059519300    -0.001029671993     0.000412569553
       4       -0.000009638028     0.000952319547    -0.000131395872
       5        0.000009121091     0.000003496745    -0.000024480784
       6        0.000016086408    -0.000003839085     0.000005533821
       7        0.000003670493    -0.000003068550    -0.000011673576
       8        0.000004163614     0.000002018112     0.000000652409
       9       -0.000012843552    -0.000008352394     0.000033836712
      10        0.000010107642     0.000007816444    -0.000007306378
      11        0.000001813095    -0.000004820780    -0.000001706563
      12       -0.000002214485     0.000011268045    -0.000013822534
      13        0.000018159576    -0.000012704820     0.000005860764
      14       -0.000005753289     0.000001927465     0.000003509660
      15       -0.000020833113     0.000009509265    -0.000016482251
      16       -0.000012324097     0.000009224929     0.000008103521
      17       -0.000003443872    -0.000001446366     0.000003671966
      18       -0.000008902198    -0.000019894764     0.000000770212
      19        0.000002149062     0.000005438866    -0.000006346776

  **** Optimization is complete! (in 5 steps) ****
    Final optimized geometry and variables:
    Molecular point group: c1

    Geometry (in Angstrom), charge = 0, multiplicity = 1:

    H           -2.582464123684    -0.838081801954     0.403290125918
    O           -2.330981098540    -0.066219976167    -0.067786562041
    C           -0.946072803623    -0.071913091514    -0.322523576398
    H           -0.814535365998    -0.224530755106    -1.390452082252
    C           -0.215829511896    -1.184673475097     0.411961620952
    C           -0.364412633614     1.295732041970     0.055692767942
    H           -0.286955025660    -0.998238007220     1.480302901940
    H           -0.705207637512    -2.136161235293     0.226166135243
    C            1.259376277901    -1.260437616232    -0.021281198828
    H           -0.569235327442     1.998242992560    -0.744274697438
    H           -0.899233362238     1.653522667733     0.926856535233
    C            1.146137936661     1.238565801059     0.346675553975
    H            1.845222336663    -1.669419187243     0.793999579129
    H            1.362868646847    -1.952934391024    -0.848960244133
    C            1.822356971900     0.112582237172    -0.430566163560
    H            1.605843425150     2.191271685199     0.112218987065
    H            1.309124399632     1.076574545751     1.408119621188
    H            2.894550938770     0.131795858769    -0.274008032805
    H            1.667415383361     0.272744780851    -1.493221913980

  Mulliken Charges: (a.u.)
   Center  Symbol    Alpha    Beta     Spin     Total
       1     H     0.39162  0.39162  0.00000  0.21675
       2     O     4.20940  4.20940  0.00000 -0.41880
       3     C     2.92582  2.92582  0.00000  0.14836
       4     H     0.45687  0.45687  0.00000  0.08625
       5     C     3.11426  3.11426  0.00000 -0.22852
       6     C     3.10826  3.10826  0.00000 -0.21653
       7     H     0.45208  0.45208  0.00000  0.09584
       8     H     0.44693  0.44693  0.00000  0.10614
       9     C     3.11327  3.11327  0.00000 -0.22653
      10     H     0.44645  0.44645  0.00000  0.10710
      11     H     0.44640  0.44640  0.00000  0.10720
      12     C     3.10154  3.10154  0.00000 -0.20308
      13     H     0.44703  0.44703  0.00000  0.10595
      14     H     0.44634  0.44634  0.00000  0.10731
      15     C     3.10189  3.10189  0.00000 -0.20377
      16     H     0.44189  0.44189  0.00000  0.11622
      17     H     0.45440  0.45440  0.00000  0.09120
      18     H     0.44273  0.44273  0.00000  0.11455
      19     H     0.45283  0.45283  0.00000  0.09435

   Total alpha = 28.00000, Total beta = 28.00000, Total charge = -0.00000
