  ==> Input File <==

--------------------------------------------------------------------------
set {
	reference rhf
	basis 6-31G*
}

set_num_threads( 1 )
memory 2 gb

molecule MOL {
0 1

H	 -3.420663	 1.227371	 -1.044276
O	 -3.452007	 0.283848	 -0.965577
C	 -3.181085	 -0.079926	 0.364119
C	 -1.765924	 0.277073	 0.805136
H	 -3.327791	 -1.152017	 0.410903
H	 -3.905698	 0.375695	 1.036898
C	 -0.677594	 -0.417312	 -0.014550
H	 -1.637766	 1.358238	 0.744969
H	 -1.659588	 0.017670	 1.857098
C	 -0.370942	 0.296933	 -1.332502
H	 -0.979888	 -1.440808	 -0.214010
H	 0.230824	 -0.478425	 0.582471
C	 0.723530	 -0.400663	 -2.144646
H	 -1.283892	 0.363330	 -1.919471
H	 -0.065330	 1.321970	 -1.126334
C	 1.128831	 0.326066	 -3.432183
H	 0.400400	 -1.411141	 -2.390036
H	 1.606070	 -0.509329	 -1.517645
C	 0.032052	 0.393395	 -4.496582
H	 1.993621	 -0.179472	 -3.855101
H	 1.457286	 1.334342	 -3.187844
H	 -0.325063	 -0.600777	 -4.751985
H	 0.405661	 0.852998	 -5.406537
H	 -0.820890	 0.976305	 -4.165115

	symmetry c1
}
set optking {
	frozen_dihedral = ("
		20 16 13 17,
		17 13 10 7,
		13 10 7 11,
		1 2 3 5,
		7 4 3 2
	")
}

ee = energy('scf')
oeprop('DIPOLE', 'QUADRUPOLE', 'MULLIKEN_CHARGES')
f=open( 'psi4out.xyz', 'w' )
f.write( "24  " )
f.write( str(ee) + "\n" )
f.write( MOL.save_string_xyz() )
f.close()
--------------------------------------------------------------------------

    Molecular point group: c1

    Geometry (in Angstrom), charge = 0, multiplicity = 1:

       Center              X                  Y                   Z               Mass
    ------------   -----------------  -----------------  -----------------  -----------------
           H         -2.421959830490     1.129550270261     0.364610271376     1.007825032070
           O         -2.453303830490     0.186027270261     0.443309271376    15.994914619560
           C         -2.182381830490    -0.177746729739     1.773005271376    12.000000000000
           C         -0.767220830490     0.179252270261     2.214022271376    12.000000000000
           H         -2.329087830490    -1.249837729739     1.819789271376     1.007825032070
           H         -2.906994830490     0.277874270261     2.445784271376     1.007825032070
           C          0.321109169510    -0.515132729739     1.394336271376    12.000000000000
           H         -0.639062830490     1.260417270261     2.153855271376     1.007825032070
           H         -0.660884830490    -0.080150729739     3.265984271376     1.007825032070
           C          0.627761169510     0.199112270261     0.076384271376    12.000000000000
           H          0.018815169510    -1.538628729739     1.194876271376     1.007825032070
           H          1.229527169510    -0.576245729739     1.991357271376     1.007825032070
           C          1.722233169510    -0.498483729739    -0.735759728624    12.000000000000
           H         -0.285188830490     0.265509270261    -0.510584728624     1.007825032070
           H          0.933373169510     1.224149270261     0.282552271376     1.007825032070
           C          2.127534169510     0.228245270261    -2.023296728624    12.000000000000
           H          1.399103169510    -1.508961729739    -0.981149728624     1.007825032070
           H          2.604773169510    -0.607149729739    -0.108758728624     1.007825032070
           C          1.030755169510     0.295574270261    -3.087695728624    12.000000000000
           H          2.992324169510    -0.277292729739    -2.446214728624     1.007825032070
           H          2.455989169510     1.236521270261    -1.778957728624     1.007825032070
           H          0.673640169510    -0.698597729739    -3.343098728624     1.007825032070
           H          1.404364169510     0.755177270261    -3.997650728624     1.007825032070
           H          0.177813169510     0.878484270261    -2.756228728624     1.007825032070

  Charge       = 0
  Multiplicity = 1
  Basis Set: 6-31G*
  Basis Set:

    Orbital Energies (a.u.)
    -----------------------

    Doubly Occupied:

       1A    -20.555883     2A    -11.268842     3A    -11.217487
       4A    -11.211873     5A    -11.210663     6A    -11.207207
       7A    -11.203863     8A    -11.203250     9A     -1.363176
      10A     -1.085414    11A     -1.046658    12A     -0.982597
      13A     -0.913261    14A     -0.850999    15A     -0.798472
      16A     -0.772661    17A     -0.681757    18A     -0.649491
      19A     -0.633371    20A     -0.609388    21A     -0.600763
      22A     -0.575577    23A     -0.550555    24A     -0.534924
      25A     -0.525401    26A     -0.509770    27A     -0.490017
      28A     -0.485083    29A     -0.469553    30A     -0.456882
      31A     -0.453071    32A     -0.436565    33A     -0.414762

  @DF-RHF Final Energy:  -349.24406017459370

   => Energetics <=

    Nuclear Repulsion Energy =            396.9641209079745181
    One-Electron Energy =               -1260.4780364160972113
    Two-Electron Energy =                 514.2698553335291081
    DFT Exchange-Correlation Energy =       0.0000000000000000
    Empirical Dispersion Energy =           0.0000000000000000
    PCM Polarization Energy =               0.0000000000000000
    EFP Energy =                            0.0000000000000000
    Total Energy =                       -349.2440601745935282

  Mulliken Charges: (a.u.)
   Center  Symbol    Alpha    Beta     Spin     Total
       1     H     0.28287  0.28287  0.00000  0.43426
       2     O     4.36657  4.36657  0.00000 -0.73314
       3     C     2.99661  2.99661  0.00000  0.00677
       4     C     3.17209  3.17209  0.00000 -0.34418
       5     H     0.41586  0.41586  0.00000  0.16828
       6     H     0.42817  0.42817  0.00000  0.14366
       7     C     3.15101  3.15101  0.00000 -0.30203
       8     H     0.42682  0.42682  0.00000  0.14636
       9     H     0.41963  0.41963  0.00000  0.16074
      10     C     3.16189  3.16189  0.00000 -0.32379
      11     H     0.42046  0.42046  0.00000  0.15908
      12     H     0.42194  0.42194  0.00000  0.15611
      13     C     3.15209  3.15209  0.00000 -0.30418
      14     H     0.40308  0.40308  0.00000  0.19384
      15     H     0.43017  0.43017  0.00000  0.13966
      16     C     3.15207  3.15207  0.00000 -0.30414
      17     H     0.42388  0.42388  0.00000  0.15224
      18     H     0.42499  0.42499  0.00000  0.15001
      19     C     3.24021  3.24021  0.00000 -0.48043
      20     H     0.42208  0.42208  0.00000  0.15584
      21     H     0.42501  0.42501  0.00000  0.14997
      22     H     0.42127  0.42127  0.00000  0.15746
      23     H     0.42091  0.42091  0.00000  0.15818
      24     H     0.42030  0.42030  0.00000  0.15941

   Total alpha = 33.00000, Total beta = 33.00000, Total charge =  0.00000
