  ==> Input File <==

--------------------------------------------------------------------------
set {
	reference rhf
	basis 6-31G*
}

set_num_threads( 4 )
memory 2 gb

molecule MOL {
0 1

H	 -3.042581	 -0.665861	 0.004336
O	 -2.245037	 -1.176175	 0.000806
C	 -1.162163	 -0.365336	 0.001020
C	 0.121154	 -0.839420	 -0.203118
C	 -1.383789	 0.988709	 0.220731
H	 0.294760	 -1.889039	 -0.370844
C	 1.181303	 0.055947	 -0.185366
H	 -2.393350	 1.322125	 0.378008
C	 -0.326076	 1.880951	 0.236945
H	 2.180829	 -0.309625	 -0.341388
C	 0.968062	 1.402095	 0.032320
C	 -0.568228	 3.356849	 0.451860
H	 1.800549	 2.083357	 0.045673
H	 0.162431	 3.777733	 1.134345
H	 -1.554890	 3.540590	 0.860024
H	 -0.490634	 3.900265	 -0.485703

	symmetry c1
}
set optking {
	frozen_dihedral = ("
		5 3 2 1
	")
}

ee = optimize('scf')
oeprop('DIPOLE', 'QUADRUPOLE', 'MULLIKEN_CHARGES')
f=open( 'psi4out.xyz', 'w' )
f.write( "16  " )
f.write( str(ee) + "\n" )
f.write( MOL.save_string_xyz() )
f.close()
--------------------------------------------------------------------------

    Molecular point group: c1
  Charge       = 0
  Multiplicity = 1
  Basis Set: 6-31G*
  Basis Set:
  @DF-RHF Final Energy:  -344.59284302474578
    Total Energy =                       -344.5928430247458891
    Molecular point group: c1
  Basis Set: 6-31G*
  Basis Set:
  Basis Set: 6-31G*
  Basis Set:
  @DF-RHF Final Energy:  -344.59472103492305
    Total Energy =                       -344.5947210349228271
  Basis Set: 6-31G*
  Basis Set:
  Basis Set: 6-31G*
  Basis Set:
  @DF-RHF Final Energy:  -344.59489020420796
    Total Energy =                       -344.5948902042081272
  Basis Set: 6-31G*
  Basis Set:
  Basis Set: 6-31G*
  Basis Set:
  @DF-RHF Final Energy:  -344.59491361709081
    Total Energy =                       -344.5949136170908673
  Basis Set: 6-31G*
  Basis Set:
  @DF-RHF Final Energy:  -344.59492113300882
    Total Energy =                       -344.5949211330088247
  @DF-RHF Final Energy:  -344.59492565150640
    Total Energy =                       -344.5949256515065144
  @DF-RHF Final Energy:  -344.59495105599706
    Total Energy =                       -344.5949510559970577
  @DF-RHF Final Energy:  -344.59496626637616
    Total Energy =                       -344.5949662663758204
  Basis Set: 6-31G*
  Basis Set:
  @DF-RHF Final Energy:  -344.59500010015267
    Total Energy =                       -344.5950001001530723
  Basis Set: 6-31G*
  Basis Set:
  Basis Set: 6-31G*
  Basis Set:
  @DF-RHF Final Energy:  -344.59502357386913
    Total Energy =                       -344.5950235738686729
  Basis Set: 6-31G*
  Basis Set:
  Basis Set: 6-31G*
  Basis Set:
  @DF-RHF Final Energy:  -344.59502932832277
    Total Energy =                       -344.5950293283225392
  Basis Set: 6-31G*
  Basis Set:
  Charge       = 0
  Multiplicity = 1
  Basis Set: 6-31G*
  Basis Set:

    Orbital Energies (a.u.)
    -----------------------

    Doubly Occupied:

       1A    -20.589000     2A    -11.296239     3A    -11.243497
       4A    -11.232750     5A    -11.223120     6A    -11.221822
       7A    -11.217243     8A    -11.216186     9A     -1.407547
      10A     -1.149809    11A     -1.044177    12A     -1.003256
      13A     -0.938401    14A     -0.840973    15A     -0.798971
      16A     -0.727829    17A     -0.680112    18A     -0.647485
      19A     -0.598172    20A     -0.591800    21A     -0.577778
      22A     -0.570351    23A     -0.567187    24A     -0.535005
      25A     -0.503984    26A     -0.481963    27A     -0.467160
      28A     -0.329658    29A     -0.305681

  @DF-RHF Final Energy:  -344.59502941837360

   => Energetics <=

    Nuclear Repulsion Energy =            345.5848730583786050
    One-Electron Energy =               -1152.3454922901210011
    Two-Electron Energy =                 462.1655898133687970
    DFT Exchange-Correlation Energy =       0.0000000000000000
    Empirical Dispersion Energy =           0.0000000000000000
    PCM Polarization Energy =               0.0000000000000000
    EFP Energy =                            0.0000000000000000
    Total Energy =                       -344.5950294183735423
    Molecular point group: c1
  Basis Set: 6-31G*
  Basis Set:

  -Total Gradient:
     Atom            X                  Y                   Z
    ------   -----------------  -----------------  -----------------
       1        0.000066038967     0.000014433681    -0.000977222548
       2       -0.000050663567    -0.000076738425     0.001600575283
       3        0.000000542365     0.000089139808    -0.001284677114
       4        0.000024577410    -0.000006622630     0.000012287584
       5       -0.000005700375    -0.000055622131     0.000787919557
       6       -0.000058752131    -0.000008845767    -0.000025226597
       7        0.000027758802     0.000106779541     0.000093907957
       8        0.000034296228     0.000003955633    -0.000072112374
       9       -0.000127116736    -0.000013470291    -0.000158475189
      10       -0.000011240263    -0.000006916842    -0.000014762137
      11        0.000071872532    -0.000126259617    -0.000017817518
      12       -0.000064588095     0.000006782281    -0.000107873600
      13       -0.000022583554     0.000061718518    -0.000055622029
      14        0.000054566117     0.000013473030     0.000069751988
      15       -0.000006992543     0.000001349143     0.000057475466
      16        0.000067984847    -0.000003155929     0.000091871272

  **** Optimization is complete! (in 12 steps) ****
    Final optimized geometry and variables:
    Molecular point group: c1

    Geometry (in Angstrom), charge = 0, multiplicity = 1:

    H           -2.548455930295    -1.423425111182    -0.200856304528
    O           -1.717375492060    -1.875945997350    -0.168132925052
    C           -0.695528005902    -0.990896356917    -0.108183069551
    C            0.593034239673    -1.491078817442    -0.248068710768
    C           -0.901430534693     0.360301286408     0.104075247539
    H            0.732175994602    -2.543786319452    -0.408512509740
    C            1.658830663041    -0.618935016363    -0.176105982492
    H           -1.906308494593     0.733952130076     0.220119619259
    C            0.175595273913     1.241175956620     0.171806924738
    H            2.659384477669    -0.999039681151    -0.283198617802
    C            1.459701355882     0.740559346015     0.031088149253
    C           -0.070765697975     2.716260598890     0.387747658923
    H            2.304154191623     1.404345346180     0.083062441388
    H            0.851707445894     3.239887727215     0.608779059190
    H           -0.756058897768     2.883138667217     1.212650943155
    H           -0.507063092598     3.171279916023    -0.496848395810

  Mulliken Charges: (a.u.)
   Center  Symbol    Alpha    Beta     Spin     Total
       1     H     0.27200  0.27200  0.00000  0.45600
       2     O     4.37932  4.37932  0.00000 -0.75864
       3     C     2.78892  2.78892  0.00000  0.42216
       4     C     3.12758  3.12758  0.00000 -0.25517
       5     C     3.15710  3.15710  0.00000 -0.31420
       6     H     0.39258  0.39258  0.00000  0.21484
       7     C     3.08753  3.08753  0.00000 -0.17505
       8     H     0.40779  0.40779  0.00000  0.18443
       9     C     2.96868  2.96868  0.00000  0.06264
      10     H     0.39847  0.39847  0.00000  0.20305
      11     C     3.12848  3.12848  0.00000 -0.25696
      12     C     3.25499  3.25499  0.00000 -0.50998
      13     H     0.40332  0.40332  0.00000  0.19335
      14     H     0.41138  0.41138  0.00000  0.17724
      15     H     0.41198  0.41198  0.00000  0.17603
      16     H     0.40987  0.40987  0.00000  0.18026

   Total alpha = 29.00000, Total beta = 29.00000, Total charge =  0.00000
