  ==> Input File <==

--------------------------------------------------------------------------
set {
	reference rhf
	basis 6-31G*
}

set_num_threads( 4 )
memory 2 gb

molecule MOL {
0 1

H	 0.530236	 1.866351	 0.428761
O	 0.055946	 1.300438	 -0.164479
C	 0.004957	 -0.004114	 0.366649
C	 1.201664	 -0.828089	 -0.095740
C	 -1.317755	 -0.601827	 -0.081511
H	 0.013527	 0.048298	 1.454924
H	 1.216388	 -0.895289	 -1.178704
H	 2.135132	 -0.372895	 0.226467
H	 1.166770	 -1.832878	 0.313827
H	 -1.355732	 -0.658248	 -1.164429
H	 -2.141614	 0.017037	 0.254547
H	 -1.447303	 -1.600817	 0.322594

	symmetry c1
}
set optking {
	frozen_dihedral = ("
		1 2 3 4
	")
}

ee = optimize('scf')
oeprop('DIPOLE', 'QUADRUPOLE', 'MULLIKEN_CHARGES')
f=open( 'psi4out.xyz', 'w' )
f.write( "12  " )
f.write( str(ee) + "\n" )
f.write( MOL.save_string_xyz() )
f.close()
--------------------------------------------------------------------------

    Molecular point group: c1
  Charge       = 0
  Multiplicity = 1
  Basis Set: 6-31G*
  Basis Set:
  @DF-RHF Final Energy:  -193.11409610275749
    Total Energy =                       -193.1140961027574861
    Molecular point group: c1
  Basis Set: 6-31G*
  Basis Set:
  Basis Set: 6-31G*
  Basis Set:
  @DF-RHF Final Energy:  -193.11417673969677
    Total Energy =                       -193.1141767396968021
  Basis Set: 6-31G*
  Basis Set:
  Basis Set: 6-31G*
  Basis Set:
  @DF-RHF Final Energy:  -193.11419687965511
    Total Energy =                       -193.1141968796551964
  Basis Set: 6-31G*
  Basis Set:
  Charge       = 0
  Multiplicity = 1
  Basis Set: 6-31G*
  Basis Set:

    Orbital Energies (a.u.)
    -----------------------

    Doubly Occupied:

       1A    -20.550309     2A    -11.276075     3A    -11.208031
       4A    -11.205948     5A     -1.359083     6A     -1.040942
       7A     -0.935924     8A     -0.799114     9A     -0.708801
      10A     -0.612681    11A     -0.599513    12A     -0.551723
      13A     -0.537686    14A     -0.523966    15A     -0.506500
      16A     -0.465147    17A     -0.429157

  @DF-RHF Final Energy:  -193.11419713999098

   => Energetics <=

    Nuclear Repulsion Energy =            135.3959145380249254
    One-Electron Energy =                -530.3990296850497543
    Two-Electron Energy =                 201.8889180070339364
    DFT Exchange-Correlation Energy =       0.0000000000000000
    Empirical Dispersion Energy =           0.0000000000000000
    PCM Polarization Energy =               0.0000000000000000
    EFP Energy =                            0.0000000000000000
    Total Energy =                       -193.1141971399908641
    Molecular point group: c1
  Basis Set: 6-31G*
  Basis Set:

  -Total Gradient:
     Atom            X                  Y                   Z
    ------   -----------------  -----------------  -----------------
       1       -0.001742883901     0.000466088677     0.000919210907
       2        0.001860414918    -0.000723810874    -0.001515952173
       3        0.000559343235     0.000743209909     0.001582937895
       4       -0.000672023192    -0.000432431464    -0.000993570937
       5        0.000005605195    -0.000018157603     0.000022656427
       6       -0.000011025821    -0.000014951811    -0.000007125603
       7        0.000022679803     0.000004272642    -0.000001984742
       8       -0.000042491493     0.000010684540     0.000008319124
       9       -0.000001254078    -0.000038684868    -0.000017171947
      10        0.000009018090     0.000008610848    -0.000001409715
      11        0.000003931781    -0.000000019673     0.000005486694
      12        0.000008685463    -0.000004810323    -0.000001395930

  **** Optimization is complete! (in 4 steps) ****
    Final optimized geometry and variables:
    Molecular point group: c1

    Geometry (in Angstrom), charge = 0, multiplicity = 1:

    H            0.551313952957     1.867144096945     0.407939330814
    O            0.074275337349     1.297982189062    -0.177771138711
    C            0.004984596244    -0.004003507142     0.365757029902
    C            1.200691183035    -0.829315840470    -0.095133380162
    C           -1.315797069064    -0.607724906515    -0.085022536558
    H            0.008632247834     0.054561225579     1.452720515750
    H            1.213207154464    -0.891874547425    -1.178128526814
    H            2.131845669186    -0.370783335640     0.224809905801
    H            1.164250136538    -1.836272493680     0.310160659428
    H           -1.358268345685    -0.642375889022    -1.168813077582
    H           -2.145456989165    -0.004849451657     0.266026089298
    H           -1.433131998242    -1.617201808468     0.296721421822

  Mulliken Charges: (a.u.)
   Center  Symbol    Alpha    Beta     Spin     Total
       1     H     0.28110  0.28110  0.00000  0.43780
       2     O     4.37264  4.37264  0.00000 -0.74527
       3     C     2.92429  2.92429  0.00000  0.15141
       4     C     3.23952  3.23952  0.00000 -0.47904
       5     C     3.23759  3.23759  0.00000 -0.47517
       6     H     0.43075  0.43075  0.00000  0.13849
       7     H     0.41423  0.41423  0.00000  0.17155
       8     H     0.42307  0.42307  0.00000  0.15386
       9     H     0.42382  0.42382  0.00000  0.15236
      10     H     0.41462  0.41462  0.00000  0.17076
      11     H     0.41441  0.41441  0.00000  0.17119
      12     H     0.42396  0.42396  0.00000  0.15208

   Total alpha = 17.00000, Total beta = 17.00000, Total charge =  0.00000
