  ==> Input File <==

--------------------------------------------------------------------------
set {
	reference rhf
	basis 6-31G*
}

set_num_threads( 1 )
memory 2 gb

molecule MOL {
0 1

O	 3.225979	 0.970355	 -0.599647
C	 2.701189	 0.057885	 -0.047330
C	 1.245376	 -0.013843	 0.345420
O	 3.347903	 -1.046386	 0.304773
C	 0.455112	 1.231400	 -0.050772
H	 0.838542	 -0.913825	 -0.103701
H	 1.208210	 -0.175333	 1.419774
C	 -0.998893	 1.219485	 0.433193
H	 0.482531	 1.345121	 -1.130325
H	 0.957290	 2.103070	 0.354729
C	 -1.883438	 0.145884	 -0.207175
H	 -1.431207	 2.195402	 0.224832
H	 -1.019646	 1.105716	 1.516076
C	 -3.347647	 0.245583	 0.225435
H	 -1.822183	 0.231698	 -1.291012
H	 -1.510341	 -0.844814	 0.042401
C	 -3.580021	 1.256685	 1.349626
H	 -3.695196	 -0.734624	 0.547367
H	 -3.959161	 0.517757	 -0.633443
C	 -5.044139	 1.347386	 1.778381
H	 -2.968934	 0.986769	 2.208323
H	 -3.237244	 2.237966	 1.028111
H	 -5.176707	 2.071802	 2.576036
H	 -5.407256	 0.388916	 2.138488
H	 -5.677615	 1.649155	 0.948973
C	 4.728119	 -1.109107	 -0.004993
H	 4.882018	 -1.033965	 -1.071845
H	 5.068212	 -2.067527	 0.355250
H	 5.265056	 -0.311663	 0.488280

	symmetry c1
}
set optking {
	frozen_dihedral = ("
		21 17 14 11,
		15 11 8 5,
		6 3 5 9,
		11 8 5 9,
		2 4 26 27,
		1 2 4 26,
		6 3 2 1
	")
}

ee = energy('scf')
oeprop('DIPOLE', 'QUADRUPOLE', 'MULLIKEN_CHARGES')
f=open( 'psi4out.xyz', 'w' )
f.write( "29  " )
f.write( str(ee) + "\n" )
f.write( MOL.save_string_xyz() )
f.close()
--------------------------------------------------------------------------

    Molecular point group: c1

    Geometry (in Angstrom), charge = 0, multiplicity = 1:

       Center              X                  Y                   Z               Mass
    ------------   -----------------  -----------------  -----------------  -----------------
           O          3.105076924786     0.589781859915    -0.921143835535    15.994914619560
           C          2.580286924786    -0.322688140085    -0.368826835535    12.000000000000
           C          1.124473924786    -0.394416140085     0.023923164465    12.000000000000
           O          3.227000924786    -1.426959140085    -0.016723835535    15.994914619560
           C          0.334209924786     0.850826859915    -0.372268835535    12.000000000000
           H          0.717639924786    -1.294398140085    -0.425197835535     1.007825032070
           H          1.087307924786    -0.555906140085     1.098277164465     1.007825032070
           C         -1.119795075214     0.838911859915     0.111696164465    12.000000000000
           H          0.361628924786     0.964547859915    -1.451821835535     1.007825032070
           H          0.836387924786     1.722496859915     0.033232164465     1.007825032070
           C         -2.004340075214    -0.234689140085    -0.528671835535    12.000000000000
           H         -1.552109075214     1.814828859915    -0.096664835535     1.007825032070
           H         -1.140548075214     0.725142859915     1.194579164465     1.007825032070
           C         -3.468549075214    -0.134990140085    -0.096061835535    12.000000000000
           H         -1.943085075214    -0.148875140085    -1.612508835535     1.007825032070
           H         -1.631243075214    -1.225387140085    -0.279095835535     1.007825032070
           C         -3.700923075214     0.876111859915     1.028129164465    12.000000000000
           H         -3.816098075214    -1.115197140085     0.225870164465     1.007825032070
           H         -4.080063075214     0.137183859915    -0.954939835535     1.007825032070
           C         -5.165041075214     0.966812859915     1.456884164465    12.000000000000
           H         -3.089836075214     0.606195859915     1.886826164465     1.007825032070
           H         -3.358146075214     1.857392859915     0.706614164465     1.007825032070
           H         -5.297609075214     1.691228859915     2.254539164465     1.007825032070
           H         -5.528158075214     0.008342859915     1.816991164465     1.007825032070
           H         -5.798517075214     1.268581859915     0.627476164465     1.007825032070
           C          4.607216924786    -1.489680140085    -0.326489835535    12.000000000000
           H          4.761115924786    -1.414538140085    -1.393341835535     1.007825032070
           H          4.947309924786    -2.448100140085     0.033753164465     1.007825032070
           H          5.144153924786    -0.692236140085     0.166783164465     1.007825032070

  Charge       = 0
  Multiplicity = 1
  Basis Set: 6-31G*
  Basis Set:

    Orbital Energies (a.u.)
    -----------------------

    Doubly Occupied:

       1A    -20.603031     2A    -20.544800     3A    -11.371532
       4A    -11.280437     5A    -11.234093     6A    -11.217712
       7A    -11.215697     8A    -11.214556     9A    -11.213964
      10A    -11.213001    11A    -11.207663    12A     -1.468711
      13A     -1.362135    14A     -1.100766    15A     -1.065730
      16A     -1.014984    17A     -0.976694    18A     -0.928560
      19A     -0.861370    20A     -0.826342    21A     -0.771512
      22A     -0.752057    23A     -0.700837    24A     -0.681849
      25A     -0.671834    26A     -0.653147    27A     -0.627040
      28A     -0.603708    29A     -0.593224    30A     -0.581771
      31A     -0.568338    32A     -0.554188    33A     -0.548930
      34A     -0.523459    35A     -0.518884    36A     -0.501102
      37A     -0.489363    38A     -0.487273    39A     -0.481072
      40A     -0.456694    41A     -0.452313    42A     -0.441718
      43A     -0.438028    44A     -0.436227

  @DF-RHF Final Energy:  -501.02920224052150

   => Energetics <=

    Nuclear Repulsion Energy =            619.1982231884580870
    One-Electron Energy =               -1909.5421305866029797
    Two-Electron Energy =                 789.3147051576228250
    DFT Exchange-Correlation Energy =       0.0000000000000000
    Empirical Dispersion Energy =           0.0000000000000000
    PCM Polarization Energy =               0.0000000000000000
    EFP Energy =                            0.0000000000000000
    Total Energy =                       -501.0292022405220678

  Mulliken Charges: (a.u.)
   Center  Symbol    Alpha    Beta     Spin     Total
       1     O     4.28610  4.28610  0.00000 -0.57221
       2     C     2.60461  2.60461  0.00000  0.79079
       3     C     3.20995  3.20995  0.00000 -0.41989
       4     O     4.30761  4.30761  0.00000 -0.61522
       5     C     3.15016  3.15016  0.00000 -0.30032
       6     H     0.39894  0.39894  0.00000  0.20212
       7     H     0.40170  0.40170  0.00000  0.19661
       8     C     3.16485  3.16485  0.00000 -0.32969
       9     H     0.41379  0.41379  0.00000  0.17242
      10     H     0.40942  0.40942  0.00000  0.18116
      11     C     3.15754  3.15754  0.00000 -0.31508
      12     H     0.41634  0.41634  0.00000  0.16732
      13     H     0.42128  0.42128  0.00000  0.15744
      14     C     3.15395  3.15395  0.00000 -0.30790
      15     H     0.41985  0.41985  0.00000  0.16030
      16     H     0.42128  0.42128  0.00000  0.15743
      17     C     3.15820  3.15820  0.00000 -0.31640
      18     H     0.42103  0.42103  0.00000  0.15794
      19     H     0.42097  0.42097  0.00000  0.15806
      20     C     3.23647  3.23647  0.00000 -0.47295
      21     H     0.42193  0.42193  0.00000  0.15615
      22     H     0.42014  0.42014  0.00000  0.15972
      23     H     0.41987  0.41987  0.00000  0.16027
      24     H     0.42256  0.42256  0.00000  0.15489
      25     H     0.42221  0.42221  0.00000  0.15558
      26     C     3.09238  3.09238  0.00000 -0.18477
      27     H     0.40912  0.40912  0.00000  0.18177
      28     H     0.40859  0.40859  0.00000  0.18282
      29     H     0.40918  0.40918  0.00000  0.18164

   Total alpha = 44.00000, Total beta = 44.00000, Total charge = -0.00000
