  ==> Input File <==

--------------------------------------------------------------------------
set {
	reference rhf
	basis cc-pvtz
}

set_num_threads( 4 )
memory 2 gb

molecule MOL {
0 1

H	 1.166964	 -1.062386	 0.758429
O	 1.324748	 -0.612467	 -0.052206
C	 0.706474	 0.636793	 -0.025501
C	 0.873260	 1.444565	 -1.281414
H	 1.142524	 1.177075	 0.806520
H	 -0.355722	 0.539255	 0.191127
C	 1.617322	 1.115924	 -2.314212
H	 0.319465	 2.368849	 -1.297547
H	 2.196605	 0.212488	 -2.328613
H	 1.680064	 1.751570	 -3.176811

	symmetry c1
}
set optking {
	frozen_dihedral = ("
		5 3 2 1
	")
}

ee = optimize('scf')
oeprop('DIPOLE', 'QUADRUPOLE', 'MULLIKEN_CHARGES')
f=open( 'psi4out.xyz', 'w' )
f.write( "10  " )
f.write( str(ee) + "\n" )
f.write( MOL.save_string_xyz() )
f.close()
--------------------------------------------------------------------------

    Molecular point group: c1
  Charge       = 0
  Multiplicity = 1
  Basis Set: CC-PVTZ
  Basis Set:
  @DF-RHF Final Energy:  -191.99606368807025
    Total Energy =                       -191.9960636880700804
    Molecular point group: c1
  Basis Set: CC-PVTZ
  Basis Set:
  Basis Set: CC-PVTZ
  Basis Set:
  @DF-RHF Final Energy:  -191.99741948548535
    Total Energy =                       -191.9974194854853806
  Basis Set: CC-PVTZ
  Basis Set:
  Basis Set: CC-PVTZ
  Basis Set:
  @DF-RHF Final Energy:  -191.99780525348206
    Total Energy =                       -191.9978052534821131
  Basis Set: CC-PVTZ
  Basis Set:
  Basis Set: CC-PVTZ
  Basis Set:
  @DF-RHF Final Energy:  -191.99781782747465
    Total Energy =                       -191.9978178274746483
  Basis Set: CC-PVTZ
  Basis Set:
  Basis Set: CC-PVTZ
  Basis Set:
  @DF-RHF Final Energy:  -191.99781891342616
    Total Energy =                       -191.9978189134259878
  Basis Set: CC-PVTZ
  Basis Set:
  Charge       = 0
  Multiplicity = 1
  Basis Set: CC-PVTZ
  Basis Set:

    Orbital Energies (a.u.)
    -----------------------

    Doubly Occupied:

       1A    -20.553972     2A    -11.278036     3A    -11.223771
       4A    -11.207700     5A     -1.374280     6A     -1.058592
       7A     -0.925859     8A     -0.756325     9A     -0.714384
      10A     -0.639013    11A     -0.619606    12A     -0.594777
      13A     -0.518048    14A     -0.487229    15A     -0.459195
      16A     -0.360278

  @DF-RHF Final Energy:  -191.99781903942559

   => Energetics <=

    Nuclear Repulsion Energy =            119.6770357354482428
    One-Electron Energy =                -497.8075812754938170
    Two-Electron Energy =                 186.1327265006199241
    DFT Exchange-Correlation Energy =       0.0000000000000000
    Empirical Dispersion Energy =           0.0000000000000000
    PCM Polarization Energy =               0.0000000000000000
    EFP Energy =                            0.0000000000000000
    Total Energy =                       -191.9978190394256217
    Molecular point group: c1
  Basis Set: CC-PVTZ
  Basis Set:

  -Total Gradient:
     Atom            X                  Y                   Z
    ------   -----------------  -----------------  -----------------
       1       -0.000027320386    -0.000019785613    -0.000020820575
       2        0.000065368827    -0.000004732890     0.000027705281
       3       -0.000027396173    -0.000022155505     0.000025226019
       4       -0.000043666909     0.000007573781     0.000002144994
       5        0.000015524086     0.000013981921    -0.000020092192
       6        0.000000962133     0.000024769115    -0.000010067464
       7       -0.000008641845    -0.000018642949    -0.000012239404
       8        0.000011897275     0.000005088359    -0.000000540442
       9        0.000005399013     0.000006298389     0.000004044730
      10        0.000007873981     0.000007605388     0.000004639052

  **** Optimization is complete! (in 6 steps) ****
    Final optimized geometry and variables:
    Molecular point group: c1

    Geometry (in Angstrom), charge = 0, multiplicity = 1:

    H            0.090439040569    -1.650175368454     1.548659187931
    O            0.232091247202    -1.154700303514     0.763770039833
    C           -0.449159779684     0.061717634184     0.840647383865
    C           -0.252458790133     0.863076009581    -0.408895339777
    H           -0.099337234936     0.647857303710     1.689084510878
    H           -1.516035176974    -0.100715461843     0.986001754083
    C            0.456696802030     0.496447620248    -1.451949997933
    H           -0.753833384532     1.816335773874    -0.408353807780
    H            0.966624597647    -0.446117635231    -1.480118086396
    H            0.544927170612     1.136270901277    -2.309536085232

  Mulliken Charges: (a.u.)
   Center  Symbol    Alpha    Beta     Spin     Total
       1     H     0.39586  0.39586  0.00000  0.20829
       2     O     4.18975  4.18975  0.00000 -0.37950
       3     C     2.93750  2.93750  0.00000  0.12500
       4     C     3.08249  3.08249  0.00000 -0.16499
       5     H     0.47480  0.47480  0.00000  0.05041
       6     H     0.47485  0.47485  0.00000  0.05029
       7     C     3.16983  3.16983  0.00000 -0.33967
       8     H     0.42400  0.42400  0.00000  0.15199
       9     H     0.42054  0.42054  0.00000  0.15893
      10     H     0.43038  0.43038  0.00000  0.13925

   Total alpha = 16.00000, Total beta = 16.00000, Total charge = -0.00000
