  ==> Input File <==

--------------------------------------------------------------------------
set {
	reference rhf
	basis 6-31G*
}

set_num_threads( 4 )
memory 2 gb

molecule MOL {
0 1

O	 -1.487788	 1.240889	 -0.102860
C	 -1.083277	 0.139568	 0.115197
C	 0.323299	 -0.082943	 0.642902
C	 -1.933017	 -1.084621	 -0.143902
C	 1.355627	 -0.005344	 -0.493127
H	 0.396251	 -1.044647	 1.143147
H	 0.528637	 0.693580	 1.371677
C	 2.494218	 0.963149	 -0.178676
H	 1.765927	 -0.994423	 -0.684565
H	 0.847710	 0.302730	 -1.401009
H	 3.205544	 1.004569	 -0.997205
H	 3.033417	 0.660926	 0.714492
H	 2.117619	 1.968342	 -0.014946
H	 -1.393885	 -1.806447	 -0.750509
H	 -2.850323	 -0.799888	 -0.640100
H	 -2.169004	 -1.571158	 0.798858

	symmetry c1
}
set optking {
	frozen_dihedral = ("
		9 5 3 2
	")
}

ee = optimize('scf')
oeprop('DIPOLE', 'QUADRUPOLE', 'MULLIKEN_CHARGES')
f=open( 'psi4out.xyz', 'w' )
f.write( "16  " )
f.write( str(ee) + "\n" )
f.write( MOL.save_string_xyz() )
f.close()
--------------------------------------------------------------------------

    Molecular point group: c1
  Charge       = 0
  Multiplicity = 1
  Basis Set: 6-31G*
  Basis Set:
  @DF-RHF Final Energy:  -270.02458578875417
    Total Energy =                       -270.0245857887539387
    Molecular point group: c1
  Basis Set: 6-31G*
  Basis Set:
  Basis Set: 6-31G*
  Basis Set:
  @DF-RHF Final Energy:  -270.02480038558747
    Total Energy =                       -270.0248003855875822
  Basis Set: 6-31G*
  Basis Set:
  Basis Set: 6-31G*
  Basis Set:
  @DF-RHF Final Energy:  -270.02269925035483
    Total Energy =                       -270.0226992503548331
  Basis Set: 6-31G*
  Basis Set:
  Basis Set: 6-31G*
  Basis Set:
  @DF-RHF Final Energy:  -270.02509777570765
    Total Energy =                       -270.0250977757075930
  Basis Set: 6-31G*
  Basis Set:
  @DF-RHF Final Energy:  -270.02522062035837
    Total Energy =                       -270.0252206203583683
  @DF-RHF Final Energy:  -270.02529310117257
    Total Energy =                       -270.0252931011724513
  @DF-RHF Final Energy:  -270.02533341129265
    Total Energy =                       -270.0253334112925359
  Basis Set: 6-31G*
  Basis Set:
  @DF-RHF Final Energy:  -270.02535708864139
    Total Energy =                       -270.0253570886416128
  Basis Set: 6-31G*
  Basis Set:
  Basis Set: 6-31G*
  Basis Set:
  @DF-RHF Final Energy:  -270.02536029224177
    Total Energy =                       -270.0253602922415439
  Basis Set: 6-31G*
  Basis Set:
  Basis Set: 6-31G*
  Basis Set:
  @DF-RHF Final Energy:  -270.02536206022040
    Total Energy =                       -270.0253620602205160
  Basis Set: 6-31G*
  Basis Set:
  Charge       = 0
  Multiplicity = 1
  Basis Set: 6-31G*
  Basis Set:

    Orbital Energies (a.u.)
    -----------------------

    Doubly Occupied:

       1A    -20.547991     2A    -11.324642     3A    -11.235976
       4A    -11.229514     5A    -11.227949     6A    -11.218499
       7A     -1.393494     8A     -1.081237     9A     -1.011703
      10A     -0.948736    11A     -0.831917    12A     -0.735346
      13A     -0.658839    14A     -0.642529    15A     -0.619747
      16A     -0.600148    17A     -0.579760    18A     -0.555366
      19A     -0.542722    20A     -0.513909    21A     -0.499036
      22A     -0.484417    23A     -0.473113    24A     -0.397839

  @DF-RHF Final Energy:  -270.02536275196667

   => Energetics <=

    Nuclear Repulsion Energy =            237.6275657826408008
    One-Electron Energy =                -836.5969986361642441
    Two-Electron Energy =                 328.9440701015566333
    DFT Exchange-Correlation Energy =       0.0000000000000000
    Empirical Dispersion Energy =           0.0000000000000000
    PCM Polarization Energy =               0.0000000000000000
    EFP Energy =                            0.0000000000000000
    Total Energy =                       -270.0253627519668385
    Molecular point group: c1
  Basis Set: 6-31G*
  Basis Set:

  -Total Gradient:
     Atom            X                  Y                   Z
    ------   -----------------  -----------------  -----------------
       1       -0.000001027946    -0.000010102462     0.000002943819
       2        0.000154686527     0.001559869825     0.000049305465
       3        0.000176027092    -0.001987375557     0.000188923417
       4       -0.000024219745    -0.000008508302     0.000034457410
       5       -0.001911525153    -0.000069757511    -0.001586761737
       6       -0.000009070741     0.000000075713     0.000014841006
       7       -0.000009452047     0.000001541785     0.000005072498
       8       -0.000006053876    -0.000009199499    -0.000011673757
       9        0.001600700610     0.000510780796     0.001322500066
      10        0.000010534228     0.000002236573    -0.000002175098
      11        0.000004492513     0.000002456896     0.000000580637
      12       -0.000003088610    -0.000001315164    -0.000000459957
      13        0.000001508700     0.000003046423     0.000001031991
      14        0.000001780542     0.000010570468    -0.000005147853
      15        0.000004414492     0.000004500595    -0.000003688258
      16        0.000010293415    -0.000008820579    -0.000009749648

  **** Optimization is complete! (in 11 steps) ****
    Final optimized geometry and variables:
    Molecular point group: c1

    Geometry (in Angstrom), charge = 0, multiplicity = 1:

    O           -1.582921255396     1.031183194195     0.250836936502
    C           -1.040615492091    -0.030951962658     0.215432400417
    C            0.387585835613    -0.205714429719     0.696031255091
    C           -1.742118180078    -1.260137615162    -0.322898350087
    C            1.393086627733    -0.272226501351    -0.485173954777
    H            0.463857151006    -1.102141323127     1.304131685454
    H            0.609791028282     0.644167549343     1.329093871145
    C            2.559114904410     0.701418894620    -0.311989256577
    H            1.789198926980    -1.278762836043    -0.573136411544
    H            0.890786866297    -0.051710892773    -1.422753334073
    H            3.256270719260     0.623704693048    -1.140296350668
    H            3.105942793679     0.496576127460     0.603695347646
    H            2.204830449825     1.726235626829    -0.266305019061
    H           -1.119966868752    -1.784678499860    -1.041431243742
    H           -2.678257289905    -0.978136530503    -0.784464113140
    H           -1.939916360561    -1.949010925629     0.494240887538

  Mulliken Charges: (a.u.)
   Center  Symbol    Alpha    Beta     Spin     Total
       1     O     4.26020  4.26020  0.00000 -0.52040
       2     C     2.74031  2.74031  0.00000  0.51939
       3     C     3.20421  3.20421  0.00000 -0.40841
       4     C     3.28958  3.28958  0.00000 -0.57916
       5     C     3.16198  3.16198  0.00000 -0.32397
       6     H     0.41267  0.41267  0.00000  0.17466
       7     H     0.39795  0.39795  0.00000  0.20410
       8     C     3.24069  3.24069  0.00000 -0.48138
       9     H     0.41612  0.41612  0.00000  0.16777
      10     H     0.41319  0.41319  0.00000  0.17362
      11     H     0.41756  0.41756  0.00000  0.16488
      12     H     0.41938  0.41938  0.00000  0.16123
      13     H     0.41329  0.41329  0.00000  0.17342
      14     H     0.40910  0.40910  0.00000  0.18180
      15     H     0.39689  0.39689  0.00000  0.20622
      16     H     0.40688  0.40688  0.00000  0.18623

   Total alpha = 24.00000, Total beta = 24.00000, Total charge = -0.00000
