  ==> Input File <==

--------------------------------------------------------------------------
set {
	reference rhf
	basis 6-31G*
}

set_num_threads( 4 )
memory 2 gb

molecule MOL {
0 1

H	 2.465338	 -2.224223	 0.000000
O	 2.784187	 -1.332015	 0.000000
C	 1.765313	 -0.449364	 0.000000
C	 1.005777	 -0.350752	 -1.161604
C	 1.463685	 0.338623	 1.093724
H	 1.260224	 -0.973987	 -1.998081
C	 -0.050475	 0.534434	 -1.223582
H	 2.031956	 0.283333	 2.001213
C	 0.396303	 1.216798	 0.997166
H	 -0.631577	 0.604092	 -2.124318
C	 -0.373656	 1.337257	 -0.137823
N	 0.081493	 2.048071	 2.157065
H	 -1.189984	 2.028582	 -0.170758
O	 0.764256	 1.924624	 3.128984
O	 -0.838666	 2.801216	 2.065715

	symmetry c1
}
set optking {
	frozen_dihedral = ("
		4 3 2 1
	")
}

ee = optimize('scf')
oeprop('DIPOLE', 'QUADRUPOLE', 'MULLIKEN_CHARGES')
f=open( 'psi4out.xyz', 'w' )
f.write( "15  " )
f.write( str(ee) + "\n" )
f.write( MOL.save_string_xyz() )
f.close()
--------------------------------------------------------------------------

    Molecular point group: c1
  Charge       = 0
  Multiplicity = 1
  Basis Set: 6-31G*
  Basis Set:
  @DF-RHF Final Energy:  -509.02222454625820
    Total Energy =                       -509.0222245462578030
    Molecular point group: c1
  Basis Set: 6-31G*
  Basis Set:
  Basis Set: 6-31G*
  Basis Set:
  @DF-RHF Final Energy:  -509.02348384211996
    Total Energy =                       -509.0234838421195036
  Basis Set: 6-31G*
  Basis Set:
  Basis Set: 6-31G*
  Basis Set:
  @DF-RHF Final Energy:  -509.00847826162885
    Total Energy =                       -509.0084782616286248
  Basis Set: 6-31G*
  Basis Set:
  Basis Set: 6-31G*
  Basis Set:
  @DF-RHF Final Energy:  -509.02321507216794
    Total Energy =                       -509.0232150721678863
  Basis Set: 6-31G*
  Basis Set:
  Basis Set: 6-31G*
  Basis Set:
  @DF-RHF Final Energy:  -509.02368894532327
    Total Energy =                       -509.0236889453235563
  Basis Set: 6-31G*
  Basis Set:
  Basis Set: 6-31G*
  Basis Set:
  @DF-RHF Final Energy:  -509.02369801682045
    Total Energy =                       -509.0236980168205037
  Basis Set: 6-31G*
  Basis Set:
  Charge       = 0
  Multiplicity = 1
  Basis Set: 6-31G*
  Basis Set:

    Orbital Energies (a.u.)
    -----------------------

    Doubly Occupied:

       1A    -20.602991     2A    -20.602960     3A    -20.602671
       4A    -15.857693     5A    -11.322176     6A    -11.308843
       7A    -11.268830     8A    -11.267132     9A    -11.266596
      10A    -11.265920    11A     -1.636458    12A     -1.420599
      13A     -1.419624    14A     -1.200467    15A     -1.094430
      16A     -1.046778    17A     -0.963919    18A     -0.865591
      19A     -0.836807    20A     -0.793070    21A     -0.735606
      22A     -0.732983    23A     -0.718929    24A     -0.710744
      25A     -0.680668    26A     -0.642101    27A     -0.624626
      28A     -0.568753    29A     -0.558602    30A     -0.528687
      31A     -0.512017    32A     -0.489397    33A     -0.485461
      34A     -0.452977    35A     -0.377498    36A     -0.356018

  @DF-RHF Final Energy:  -509.02370069495652

   => Energetics <=

    Nuclear Repulsion Energy =            502.8165392336140371
    One-Electron Energy =               -1692.0432393350918119
    Two-Electron Energy =                 680.2029994065212577
    DFT Exchange-Correlation Energy =       0.0000000000000000
    Empirical Dispersion Energy =           0.0000000000000000
    PCM Polarization Energy =               0.0000000000000000
    EFP Energy =                            0.0000000000000000
    Total Energy =                       -509.0237006949564602
    Molecular point group: c1
  Basis Set: 6-31G*
  Basis Set:

  -Total Gradient:
     Atom            X                  Y                   Z
    ------   -----------------  -----------------  -----------------
       1       -0.000067396610     0.000015709388     0.001130849045
       2        0.000388314769     0.000283861889    -0.001580608509
       3       -0.000778955547    -0.000838130711     0.001016865106
       4        0.000324102732     0.000714993587    -0.000415216925
       5        0.000162644056    -0.000208082920    -0.000116499749
       6        0.000007584238     0.000014814872     0.000021478327
       7        0.000106010267    -0.000179880632    -0.000099927373
       8        0.000001344498    -0.000000723324    -0.000001941803
       9       -0.000199528073     0.000110124241    -0.000147611384
      10       -0.000022903448     0.000030495115    -0.000000287945
      11        0.000070624966     0.000052993245     0.000194697068
      12        0.000068539625     0.000007693753    -0.000039029829
      13       -0.000002976083    -0.000018191256    -0.000035848687
      14       -0.000100790045     0.000042309717    -0.000025085876
      15        0.000043384662    -0.000027986964     0.000098168534

  **** Optimization is complete! (in 7 steps) ****
    Final optimized geometry and variables:
    Molecular point group: c1

    Geometry (in Angstrom), charge = 0, multiplicity = 1:

    H            1.813658912672    -3.037305318515    -0.721817874478
    O            2.098071800457    -2.132824082091    -0.711223505338
    C            1.028511961927    -1.288940115392    -0.771643914466
    C            0.277366600326    -1.173801630581    -1.932225990828
    C            0.740969461452    -0.499086439435     0.325229902832
    H            0.531441430989    -1.780057256424    -2.782738931819
    C           -0.778917949583    -0.280875561122    -1.992288932215
    H            1.326643556787    -0.575693237032     1.217912785121
    C           -0.313319521932     0.391243014077     0.233510858820
    H           -1.358724320278    -0.198514976313    -2.892727698875
    C           -1.086812420885     0.517388577542    -0.904033827480
    N           -0.622109916898     1.226526413980     1.391307001965
    H           -1.895431739006     1.218228689437    -0.932728917212
    O            0.052404096633     1.094029908265     2.366455410147
    O           -1.532965995644     1.991677619514     1.294129005892

  Mulliken Charges: (a.u.)
   Center  Symbol    Alpha    Beta     Spin     Total
       1     H     0.26816  0.26816  0.00000  0.46367
       2     O     4.38299  4.38299  0.00000 -0.76597
       3     C     2.81802  2.81802  0.00000  0.36396
       4     C     3.10773  3.10773  0.00000 -0.21547
       5     C     3.10711  3.10711  0.00000 -0.21421
       6     H     0.38618  0.38618  0.00000  0.22763
       7     C     3.10488  3.10488  0.00000 -0.20976
       8     H     0.35850  0.35850  0.00000  0.28300
       9     C     2.91745  2.91745  0.00000  0.16509
      10     H     0.38667  0.38667  0.00000  0.22666
      11     C     3.09103  3.09103  0.00000 -0.18207
      12     N     3.24087  3.24087  0.00000  0.51825
      13     H     0.36414  0.36414  0.00000  0.27172
      14     O     4.23247  4.23247  0.00000 -0.46494
      15     O     4.23378  4.23378  0.00000 -0.46756

   Total alpha = 36.00000, Total beta = 36.00000, Total charge = -0.00000
