  ==> Input File <==

--------------------------------------------------------------------------
set {
	reference rhf
	basis 6-31G*
}

set_num_threads( 4 )
memory 2 gb

molecule MOL {
0 1

H	 -2.095845	 0.069849	 -0.369554
C	 -1.193199	 -0.484033	 -0.210393
C	 -1.185326	 -1.867295	 -0.209005
C	 0.000000	 0.183220	 0.000000
H	 -2.101477	 -2.404452	 -0.370547
C	 0.000000	 -2.555744	 0.000000
N	 0.000000	 1.642018	 0.000000
C	 1.193199	 -0.484034	 0.210393
H	 0.000000	 -3.630640	 0.000000
C	 1.185326	 -1.867295	 0.209005
O	 1.057097	 2.196749	 0.000000
O	 -1.057097	 2.196749	 0.000000
H	 2.095845	 0.069849	 0.369554
H	 2.101477	 -2.404452	 0.370547

	symmetry c1
}
set optking {
	frozen_dihedral = ("
		2 4 7 11
	")
}

ee = optimize('scf')
oeprop('DIPOLE', 'QUADRUPOLE', 'MULLIKEN_CHARGES')
f=open( 'psi4out.xyz', 'w' )
f.write( "14  " )
f.write( str(ee) + "\n" )
f.write( MOL.save_string_xyz() )
f.close()
--------------------------------------------------------------------------

    Molecular point group: c1
  Charge       = 0
  Multiplicity = 1
  Basis Set: 6-31G*
  Basis Set:
  @DF-RHF Final Energy:  -434.17412701990423
    Total Energy =                       -434.1741270199039491
    Molecular point group: c1
  Basis Set: 6-31G*
  Basis Set:
  Basis Set: 6-31G*
  Basis Set:
  @DF-RHF Final Energy:  -434.17306518574003
    Total Energy =                       -434.1730651857396879
  Basis Set: 6-31G*
  Basis Set:
  Basis Set: 6-31G*
  Basis Set:
  @DF-RHF Final Energy:  -434.17413396165642
    Total Energy =                       -434.1741339616568212
  Basis Set: 6-31G*
  Basis Set:
  Charge       = 0
  Multiplicity = 1
  Basis Set: 6-31G*
  Basis Set:

    Orbital Energies (a.u.)
    -----------------------

    Doubly Occupied:

       1A    -20.601011     2A    -20.600947     3A    -15.855710
       4A    -11.303749     5A    -11.270733     6A    -11.270696
       7A    -11.268266     8A    -11.261121     9A    -11.261011
      10A     -1.634278    11A     -1.417506    12A     -1.201341
      13A     -1.094439    14A     -1.052524    15A     -0.957969
      16A     -0.864527    17A     -0.825110    18A     -0.784334
      19A     -0.733474    20A     -0.728707    21A     -0.709016
      22A     -0.654706    23A     -0.650126    24A     -0.624480
      25A     -0.553083    26A     -0.535736    27A     -0.529467
      28A     -0.488984    29A     -0.487018    30A     -0.451442
      31A     -0.373868    32A     -0.365555

  @DF-RHF Final Energy:  -434.17414181246113

   => Energetics <=

    Nuclear Repulsion Energy =            417.1743911308155930
    One-Electron Energy =               -1417.8751979406324608
    Two-Electron Energy =                 566.5266649973557378
    DFT Exchange-Correlation Energy =       0.0000000000000000
    Empirical Dispersion Energy =           0.0000000000000000
    PCM Polarization Energy =               0.0000000000000000
    EFP Energy =                            0.0000000000000000
    Total Energy =                       -434.1741418124611300
    Molecular point group: c1
  Basis Set: 6-31G*
  Basis Set:

  -Total Gradient:
     Atom            X                  Y                   Z
    ------   -----------------  -----------------  -----------------
       1       -0.000008716351     0.000003724981     0.000016294169
       2        0.000165309880    -0.000005711477    -0.000872904299
       3       -0.000022120701     0.000009494585     0.000065342057
       4       -0.000217391779    -0.000011005134     0.000826274901
       5        0.000002170411     0.000000526861    -0.000009850841
       6        0.000018416388    -0.000005471911    -0.000049613089
       7        0.000057643716    -0.000047948559     0.000983385706
       8        0.000001973785    -0.000002042761     0.000024988503
       9       -0.000002536037    -0.000001212568     0.000006704551
      10        0.000000130184    -0.000011155520     0.000000716330
      11       -0.000021720650     0.000057067663    -0.000965380324
      12        0.000030976335     0.000020338471    -0.000020316421
      13       -0.000002247027    -0.000006715091    -0.000014947650
      14       -0.000001888156     0.000000110453     0.000009306407

  **** Optimization is complete! (in 4 steps) ****
    Final optimized geometry and variables:
    Molecular point group: c1

    Geometry (in Angstrom), charge = 0, multiplicity = 1:

    H           -2.097181534763     0.070606184545    -0.360338705012
    C           -1.193905243449    -0.483515727346    -0.205084461262
    C           -1.185132288528    -1.866807731810    -0.209723884947
    C           -0.000970370810     0.183219455279     0.007379859526
    H           -2.100509719964    -2.403715705148    -0.376138615646
    C            0.000245101548    -2.555330650387    -0.000802468393
    N           -0.000014446840     1.641636857594     0.000829540685
    C            1.193438364254    -0.483719253369     0.210954361333
    H            0.000581023519    -3.630257176231    -0.003260716879
    C            1.185352965633    -1.867003365206     0.210457122744
    O            1.057550077107     2.195504265263     0.002798713747
    O           -1.056893444919     2.196646479301    -0.013259964549
    H            2.097023011317     0.070235583741     0.364947805411
    H            2.101433862978    -2.404094120704     0.372353644274

  Mulliken Charges: (a.u.)
   Center  Symbol    Alpha    Beta     Spin     Total
       1     H     0.36451  0.36451  0.00000  0.27099
       2     C     3.08511  3.08511  0.00000 -0.17022
       3     C     3.10837  3.10837  0.00000 -0.21674
       4     C     2.92220  2.92220  0.00000  0.15560
       5     H     0.38850  0.38850  0.00000  0.22301
       6     C     3.08609  3.08609  0.00000 -0.17219
       7     N     3.24170  3.24170  0.00000  0.51659
       8     C     3.08496  3.08496  0.00000 -0.16992
       9     H     0.38889  0.38889  0.00000  0.22222
      10     C     3.10840  3.10840  0.00000 -0.21680
      11     O     4.23412  4.23412  0.00000 -0.46825
      12     O     4.23408  4.23408  0.00000 -0.46816
      13     H     0.36457  0.36457  0.00000  0.27086
      14     H     0.38849  0.38849  0.00000  0.22301

   Total alpha = 32.00000, Total beta = 32.00000, Total charge = -0.00000
