                              Psi4 1.0.54 Driver

  ==> Input File <==

--------------------------------------------------------------------------
set {
	reference rhf
	basis cc-pvtz
}

set_num_threads( 4 )
memory 2 gb

molecule MOL {
0 1

H	 -3.935073	 1.125602	 -0.955415
O	 -3.458596	 0.315260	 -0.960865
C	 -3.176635	 -0.080824	 0.355601
C	 -1.763371	 0.265266	 0.799691
H	 -3.321825	 -1.153438	 0.379502
H	 -3.895468	 0.357385	 1.043382
C	 -0.673390	 -0.426948	 -0.013392
H	 -1.631049	 1.344913	 0.747560
H	 -1.664587	 -0.001624	 1.849167
C	 0.737842	 -0.043159	 0.423759
H	 -0.806103	 -0.190518	 -1.063345
H	 -0.797221	 -1.503753	 0.074146
C	 1.824000	 -0.743224	 -0.390623
H	 0.850588	 1.033777	 0.343840
H	 0.868587	 -0.286314	 1.476203
C	 3.255957	 -0.453067	 0.062319
H	 1.718250	 -0.470599	 -1.438164
H	 1.658105	 -1.815850	 -0.339904
C	 3.707029	 0.992337	 -0.133857
H	 3.928201	 -1.104096	 -0.488158
H	 3.362667	 -0.724561	 1.109374
H	 3.605811	 1.294044	 -1.171549
H	 4.748333	 1.111029	 0.143343
H	 3.129882	 1.683078	 0.468956

	symmetry c1
}
set optking {
	frozen_dihedral = ("
		1 2 3 5
	")
}

ee,wfn = optimize('scf', return_wfn=True)
oeprop( wfn, 'DIPOLE', 'QUADRUPOLE', 'MULLIKEN_CHARGES')
f=open( 'psi4out.xyz', 'w' )
f.write( "24  " )
f.write( str(ee) + "\n" )
f.write( MOL.save_string_xyz() )
f.close()
--------------------------------------------------------------------------

    Molecular point group: c1
  Charge       = 0
  Multiplicity = 1
  Basis Set: CC-PVTZ
  Basis Set:
  @DF-RHF Final Energy:  -349.37929282181875
    Total Energy =                       -349.3792928218189218
    Molecular point group: c1
  Basis Set: CC-PVTZ
  Basis Set:
  Basis Set: CC-PVTZ
  Basis Set:
  @DF-RHF Final Energy:  -349.37940230523145
    Total Energy =                       -349.3794023052315652
  Basis Set: CC-PVTZ
  Basis Set:
  Basis Set: CC-PVTZ
  Basis Set:
  @DF-RHF Final Energy:  -349.37943373690865
    Total Energy =                       -349.3794337369085952
  Basis Set: CC-PVTZ
  Basis Set:
  Charge       = 0
  Multiplicity = 1
  Basis Set: CC-PVTZ
  Basis Set:

    Orbital Energies (a.u.)
    -----------------------

    Doubly Occupied:

       1A    -20.545453     2A    -11.266040     3A    -11.211277
       4A    -11.210409     5A    -11.207722     6A    -11.207119
       7A    -11.205641     8A    -11.203676     9A     -1.363026
      10A     -1.087518    11A     -1.047729    12A     -0.985421
      13A     -0.914137    14A     -0.847561    15A     -0.796377
      16A     -0.774470    17A     -0.695191    18A     -0.652165
      19A     -0.625299    20A     -0.615273    21A     -0.587733
      22A     -0.583484    23A     -0.558501    24A     -0.539237
      25A     -0.519215    26A     -0.505470    27A     -0.496532
      28A     -0.477337    29A     -0.468003    30A     -0.455152
      31A     -0.453503    32A     -0.444870    33A     -0.422025

  @DF-RHF Final Energy:  -349.37943418552385

   => Energetics <=

    Nuclear Repulsion Energy =            384.7526552650504641
    One-Electron Energy =               -1236.3190516584634224
    Two-Electron Energy =                 502.1869622078888824
    DFT Exchange-Correlation Energy =       0.0000000000000000
    Empirical Dispersion Energy =           0.0000000000000000
    PCM Polarization Energy =               0.0000000000000000
    EFP Energy =                            0.0000000000000000
    Total Energy =                       -349.3794341855241328
    Molecular point group: c1
  Basis Set: CC-PVTZ
  Basis Set:

  -Total Gradient:
     Atom            X                  Y                   Z
    ------   -----------------  -----------------  -----------------
       1       -0.001137762093    -0.000656328968     0.000007958888
       2        0.001108848180     0.000911147899     0.000124950872
       3        0.001084508390    -0.000457703265    -0.000425164862
       4        0.000037851992     0.000051152378    -0.000015232731
       5       -0.001085267998     0.000132382088     0.000303741976
       6        0.000005205397     0.000020218521    -0.000040307072
       7       -0.000017603138     0.000009750004    -0.000001021865
       8        0.000027225722    -0.000001623635    -0.000000976888
       9       -0.000008415278     0.000000657578     0.000026676461
      10       -0.000007754084     0.000010922588     0.000010545899
      11        0.000004221164    -0.000012948586     0.000012784037
      12        0.000001661082    -0.000008592714    -0.000007649306
      13       -0.000010978150    -0.000007704120    -0.000000035958
      14        0.000006656727     0.000011045550     0.000003938510
      15        0.000003817688    -0.000001010930    -0.000002819563
      16       -0.000002194060    -0.000000693063    -0.000000324026
      17        0.000000498460    -0.000001702076     0.000000726635
      18       -0.000001040184    -0.000001113978     0.000000761930
      19       -0.000003826512     0.000001832937     0.000001804088
      20       -0.000003286469     0.000000276993    -0.000002561222
      21        0.000002160823    -0.000001699785    -0.000000380135
      22        0.000001484858    -0.000001337482     0.000000428616
      23       -0.000000372295     0.000000452678     0.000002079373
      24       -0.000005640226     0.000002619389     0.000000076344

  **** Optimization is complete! (in 4 steps) ****
    Final optimized geometry and variables:
    Molecular point group: c1

    Geometry (in Angstrom), charge = 0, multiplicity = 1:

    H           -3.900626100845     1.141166238541    -0.939273552901
    O           -3.437249961086     0.325581021078    -0.936783959893
    C           -3.169440555230    -0.079470746149     0.383247322422
    C           -1.754905525377     0.265591587409     0.820038082455
    H           -3.325746049968    -1.151479500085     0.424769065322
    H           -3.883948339771     0.368899181114     1.067350276972
    C           -0.674800297552    -0.424448014750    -0.007450638074
    H           -1.624968480574     1.343912904260     0.766601383858
    H           -1.646908731182    -0.009022420071     1.867118442496
    C            0.741235187083    -0.046010211215     0.418539603787
    H           -0.818582912039    -0.178287078458    -1.053503336505
    H           -0.799300402203    -1.501913505651     0.074307736970
    C            1.818442459260    -0.742656474982    -0.410542954762
    H            0.854561166357     1.031144573368     0.343856594752
    H            0.881966148086    -0.295768436160     1.468258488639
    C            3.255278196003    -0.456585163207     0.029521397271
    H            1.702374026145    -0.464041527794    -1.455388856400
    H            1.651989073539    -1.815444894808    -0.364206579235
    C            3.705365473087     0.989872133561    -0.161344595320
    H            3.921490851444    -1.104195186041    -0.532309721023
    H            3.372690087593    -0.735340481759     1.073562425195
    H            3.592576191140     1.299115499691    -1.195606308273
    H            4.749864421070     1.105894614861     0.104935312673
    H            3.135462067558     1.676636297401     0.452751681726

  Mulliken Charges: (a.u.)
   Center  Symbol    Alpha    Beta     Spin     Total
       1     H     0.39337  0.39337  0.00000  0.21327
       2     O     4.20509  4.20509  0.00000 -0.41018
       3     C     2.98124  2.98124  0.00000  0.03752
       4     C     3.08662  3.08662  0.00000 -0.17324
       5     H     0.46194  0.46194  0.00000  0.07612
       6     H     0.46179  0.46179  0.00000  0.07641
       7     C     3.09050  3.09050  0.00000 -0.18100
       8     H     0.46005  0.46005  0.00000  0.07991
       9     H     0.45663  0.45663  0.00000  0.08674
      10     C     3.09129  3.09129  0.00000 -0.18257
      11     H     0.44448  0.44448  0.00000  0.11105
      12     H     0.45626  0.45626  0.00000  0.08748
      13     C     3.09434  3.09434  0.00000 -0.18868
      14     H     0.45301  0.45301  0.00000  0.09398
      15     H     0.45685  0.45685  0.00000  0.08630
      16     C     3.09013  3.09013  0.00000 -0.18027
      17     H     0.45351  0.45351  0.00000  0.09297
      18     H     0.45016  0.45016  0.00000  0.09967
      19     C     3.15243  3.15243  0.00000 -0.30485
      20     H     0.44889  0.44889  0.00000  0.10222
      21     H     0.45549  0.45549  0.00000  0.08902
      22     H     0.45481  0.45481  0.00000  0.09037
      23     H     0.44697  0.44697  0.00000  0.10606
      24     H     0.45414  0.45414  0.00000  0.09171

   Total alpha = 33.00000, Total beta = 33.00000, Total charge = -0.00000

*** Psi4 exiting successfully. Buy a developer a beer!
