  ==> Input File <==

--------------------------------------------------------------------------
set {
	reference rhf
	basis 6-31G*
}

set_num_threads( 1 )
memory 2 gb

molecule MOL {
0 1

H	 -2.008675	 0.885633	 4.202088
C	 -1.350564	 0.773322	 3.358844
C	 -1.315374	 1.749611	 2.374583
C	 -0.540469	 -0.346879	 3.259703
H	 -1.944155	 2.617885	 2.452688
C	 -0.468917	 1.604497	 1.290639
H	 -0.569111	 -1.102637	 4.023651
C	 0.307629	 -0.494260	 2.175553
H	 -0.428471	 2.349839	 0.519600
C	 0.345236	 0.482435	 1.187416
H	 0.936248	 -1.359497	 2.094777
C	 1.239129	 0.373821	 0.000060
O	 1.970282	 -0.730723	 0.000018
O	 1.298100	 1.190019	 -0.865505
C	 3.377318	 -0.566646	 -0.000065
H	 3.695437	 -0.028981	 -0.881264
H	 3.789299	 -1.563704	 0.000236
H	 3.695516	 -0.028316	 0.880770

	symmetry c1
}
set optking {
	frozen_dihedral = ("
		12 13 15 16,
		13 12 10 6
	")
}

ee = energy('scf')
oeprop('DIPOLE', 'QUADRUPOLE', 'MULLIKEN_CHARGES')
f=open( 'psi4out.xyz', 'w' )
f.write( "18  " )
f.write( str(ee) + "\n" )
f.write( MOL.save_string_xyz() )
f.close()
--------------------------------------------------------------------------

    Molecular point group: c1

    Geometry (in Angstrom), charge = 0, multiplicity = 1:

       Center              X                  Y                   Z               Mass
    ------------   -----------------  -----------------  -----------------  -----------------
           H         -2.586595660395     0.503123944175     3.001712773076     1.007825032070
           C         -1.928484660395     0.390812944175     2.158468773076    12.000000000000
           C         -1.893294660395     1.367101944175     1.174207773076    12.000000000000
           C         -1.118389660395    -0.729388055825     2.059327773076    12.000000000000
           H         -2.522075660395     2.235375944175     1.252312773076     1.007825032070
           C         -1.046837660395     1.221987944175     0.090263773076    12.000000000000
           H         -1.147031660395    -1.485146055825     2.823275773076     1.007825032070
           C         -0.270291660395    -0.876769055825     0.975177773076    12.000000000000
           H         -1.006391660395     1.967329944175    -0.680775226924     1.007825032070
           C         -0.232684660395     0.099925944175    -0.012959226924    12.000000000000
           H          0.358327339605    -1.742006055825     0.894401773076     1.007825032070
           C          0.661208339605    -0.008688055825    -1.200315226924    12.000000000000
           O          1.392361339605    -1.113232055825    -1.200357226924    15.994914619560
           O          0.720179339605     0.807509944175    -2.065880226924    15.994914619560
           C          2.799397339605    -0.949155055825    -1.200440226924    12.000000000000
           H          3.117516339605    -0.411490055825    -2.081639226924     1.007825032070
           H          3.211378339605    -1.946213055825    -1.200139226924     1.007825032070
           H          3.117595339605    -0.410825055825    -0.319605226924     1.007825032070

  Charge       = 0
  Multiplicity = 1
  Basis Set: 6-31G*
  Basis Set:

    Orbital Energies (a.u.)
    -----------------------

    Doubly Occupied:

       1A    -20.593371     2A    -20.549768     3A    -11.377942
       4A    -11.289980     5A    -11.247401     6A    -11.246733
       7A    -11.244808     8A    -11.242841     9A    -11.239189
      10A    -11.238192    11A     -1.467700    12A     -1.365191
      13A     -1.166547    14A     -1.046427    15A     -1.026416
      16A     -0.979600    17A     -0.865783    18A     -0.836306
      19A     -0.779079    20A     -0.739344    21A     -0.683091
      22A     -0.676257    23A     -0.667575    24A     -0.635045
      25A     -0.625455    26A     -0.603453    27A     -0.595524
      28A     -0.560322    29A     -0.526162    30A     -0.518618
      31A     -0.501741    32A     -0.496477    33A     -0.458989
      34A     -0.442214    35A     -0.346630    36A     -0.342555

  @DF-RHF Final Energy:  -457.33632255300984

   => Energetics <=

    Nuclear Repulsion Energy =            494.7877863838458552
    One-Electron Energy =               -1603.8027658959074415
    Two-Electron Energy =                 651.6786569590526597
    DFT Exchange-Correlation Energy =       0.0000000000000000
    Empirical Dispersion Energy =           0.0000000000000000
    PCM Polarization Energy =               0.0000000000000000
    EFP Energy =                            0.0000000000000000
    Total Energy =                       -457.3363225530088130

  Mulliken Charges: (a.u.)
   Center  Symbol    Alpha    Beta     Spin     Total
       1     H     0.39490  0.39490  0.00000  0.21020
       2     C     3.08967  3.08967  0.00000 -0.17934
       3     C     3.10695  3.10695  0.00000 -0.21391
       4     C     3.10676  3.10676  0.00000 -0.21353
       5     H     0.39507  0.39507  0.00000  0.20986
       6     C     3.08599  3.08599  0.00000 -0.17198
       7     H     0.39610  0.39610  0.00000  0.20780
       8     C     3.08887  3.08887  0.00000 -0.17774
       9     H     0.37586  0.37586  0.00000  0.24828
      10     C     3.07920  3.07920  0.00000 -0.15839
      11     H     0.38277  0.38277  0.00000  0.23446
      12     C     2.58632  2.58632  0.00000  0.82737
      13     O     4.31760  4.31760  0.00000 -0.63520
      14     O     4.27508  4.27508  0.00000 -0.55016
      15     C     3.09555  3.09555  0.00000 -0.19109
      16     H     0.40219  0.40219  0.00000  0.19562
      17     H     0.40484  0.40484  0.00000  0.19031
      18     H     0.41628  0.41628  0.00000  0.16743

   Total alpha = 36.00000, Total beta = 36.00000, Total charge =  0.00000
