  ==> Input File <==

--------------------------------------------------------------------------
set {
	reference rhf
	basis 6-31G*
}

set_num_threads( 1 )
memory 2 gb

molecule MOL {
0 1

H	 -2.499100	 -0.730091	 -0.745082
O	 -2.347518	 -0.290803	 0.079804
C	 -1.184022	 0.487508	 -0.006784
C	 0.062599	 -0.378592	 0.031606
H	 -1.176523	 1.099369	 -0.904519
H	 -1.187323	 1.153111	 0.844927
O	 1.171513	 0.459272	 -0.058250
H	 0.050699	 -1.089204	 -0.797170
H	 0.078739	 -0.954914	 0.954740
C	 2.359013	 -0.103263	 0.402770
H	 2.626109	 -0.991314	 -0.167016
H	 3.138527	 0.636495	 0.284373
H	 2.287576	 -0.375970	 1.453636

	symmetry c1
}
set optking {
	frozen_dihedral = ("
		8 4 3 5,
		1 2 3 5,
		4 7 10 13
	")
}

ee = energy('scf')
oeprop('DIPOLE', 'QUADRUPOLE', 'MULLIKEN_CHARGES')
f=open( 'psi4out.xyz', 'w' )
f.write( "13  " )
f.write( str(ee) + "\n" )
f.write( MOL.save_string_xyz() )
f.close()
--------------------------------------------------------------------------

    Molecular point group: c1

    Geometry (in Angstrom), charge = 0, multiplicity = 1:

       Center              X                  Y                   Z               Mass
    ------------   -----------------  -----------------  -----------------  -----------------
           H         -2.491022064739    -0.749816395855    -0.829326210123     1.007825032070
           O         -2.339440064739    -0.310528395855    -0.004440210123    15.994914619560
           C         -1.175944064739     0.467782604145    -0.091028210123    12.000000000000
           C          0.070676935261    -0.398317395855    -0.052638210123    12.000000000000
           H         -1.168445064739     1.079643604145    -0.988763210123     1.007825032070
           H         -1.179245064739     1.133385604145     0.760682789877     1.007825032070
           O          1.179590935261     0.439546604145    -0.142494210123    15.994914619560
           H          0.058776935261    -1.108929395855    -0.881414210123     1.007825032070
           H          0.086816935261    -0.974639395855     0.870495789877     1.007825032070
           C          2.367090935261    -0.122988395855     0.318525789877    12.000000000000
           H          2.634186935261    -1.011039395855    -0.251260210123     1.007825032070
           H          3.146604935261     0.616769604145     0.200128789877     1.007825032070
           H          2.295653935261    -0.395695395855     1.369391789877     1.007825032070

  Charge       = 0
  Multiplicity = 1
  Basis Set: 6-31G*
  Basis Set:

    Orbital Energies (a.u.)
    -----------------------

    Doubly Occupied:

       1A    -20.561950     2A    -20.559897     3A    -11.270652
       4A    -11.270265     5A    -11.268659     6A     -1.388783
       7A     -1.365005     8A     -1.018177     9A     -0.913854
      10A     -0.841634    11A     -0.708964    12A     -0.675494
      13A     -0.659649    14A     -0.635335    15A     -0.598158
      16A     -0.572585    17A     -0.539100    18A     -0.488876
      19A     -0.484935    20A     -0.441579    21A     -0.418083

  @DF-RHF Final Energy:  -267.94983180635035

   => Energetics <=

    Nuclear Repulsion Energy =            190.3712430191760632
    One-Electron Energy =                -743.2788681077930732
    Two-Electron Energy =                 284.9577932822669482
    DFT Exchange-Correlation Energy =       0.0000000000000000
    Empirical Dispersion Energy =           0.0000000000000000
    PCM Polarization Energy =               0.0000000000000000
    EFP Energy =                            0.0000000000000000
    Total Energy =                       -267.9498318063500619

  Mulliken Charges: (a.u.)
   Center  Symbol    Alpha    Beta     Spin     Total
       1     H     0.28119  0.28119  0.00000  0.43762
       2     O     4.37093  4.37093  0.00000 -0.74186
       3     C     3.00439  3.00439  0.00000 -0.00878
       4     C     2.99735  2.99735  0.00000  0.00531
       5     H     0.42189  0.42189  0.00000  0.15623
       6     H     0.40960  0.40960  0.00000  0.18079
       7     O     4.30736  4.30736  0.00000 -0.61473
       8     H     0.43543  0.43543  0.00000  0.12914
       9     H     0.42390  0.42390  0.00000  0.15219
      10     C     3.08065  3.08065  0.00000 -0.16129
      11     H     0.42901  0.42901  0.00000  0.14197
      12     H     0.41112  0.41112  0.00000  0.17777
      13     H     0.42718  0.42718  0.00000  0.14563

   Total alpha = 21.00000, Total beta = 21.00000, Total charge =  0.00000
