  ==> Input File <==

--------------------------------------------------------------------------
set {
	reference rhf
	basis 6-31G*
}

set_num_threads( 4 )
memory 2 gb

molecule MOL {
0 1

H	 2.003801	 -0.760582	 -0.686076
O	 1.178933	 -0.696441	 -0.226731
C	 0.702312	 0.627605	 -0.264544
C	 -0.714990	 0.596302	 0.266387
H	 0.699705	 1.006343	 -1.283075
H	 1.319355	 1.281799	 0.347675
O	 -1.405996	 -0.526611	 -0.195820
H	 -1.257453	 1.468809	 -0.075599
H	 -0.688972	 0.618407	 1.353696
H	 -0.890587	 -1.292708	 0.022039

	symmetry c1
}
set optking {
	frozen_dihedral = ("
		5 3 4 7
	")
}

ee = optimize('scf')
oeprop('DIPOLE', 'QUADRUPOLE', 'MULLIKEN_CHARGES')
f=open( 'psi4out.xyz', 'w' )
f.write( "10  " )
f.write( str(ee) + "\n" )
f.write( MOL.save_string_xyz() )
f.close()
--------------------------------------------------------------------------

    Molecular point group: c1
  Charge       = 0
  Multiplicity = 1
  Basis Set: 6-31G*
  Basis Set:
  @DF-RHF Final Energy:  -228.92200673477575
    Total Energy =                       -228.9220067347757777
    Molecular point group: c1
  Basis Set: 6-31G*
  Basis Set:
  Basis Set: 6-31G*
  Basis Set:
  @DF-RHF Final Energy:  -228.92283153878003
    Total Energy =                       -228.9228315387801445
  Basis Set: 6-31G*
  Basis Set:
  Basis Set: 6-31G*
  Basis Set:
  @DF-RHF Final Energy:  -228.92307760904058
    Total Energy =                       -228.9230776090405755
  Basis Set: 6-31G*
  Basis Set:
  Basis Set: 6-31G*
  Basis Set:
  @DF-RHF Final Energy:  -228.92308962336404
    Total Energy =                       -228.9230896233640919
  Basis Set: 6-31G*
  Basis Set:
  Basis Set: 6-31G*
  Basis Set:
  @DF-RHF Final Energy:  -228.92309170786865
    Total Energy =                       -228.9230917078687639
  Basis Set: 6-31G*
  Basis Set:
  Charge       = 0
  Multiplicity = 1
  Basis Set: 6-31G*
  Basis Set:

    Orbital Energies (a.u.)
    -----------------------

    Doubly Occupied:

       1A    -20.574325     2A    -20.543612     3A    -11.279168
       4A    -11.268259     5A     -1.387349     6A     -1.347705
       7A     -1.001429     8A     -0.844176     9A     -0.730914
      10A     -0.678675    11A     -0.652351    12A     -0.598358
      13A     -0.577588    14A     -0.536005    15A     -0.488367
      16A     -0.454842    17A     -0.426650

  @DF-RHF Final Energy:  -228.92309222450729

   => Energetics <=

    Nuclear Repulsion Energy =            135.0156816455248077
    One-Electron Energy =                -581.0979999357073211
    Two-Electron Energy =                 217.1592260656751989
    DFT Exchange-Correlation Energy =       0.0000000000000000
    Empirical Dispersion Energy =           0.0000000000000000
    PCM Polarization Energy =               0.0000000000000000
    EFP Energy =                            0.0000000000000000
    Total Energy =                       -228.9230922245073145
    Molecular point group: c1
  Basis Set: 6-31G*
  Basis Set:

  -Total Gradient:
     Atom            X                  Y                   Z
    ------   -----------------  -----------------  -----------------
       1       -0.000037823972     0.000037967005     0.000007626002
       2        0.000117811633     0.000015716762    -0.000048093004
       3       -0.000491608846    -0.008790255822    -0.001324820749
       4       -0.002067319595     0.005100152136    -0.004979856002
       5        0.000851232885     0.006172272376     0.002276701633
       6       -0.000017150723     0.000042336374    -0.000019956924
       7        0.001660525079    -0.002574204425     0.004081189600
       8       -0.000023988095    -0.000019501430     0.000002000109
       9        0.000049180273     0.000070179695    -0.000003256027
      10       -0.000040858637    -0.000054662671     0.000008465362

  **** Optimization is complete! (in 6 steps) ****
    Final optimized geometry and variables:
    Molecular point group: c1

    Geometry (in Angstrom), charge = 0, multiplicity = 1:

    H            2.088594682220    -0.714345408859    -0.529940660544
    O            1.249351934706    -0.655986995824    -0.096947098311
    C            0.742056512195     0.648907349459    -0.191294697428
    C           -0.671558282458     0.637545914942     0.376850418157
    H            0.742770423741     1.019998308465    -1.213187728189
    H            1.349426765287     1.340121990733     0.390593422826
    O           -1.398714486232    -0.472386126384    -0.053676199396
    H           -1.203555332287     1.526773602992     0.064121562831
    H           -0.614424780800     0.648473450126     1.463870521514
    H           -0.831730019701    -1.230500282620     0.005663742820

  Mulliken Charges: (a.u.)
   Center  Symbol    Alpha    Beta     Spin     Total
       1     H     0.27444  0.27444  0.00000  0.45112
       2     O     4.37827  4.37827  0.00000 -0.75654
       3     C     3.01247  3.01247  0.00000 -0.02493
       4     C     2.99481  2.99481  0.00000  0.01039
       5     H     0.42431  0.42431  0.00000  0.15138
       6     H     0.42830  0.42830  0.00000  0.14340
       7     O     4.37535  4.37535  0.00000 -0.75070
       8     H     0.41737  0.41737  0.00000  0.16526
       9     H     0.42677  0.42677  0.00000  0.14646
      10     H     0.26792  0.26792  0.00000  0.46416

   Total alpha = 17.00000, Total beta = 17.00000, Total charge =  0.00000
