                              Psi4 1.0.54 Driver

  ==> Input File <==

--------------------------------------------------------------------------
set {
	reference rhf
	basis cc-pvtz
}

set_num_threads( 4 )
memory 2 gb

molecule MOL {
0 1

H	 -0.999697	 6.033857	 4.205019
C	 -1.819058	 5.325718	 4.159695
C	 -1.677430	 4.394831	 2.960231
H	 -1.823394	 4.765055	 5.088056
H	 -2.743509	 5.892123	 4.110957
C	 -2.821678	 3.388766	 2.857759
H	 -0.734686	 3.864280	 3.028697
H	 -1.638701	 4.987078	 2.048876
C	 -2.709918	 2.447495	 1.662599
H	 -2.869849	 2.801053	 3.766110
H	 -3.761300	 3.928059	 2.779926
C	 -1.616591	 1.399085	 1.780740
H	 -3.640624	 1.900173	 1.536143
H	 -2.568954	 3.004359	 0.740889
C	 -1.180025	 0.697761	 0.509157
O	 -1.131521	 1.118598	 2.829219
C	 -2.285431	 -0.137488	 -0.145671
H	 -0.339880	 0.067427	 0.767374
H	 -0.831306	 1.449021	 -0.194547
C	 -3.646545	 0.082747	 0.508954
H	 -2.348635	 0.118247	 -1.199806
H	 -2.034895	 -1.192387	 -0.096473
C	 -4.757412	 -0.737227	 -0.138149
H	 -3.900211	 1.137405	 0.459735
H	 -3.580878	 -0.166775	 1.564416
H	 -4.867876	 -0.486707	 -1.187777
H	 -4.549650	 -1.800049	 -0.072540
H	 -5.709585	 -0.556397	 0.346597

	symmetry c1
}
set optking {
	frozen_dihedral = ("
		12 15 17 21
	")
}

ee,wfn = optimize('scf', return_wfn=True)
oeprop( wfn, 'DIPOLE', 'QUADRUPOLE', 'MULLIKEN_CHARGES')
f=open( 'psi4out.xyz', 'w' )
f.write( "28  " )
f.write( str(ee) + "\n" )
f.write( MOL.save_string_xyz() )
f.close()
--------------------------------------------------------------------------

    Molecular point group: c1
  Charge       = 0
  Multiplicity = 1
  Basis Set: CC-PVTZ
  Basis Set:
  @DF-RHF Final Energy:  -426.27970215754999
    Total Energy =                       -426.2797021575493090
    Molecular point group: c1
  Basis Set: CC-PVTZ
  Basis Set:
  Basis Set: CC-PVTZ
  Basis Set:
  @DF-RHF Final Energy:  -426.30115683640042
    Total Energy =                       -426.3011568364004233
  Basis Set: CC-PVTZ
  Basis Set:
  Basis Set: CC-PVTZ
  Basis Set:
  @DF-RHF Final Energy:  -426.30560589005256
    Total Energy =                       -426.3056058900524476
  Basis Set: CC-PVTZ
  Basis Set:
  Basis Set: CC-PVTZ
  Basis Set:
  @DF-RHF Final Energy:  -426.30451886372066
    Total Energy =                       -426.3045188637204319
  Basis Set: CC-PVTZ
  Basis Set:
  @DF-RHF Final Energy:  -426.21321998867313
    Total Energy =                       -426.2132199886736998
  @DF-RHF Final Energy:  -426.29835721415236
    Total Energy =                       -426.2983572141527020
  @DF-RHF Final Energy:  -426.30838418561643
    Total Energy =                       -426.3083841856166600
  @DF-RHF Final Energy:  -426.30887331062070
    Total Energy =                       -426.3088733106210384
  @DF-RHF Final Energy:  -426.30912737521419
    Total Energy =                       -426.3091273752149846
  @DF-RHF Final Energy:  -426.30929218116125
    Total Energy =                       -426.3092921811609131
  @DF-RHF Final Energy:  -426.30943035568544
    Total Energy =                       -426.3094303556863451
  @DF-RHF Final Energy:  -426.20088136080005
    Total Energy =                       -426.2008813607998263
  @DF-RHF Final Energy:  -426.29756943181985
    Total Energy =                       -426.2975694318199658
  @DF-RHF Final Energy:  -426.30963901423343
    Total Energy =                       -426.3096390142336531
  @DF-RHF Final Energy:  -426.26018803141994
    Total Energy =                       -426.2601880314205118
  @DF-RHF Final Energy:  -426.30818320444428
    Total Energy =                       -426.3081832044448447
  @DF-RHF Final Energy:  -426.31019566468001
    Total Energy =                       -426.3101956646796680
  @DF-RHF Final Energy:  -426.30910969614729
    Total Energy =                       -426.3091096961477433
  @DF-RHF Final Energy:  -426.31084552744585
    Total Energy =                       -426.3108455274457356
  @DF-RHF Final Energy:  -426.18041533829398
    Total Energy =                       -426.1804153382940967
  @DF-RHF Final Energy:  -426.29450403645603
    Total Energy =                       -426.2945040364560327
  @DF-RHF Final Energy:  -426.31068042919662
    Total Energy =                       -426.3106804291957133
  @DF-RHF Final Energy:  -426.22484707531237
    Total Energy =                       -426.2248470753127094
  @DF-RHF Final Energy:  -426.30345340021415
    Total Energy =                       -426.3034534002144937
  @DF-RHF Final Energy:  -426.31079040014447
    Total Energy =                       -426.3107904001446968
  @DF-RHF Final Energy:  -426.27214128743424
    Total Energy =                       -426.2721412874341240
  @DF-RHF Final Energy:  -426.31007555329177
    Total Energy =                       -426.3100755532916537
  @DF-RHF Final Energy:  -426.31090536237764
    Total Energy =                       -426.3109053623770706
  @DF-RHF Final Energy:  -426.27272254996865
    Total Energy =                       -426.2727225499683072
  @DF-RHF Final Energy:  -426.30998076949322
    Total Energy =                       -426.3099807694943593
  @DF-RHF Final Energy:  -426.31098569211338
    Total Energy =                       -426.3109856921132632
  @DF-RHF Final Energy:  -426.27168848494750
    Total Energy =                       -426.2716884849476173
  @DF-RHF Final Energy:  -426.30991401647793
    Total Energy =                       -426.3099140164777054
  @DF-RHF Final Energy:  -426.31107602371287
    Total Energy =                       -426.3110760237121895
  @DF-RHF Final Energy:  -426.31113051533828
    Total Energy =                       -426.3111305153386184
  @DF-RHF Final Energy:  -426.31117952239128
    Total Energy =                       -426.3111795223912850
  Basis Set: CC-PVTZ
  Basis Set:
  @DF-RHF Final Energy:  -426.31124579798529
    Total Energy =                       -426.3112457979850660
  Basis Set: CC-PVTZ
  Basis Set:
  Basis Set: CC-PVTZ
  Basis Set:
  @DF-RHF Final Energy:  -426.31127034909775
    Total Energy =                       -426.3112703490974127
  Basis Set: CC-PVTZ
  Basis Set:
  Basis Set: CC-PVTZ
  Basis Set:
  @DF-RHF Final Energy:  -426.31127275540109
    Total Energy =                       -426.3112727554016601
  Basis Set: CC-PVTZ
  Basis Set:
  Charge       = 0
  Multiplicity = 1
  Basis Set: CC-PVTZ
  Basis Set:

    Orbital Energies (a.u.)
    -----------------------

    Doubly Occupied:

       1A    -20.535868     2A    -11.317750     3A    -11.229382
       4A    -11.227380     5A    -11.226448     6A    -11.216216
       7A    -11.214567     8A    -11.209213     9A    -11.208968
      10A    -11.202992    11A     -1.397036    12A     -1.088822
      13A     -1.076685    14A     -1.021284    15A     -0.990408
      16A     -0.909429    17A     -0.871077    18A     -0.811504
      19A     -0.793293    20A     -0.721056    21A     -0.669511
      22A     -0.645727    23A     -0.631486    24A     -0.618256
      25A     -0.608466    26A     -0.584040    27A     -0.575555
      28A     -0.574764    29A     -0.555477    30A     -0.529645
      31A     -0.517528    32A     -0.510074    33A     -0.495464
      34A     -0.484198    35A     -0.475625    36A     -0.467734
      37A     -0.464855    38A     -0.462548    39A     -0.456053
      40A     -0.393562

  @DF-RHF Final Energy:  -426.31127371874220

   => Energetics <=

    Nuclear Repulsion Energy =            543.2732013009285765
    One-Electron Energy =               -1655.1890557888145850
    Two-Electron Energy =                 685.6045807691438085
    DFT Exchange-Correlation Energy =       0.0000000000000000
    Empirical Dispersion Energy =           0.0000000000000000
    PCM Polarization Energy =               0.0000000000000000
    EFP Energy =                            0.0000000000000000
    Total Energy =                       -426.3112737187421999
    Molecular point group: c1
  Basis Set: CC-PVTZ
  Basis Set:

  -Total Gradient:
     Atom            X                  Y                   Z
    ------   -----------------  -----------------  -----------------
       1        0.000009312827    -0.000002004383    -0.000003105364
       2        0.000001911764     0.000014806256     0.000000500363
       3       -0.000000029117    -0.000017367601     0.000003024896
       4       -0.000000370318     0.000002338876     0.000001039541
       5       -0.000001721165    -0.000000862500     0.000006975428
       6       -0.000004251684     0.000006183027     0.000000069526
       7        0.000003648590    -0.000008518046    -0.000002536788
       8       -0.000003214881     0.000000257927     0.000008215767
       9        0.000021649679    -0.000017533319     0.000021781937
      10       -0.000000661672    -0.000004018285     0.000004403657
      11       -0.000010652859     0.000012572439     0.000005210060
      12        0.000181640543    -0.000869933047     0.001094760854
      13       -0.000015584926     0.000021743673     0.000003446019
      14        0.000010107260     0.000015027572     0.000000623530
      15       -0.000124909626     0.001211597827    -0.001227827751
      16        0.000015253991     0.000061361796    -0.000022412117
      17       -0.001163460865    -0.000706933489    -0.001299684452
      18        0.000012330404    -0.000013529151    -0.000008703811
      19        0.000014945790     0.000003523173    -0.000013803608
      20       -0.000008267628     0.000030228989     0.000016642094
      21        0.001075040838     0.000295708517     0.001433354447
      22        0.000008217473     0.000001710339     0.000006318112
      23       -0.000005042793    -0.000035431930    -0.000017770944
      24       -0.000003219430    -0.000004934373    -0.000023250021
      25       -0.000008139065    -0.000005881600     0.000004572315
      26        0.000002061885     0.000000371365    -0.000003731359
      27        0.000000183889     0.000001461160     0.000007715875
      28       -0.000006778905     0.000008054784     0.000004171791

  **** Optimization is complete! (in 46 steps) ****
    Final optimized geometry and variables:
    Molecular point group: c1

    Geometry (in Angstrom), charge = 0, multiplicity = 1:

    H           -1.748338737160     4.077521496598     2.764718957182
    C           -0.941350813482     3.353917316924     2.761121322486
    C           -1.329401591208     2.100161809878     1.984793005982
    H           -0.072412985044     3.830442489270     2.320392892622
    H           -0.702302228903     3.119945526309     3.793673005964
    C           -0.220120442622     1.050280688433     1.972077973757
    H           -1.581476105814     2.370588516354     0.966945613431
    H           -2.223992204622     1.667407680481     2.426721649483
    C           -0.573675114790    -0.216119657429     1.200184551288
    H            0.681093940637     1.481288408520     1.551828923867
    H            0.012440519892     0.771842448834     2.995961845883
    C           -0.546933486564    -0.086554102588    -0.309853502839
    H            0.110451642818    -1.023407191073     1.451684125514
    H           -1.558676700243    -0.580585645638     1.482290846227
    C           -0.924780331523    -1.322511066460    -1.110554127474
    O           -0.248371767723     0.926155156916    -0.855985775469
    C            0.249890874328    -2.032403871499    -1.843714588924
    H           -1.656707854226    -0.994877730605    -1.837370499272
    H           -1.418693810756    -2.029936740511    -0.456738352517
    C            1.664289938050    -1.542195723747    -1.529375162432
    H            0.203578896410    -3.088146356924    -1.600876372605
    H            0.092684338656    -1.955569715643    -2.912485268413
    C            2.723511324401    -2.358036022527    -2.263348555763
    H            1.849394246896    -1.604456488161    -0.460106950814
    H            1.760383748617    -0.498570902340    -1.798461317406
    H            2.678944337164    -3.406044701606    -1.985682004485
    H            2.588204531702    -2.295590985300    -3.337927933510
    H            3.719550737461    -1.997229308350    -2.035173388641

  Mulliken Charges: (a.u.)
   Center  Symbol    Alpha    Beta     Spin     Total
       1     H     0.44873  0.44873  0.00000  0.10253
       2     C     3.15173  3.15173  0.00000 -0.30345
       3     C     3.08369  3.08369  0.00000 -0.16739
       4     H     0.45227  0.45227  0.00000  0.09545
       5     H     0.45739  0.45739  0.00000  0.08523
       6     C     3.08760  3.08760  0.00000 -0.17521
       7     H     0.44359  0.44359  0.00000  0.11281
       8     H     0.45883  0.45883  0.00000  0.08235
       9     C     3.12707  3.12707  0.00000 -0.25414
      10     H     0.44663  0.44663  0.00000  0.10675
      11     H     0.44818  0.44818  0.00000  0.10364
      12     C     2.86052  2.86052  0.00000  0.27896
      13     H     0.43486  0.43486  0.00000  0.13027
      14     H     0.44104  0.44104  0.00000  0.11792
      15     C     3.10325  3.10325  0.00000 -0.20650
      16     O     4.18775  4.18775  0.00000 -0.37549
      17     C     3.08983  3.08983  0.00000 -0.17966
      18     H     0.43739  0.43739  0.00000  0.12523
      19     H     0.44534  0.44534  0.00000  0.10931
      20     C     3.09579  3.09579  0.00000 -0.19158
      21     H     0.45031  0.45031  0.00000  0.09937
      22     H     0.44718  0.44718  0.00000  0.10564
      23     C     3.15177  3.15177  0.00000 -0.30354
      24     H     0.45545  0.45545  0.00000  0.08911
      25     H     0.43686  0.43686  0.00000  0.12627
      26     H     0.45670  0.45670  0.00000  0.08661
      27     H     0.45360  0.45360  0.00000  0.09279
      28     H     0.44665  0.44665  0.00000  0.10670

   Total alpha = 40.00000, Total beta = 40.00000, Total charge = -0.00000

*** Psi4 exiting successfully. Buy a developer a beer!
