  ==> Input File <==

--------------------------------------------------------------------------
set {
	reference rhf
	basis 6-31G*
}

set_num_threads( 4 )
memory 2 gb

molecule MOL {
0 1

H	 -2.301079	 0.090366	 3.189322
C	 -2.316582	 -0.300957	 2.190680
C	 -1.204760	 -0.363118	 1.494988
H	 -3.252871	 -0.634545	 1.784487
O	 -1.180634	 -0.819263	 0.215062
H	 -0.255794	 -0.040950	 1.885969
C	 0.051604	 -1.018856	 -0.387932
C	 1.043764	 0.054862	 -0.001873
H	 -0.017620	 -1.041351	 -1.469781
H	 0.437898	 -1.966374	 -0.042284
F	 2.212596	 -0.199467	 -0.571921
F	 0.652529	 1.252447	 -0.405055
F	 1.230877	 0.110694	 1.300533

	symmetry c1
}
set optking {
	frozen_dihedral = ("
		3 5 7 9
	")
}

ee = optimize('scf')
oeprop('DIPOLE', 'QUADRUPOLE', 'MULLIKEN_CHARGES')
f=open( 'psi4out.xyz', 'w' )
f.write( "13  " )
f.write( str(ee) + "\n" )
f.write( MOL.save_string_xyz() )
f.close()
--------------------------------------------------------------------------

    Molecular point group: c1
  Charge       = 0
  Multiplicity = 1
  Basis Set: 6-31G*
  Basis Set:
  @DF-RHF Final Energy:  -527.50666146960043
    Total Energy =                       -527.5066614696005445
    Molecular point group: c1
  Basis Set: 6-31G*
  Basis Set:
  Basis Set: 6-31G*
  Basis Set:
  @DF-RHF Final Energy:  -527.52357861330870
    Total Energy =                       -527.5235786133088141
  Basis Set: 6-31G*
  Basis Set:
  Basis Set: 6-31G*
  Basis Set:
  @DF-RHF Final Energy:  -527.52816270654421
    Total Energy =                       -527.5281627065442080
  Basis Set: 6-31G*
  Basis Set:
  Basis Set: 6-31G*
  Basis Set:
  @DF-RHF Final Energy:  -527.52928406087847
    Total Energy =                       -527.5292840608783536
  Basis Set: 6-31G*
  Basis Set:
  @DF-RHF Final Energy:  -527.52977382308472
    Total Energy =                       -527.5297738230849518
  @DF-RHF Final Energy:  -527.53003469993246
    Total Energy =                       -527.5300346999322301
  @DF-RHF Final Energy:  -527.53012909120434
    Total Energy =                       -527.5301290912045715
  @DF-RHF Final Energy:  -527.53022058059594
    Total Energy =                       -527.5302205805962785
  @DF-RHF Final Energy:  -527.53034986011937
    Total Energy =                       -527.5303498601191450
  Basis Set: 6-31G*
  Basis Set:
  @DF-RHF Final Energy:  -527.53043387959065
    Total Energy =                       -527.5304338795908734
  Basis Set: 6-31G*
  Basis Set:
  Basis Set: 6-31G*
  Basis Set:
  @DF-RHF Final Energy:  -527.53045648564421
    Total Energy =                       -527.5304564856438674
  Basis Set: 6-31G*
  Basis Set:
  Basis Set: 6-31G*
  Basis Set:
  @DF-RHF Final Energy:  -527.53046371450114
    Total Energy =                       -527.5304637145012521
  Basis Set: 6-31G*
  Basis Set:
  Charge       = 0
  Multiplicity = 1
  Basis Set: 6-31G*
  Basis Set:

    Orbital Energies (a.u.)
    -----------------------

    Doubly Occupied:

       1A    -26.346541     2A    -26.346169     3A    -26.343675
       4A    -20.602716     5A    -11.506800     6A    -11.317815
       7A    -11.294911     8A    -11.217576     9A     -1.744610
      10A     -1.641741    11A     -1.641463    12A     -1.430444
      13A     -1.081688    14A     -1.018387    15A     -0.927263
      16A     -0.837561    17A     -0.833024    18A     -0.830313
      19A     -0.774381    20A     -0.719638    21A     -0.713588
      22A     -0.693431    23A     -0.678712    24A     -0.662298
      25A     -0.656642    26A     -0.645699    27A     -0.637261
      28A     -0.595125    29A     -0.561356    30A     -0.521016
      31A     -0.491615    32A     -0.355718

  @DF-RHF Final Energy:  -527.53046467214779

   => Energetics <=

    Nuclear Repulsion Energy =            417.6961722539221000
    One-Electron Energy =               -1559.1149204225835092
    Two-Electron Energy =                 613.8882834965138500
    DFT Exchange-Correlation Energy =       0.0000000000000000
    Empirical Dispersion Energy =           0.0000000000000000
    PCM Polarization Energy =               0.0000000000000000
    EFP Energy =                            0.0000000000000000
    Total Energy =                       -527.5304646721474455
    Molecular point group: c1
  Basis Set: 6-31G*
  Basis Set:

  -Total Gradient:
     Atom            X                  Y                   Z
    ------   -----------------  -----------------  -----------------
       1        0.000020327179     0.000038331373     0.000006569917
       2       -0.000010853227    -0.000000747926    -0.000021729670
       3       -0.000969899514     0.004772171124    -0.001620646573
       4        0.000000676335    -0.000006918124     0.000010264708
       5        0.001404085501    -0.005972681040     0.002477577019
       6        0.000011469817     0.000059976898    -0.000017278631
       7       -0.000314459087    -0.004828923264    -0.000627983534
       8       -0.000026085743     0.000047561595     0.000071009779
       9       -0.000124870262     0.005964429991    -0.000225834404
      10       -0.000006602590     0.000002304789    -0.000010956183
      11        0.000024173401    -0.000010991262    -0.000002849008
      12       -0.000010497023    -0.000042901354    -0.000022094988
      13        0.000002535217    -0.000021612794    -0.000016048431

  **** Optimization is complete! (in 13 steps) ****
    Final optimized geometry and variables:
    Molecular point group: c1

    Geometry (in Angstrom), charge = 0, multiplicity = 1:

    H           -2.554446602490     0.287470386858     2.706720161445
    C           -2.458321611202     0.004120887341     1.676285699193
    C           -1.365019929971    -0.589916794823     1.258086533815
    H           -3.274296217889     0.210131997467     1.009237917222
    O           -1.242104086414    -1.031774586472    -0.024682765131
    H           -0.535942134766    -0.807272272658     1.906622459493
    C           -0.003764014419    -1.022337825249    -0.656748497064
    C            0.813619984118     0.243228219911    -0.474526010266
    H           -0.206521362804    -1.062623873218    -1.716536997424
    H            0.612308867229    -1.863759113112    -0.359943916012
    F            1.846725482286     0.195994083048    -1.302631033634
    F            0.116530992145     1.325626120564    -0.752001044786
    F            1.302002239759     0.380823240562     0.748405357010

  Mulliken Charges: (a.u.)
   Center  Symbol    Alpha    Beta     Spin     Total
       1     H     0.40692  0.40692  0.00000  0.18616
       2     C     3.22499  3.22499  0.00000 -0.44998
       3     C     2.91094  2.91094  0.00000  0.17813
       4     H     0.40217  0.40217  0.00000  0.19567
       5     O     4.30751  4.30751  0.00000 -0.61501
       6     H     0.40146  0.40146  0.00000  0.19708
       7     C     3.04235  3.04235  0.00000 -0.08471
       8     C     2.46977  2.46977  0.00000  1.06045
       9     H     0.39184  0.39184  0.00000  0.21632
      10     H     0.40509  0.40509  0.00000  0.18982
      11     F     4.68227  4.68227  0.00000 -0.36454
      12     F     4.67438  4.67438  0.00000 -0.34876
      13     F     4.68031  4.68031  0.00000 -0.36063

   Total alpha = 32.00000, Total beta = 32.00000, Total charge = -0.00000
