  ==> Input File <==

--------------------------------------------------------------------------
set {
	reference rhf
	basis 6-31G*
}

set_num_threads( 4 )
memory 2 gb

molecule MOL {
0 1

O	 3.225979	 0.970355	 -0.599647
C	 2.701189	 0.057885	 -0.047330
C	 1.245376	 -0.013843	 0.345420
O	 3.347903	 -1.046386	 0.304773
C	 0.791771	 1.176876	 1.187172
H	 0.672538	 -0.105663	 -0.571433
H	 1.100870	 -0.948928	 0.880613
C	 -0.654529	 1.067662	 1.681928
H	 0.916138	 2.090093	 0.612989
H	 1.453522	 1.268278	 2.041662
C	 -1.718499	 1.117523	 0.581660
H	 -0.835231	 1.884230	 2.377117
H	 -0.772656	 0.150505	 2.257149
C	 -3.145550	 1.115877	 1.133494
H	 -1.567440	 2.011344	 -0.021735
H	 -1.601422	 0.271198	 -0.091392
C	 -4.217236	 1.160220	 0.042782
H	 -3.275165	 1.968205	 1.798304
H	 -3.293852	 0.227706	 1.745751
C	 -5.639424	 1.162162	 0.602316
H	 -4.069905	 2.046623	 -0.570592
H	 -4.092013	 0.306670	 -0.620206
H	 -6.376043	 1.193925	 -0.194547
H	 -5.807607	 2.023543	 1.242576
H	 -5.829576	 0.270458	 1.193061
C	 4.728119	 -1.109107	 -0.004993
H	 4.882018	 -1.033965	 -1.071845
H	 5.068212	 -2.067527	 0.355250
H	 5.265056	 -0.311663	 0.488280

	symmetry c1
}
set optking {
	frozen_dihedral = ("
		6 3 2 1
	")
}

ee = optimize('scf')
oeprop('DIPOLE', 'QUADRUPOLE', 'MULLIKEN_CHARGES')
f=open( 'psi4out.xyz', 'w' )
f.write( "29  " )
f.write( str(ee) + "\n" )
f.write( MOL.save_string_xyz() )
f.close()
--------------------------------------------------------------------------

    Molecular point group: c1
  Charge       = 0
  Multiplicity = 1
  Basis Set: 6-31G*
  Basis Set:
  @DF-RHF Final Energy:  -501.04211846401881
    Total Energy =                       -501.0421184640191541
    Molecular point group: c1
  Basis Set: 6-31G*
  Basis Set:
  Basis Set: 6-31G*
  Basis Set:
  @DF-RHF Final Energy:  -501.04270821602074
    Total Energy =                       -501.0427082160206282
  Basis Set: 6-31G*
  Basis Set:
  Basis Set: 6-31G*
  Basis Set:
  @DF-RHF Final Energy:  -501.04189314919211
    Total Energy =                       -501.0418931491917647
  Basis Set: 6-31G*
  Basis Set:
  Basis Set: 6-31G*
  Basis Set:
  @DF-RHF Final Energy:  -501.04279801595601
    Total Energy =                       -501.0427980159561230
  Basis Set: 6-31G*
  Basis Set:
  Basis Set: 6-31G*
  Basis Set:
  @DF-RHF Final Energy:  -501.04275996626518
    Total Energy =                       -501.0427599662650664
  Basis Set: 6-31G*
  Basis Set:
  Basis Set: 6-31G*
  Basis Set:
  @DF-RHF Final Energy:  -501.04280293712395
    Total Energy =                       -501.0428029371241792
  Basis Set: 6-31G*
  Basis Set:
  Charge       = 0
  Multiplicity = 1
  Basis Set: 6-31G*
  Basis Set:

    Orbital Energies (a.u.)
    -----------------------

    Doubly Occupied:

       1A    -20.605557     2A    -20.541990     3A    -11.371272
       4A    -11.280584     5A    -11.233256     6A    -11.224218
       7A    -11.219317     8A    -11.216344     9A    -11.215823
      10A    -11.214739    11A    -11.209014    12A     -1.469316
      13A     -1.361086    14A     -1.098931    15A     -1.066916
      16A     -1.018987    17A     -0.977032    18A     -0.929630
      19A     -0.862420    20A     -0.799091    21A     -0.790687
      22A     -0.767714    23A     -0.699403    24A     -0.680301
      25A     -0.672018    26A     -0.651457    27A     -0.628172
      28A     -0.604075    29A     -0.594341    30A     -0.579370
      31A     -0.571861    32A     -0.543268    33A     -0.540867
      34A     -0.530310    35A     -0.517954    36A     -0.510398
      37A     -0.496401    38A     -0.478993    39A     -0.470130
      40A     -0.462709    41A     -0.460990    42A     -0.452762
      43A     -0.445108    44A     -0.430049

  @DF-RHF Final Energy:  -501.04280357756556

   => Energetics <=

    Nuclear Repulsion Energy =            610.3611619696573598
    One-Electron Energy =               -1891.8182067647062468
    Two-Electron Energy =                 780.4142412174832089
    DFT Exchange-Correlation Energy =       0.0000000000000000
    Empirical Dispersion Energy =           0.0000000000000000
    PCM Polarization Energy =               0.0000000000000000
    EFP Energy =                            0.0000000000000000
    Total Energy =                       -501.0428035775656781
    Molecular point group: c1
  Basis Set: 6-31G*
  Basis Set:

  -Total Gradient:
     Atom            X                  Y                   Z
    ------   -----------------  -----------------  -----------------
       1       -0.000187898848    -0.000362746036    -0.000694944914
       2        0.000252713929     0.000682290025     0.001030137080
       3        0.000006494734    -0.001067906433    -0.000325264074
       4       -0.000025830541     0.000009254694    -0.000024058707
       5        0.000012934094     0.000020068243     0.000047717285
       6       -0.000088079536     0.000725159962    -0.000019438285
       7        0.000007563550    -0.000016826445     0.000006153531
       8       -0.000006395189     0.000024825302    -0.000027558919
       9        0.000005897457     0.000007367745     0.000020097755
      10       -0.000017462217     0.000001733648    -0.000015203019
      11        0.000008920066    -0.000029413553     0.000004312038
      12       -0.000003273156     0.000005549293    -0.000002252143
      13        0.000018428184    -0.000002742310    -0.000009002234
      14        0.000000433760     0.000014322340     0.000008115348
      15        0.000008084888    -0.000003742909     0.000004138528
      16        0.000015664268    -0.000013386482    -0.000010593877
      17        0.000002095663     0.000001925352    -0.000001028766
      18       -0.000003857739     0.000003057021     0.000004972101
      19        0.000000945138     0.000001851109    -0.000003439560
      20        0.000001220802    -0.000001410638     0.000001309951
      21       -0.000001537647     0.000000859539     0.000000374966
      22        0.000001251127    -0.000000030484    -0.000001154740
      23        0.000000743448    -0.000000572521    -0.000000317041
      24        0.000000479646    -0.000000342539    -0.000000199607
      25       -0.000000466446    -0.000000046565     0.000000184825
      26       -0.000025786107    -0.000000058896     0.000009716356
      27        0.000002338849     0.000000101171    -0.000001743201
      28        0.000008847616    -0.000000490044    -0.000001837385
      29        0.000005530186     0.000001350416     0.000000806712

  **** Optimization is complete! (in 7 steps) ****
    Final optimized geometry and variables:
    Molecular point group: c1

    Geometry (in Angstrom), charge = 0, multiplicity = 1:

    O            3.043032650053     0.482926117638    -1.016690506815
    C            2.584956375482    -0.466987393273    -0.465568764777
    C            1.143357741511    -0.586482680731    -0.032425039904
    O            3.292326334927    -1.551313578234    -0.183018952691
    C            0.689801395630     0.643592477387     0.763888862039
    H            0.558638785625    -0.678638641684    -0.942198095321
    H            1.011334636755    -1.495646392248     0.540514460531
    C           -0.764518852497     0.570479518022     1.240684836947
    H            0.838655045119     1.529429072278     0.156186806002
    H            1.334691844316     0.753227460204     1.632207758865
    C           -1.810345815886     0.597062522812     0.122553193934
    H           -0.943024069955     1.413783691099     1.903901246088
    H           -0.903453376691    -0.324074179893     1.845559526973
    C           -3.244988114627     0.641034258073     0.652795909030
    H           -1.634109698975     1.464091188046    -0.511875190625
    H           -1.698862109601    -0.276386836977    -0.515682209366
    C           -4.299682789959     0.660377853598    -0.455062842918
    H           -3.369492157040     1.520989067514     1.281626900624
    H           -3.417547493431    -0.219742989654     1.297001046223
    C           -5.729587927001     0.707728905235     0.082354103676
    H           -4.128197510025     1.519449450378    -1.100124647257
    H           -4.179417641214    -0.220435544349    -1.082302045583
    H           -6.453819029173     0.720250403930    -0.726291086183
    H           -5.892388382647     1.596309103277     0.685780289111
    H           -5.943533070167    -0.156800088205     0.704538359487
    C            4.653165237631    -1.549386284126    -0.575914568320
    H            4.738719361963    -1.437249262732    -1.647105843088
    H            5.050868031339    -2.503186463915    -0.266074264611
    H            5.186804751313    -0.744886304487    -0.090845712135

  Mulliken Charges: (a.u.)
   Center  Symbol    Alpha    Beta     Spin     Total
       1     O     4.28748  4.28748  0.00000 -0.57495
       2     C     2.60648  2.60648  0.00000  0.78704
       3     C     3.20718  3.20718  0.00000 -0.41436
       4     O     4.30440  4.30440  0.00000 -0.60881
       5     C     3.16189  3.16189  0.00000 -0.32379
       6     H     0.39905  0.39905  0.00000  0.20190
       7     H     0.40108  0.40108  0.00000  0.19784
       8     C     3.15510  3.15510  0.00000 -0.31020
       9     H     0.40406  0.40406  0.00000  0.19187
      10     H     0.41601  0.41601  0.00000  0.16798
      11     C     3.15536  3.15536  0.00000 -0.31072
      12     H     0.41831  0.41831  0.00000  0.16339
      13     H     0.42294  0.42294  0.00000  0.15412
      14     C     3.15047  3.15047  0.00000 -0.30095
      15     H     0.42100  0.42100  0.00000  0.15801
      16     H     0.42338  0.42338  0.00000  0.15324
      17     C     3.15155  3.15155  0.00000 -0.30310
      18     H     0.42339  0.42339  0.00000  0.15322
      19     H     0.42402  0.42402  0.00000  0.15197
      20     C     3.23939  3.23939  0.00000 -0.47879
      21     H     0.42237  0.42237  0.00000  0.15527
      22     H     0.42331  0.42331  0.00000  0.15339
      23     H     0.41909  0.41909  0.00000  0.16182
      24     H     0.42159  0.42159  0.00000  0.15683
      25     H     0.42190  0.42190  0.00000  0.15619
      26     C     3.09357  3.09357  0.00000 -0.18713
      27     H     0.40868  0.40868  0.00000  0.18264
      28     H     0.40846  0.40846  0.00000  0.18308
      29     H     0.40850  0.40850  0.00000  0.18300

   Total alpha = 44.00000, Total beta = 44.00000, Total charge = -0.00000
