  ==> Input File <==

--------------------------------------------------------------------------
set {
	reference rhf
	basis 6-31G*
}

set_num_threads( 4 )
memory 2 gb

molecule MOL {
0 1

O	 -0.988096	 -1.408613	 0.050699
C	 -0.676749	 -0.249230	 -0.009274
C	 -1.746085	 0.827156	 -0.009539
N	 0.623947	 0.147590	 -0.102813
H	 -1.701500	 1.431508	 -0.908902
H	 -2.703425	 0.330732	 0.036390
H	 -1.647323	 1.487769	 0.845106
C	 0.955164	 1.236016	 -1.001423
C	 1.746580	 -0.642241	 0.353374
H	 1.720147	 1.857604	 -0.549265
H	 0.076179	 1.828727	 -1.185864
H	 1.333546	 0.863301	 -1.950809
H	 2.537487	 0.022115	 0.680690
H	 1.478411	 -1.267119	 1.190362
H	 2.145941	 -1.275191	 -0.437005

	symmetry c1
}
set optking {
	frozen_dihedral = ("
		8 4 2 3
	")
}

ee = optimize('scf')
oeprop('DIPOLE', 'QUADRUPOLE', 'MULLIKEN_CHARGES')
f=open( 'psi4out.xyz', 'w' )
f.write( "15  " )
f.write( str(ee) + "\n" )
f.write( MOL.save_string_xyz() )
f.close()
--------------------------------------------------------------------------

    Molecular point group: c1
  Charge       = 0
  Multiplicity = 1
  Basis Set: 6-31G*
  Basis Set:
  @DF-RHF Final Energy:  -286.01674401729110
    Total Energy =                       -286.0167440172911597
    Molecular point group: c1
  Basis Set: 6-31G*
  Basis Set:
  Basis Set: 6-31G*
  Basis Set:
  @DF-RHF Final Energy:  -286.02313501968615
    Total Energy =                       -286.0231350196862650
  Basis Set: 6-31G*
  Basis Set:
  Basis Set: 6-31G*
  Basis Set:
  @DF-RHF Final Energy:  -286.02666104288687
    Total Energy =                       -286.0266610428869853
  Basis Set: 6-31G*
  Basis Set:
  Basis Set: 6-31G*
  Basis Set:
  @DF-RHF Final Energy:  -286.02698251693403
    Total Energy =                       -286.0269825169340265
  Basis Set: 6-31G*
  Basis Set:
  Basis Set: 6-31G*
  Basis Set:
  @DF-RHF Final Energy:  -286.02762960349799
    Total Energy =                       -286.0276296034979850
  Basis Set: 6-31G*
  Basis Set:
  Basis Set: 6-31G*
  Basis Set:
  @DF-RHF Final Energy:  -286.02776679963176
    Total Energy =                       -286.0277667996318769
  Basis Set: 6-31G*
  Basis Set:
  Basis Set: 6-31G*
  Basis Set:
  @DF-RHF Final Energy:  -286.02777636833650
    Total Energy =                       -286.0277763683365038
  Basis Set: 6-31G*
  Basis Set:
  Charge       = 0
  Multiplicity = 1
  Basis Set: 6-31G*
  Basis Set:

    Orbital Energies (a.u.)
    -----------------------

    Doubly Occupied:

       1A    -20.524613     2A    -15.580832     3A    -11.342631
       4A    -11.265267     5A    -11.246143     6A    -11.228541
       7A     -1.391746     8A     -1.242538     9A     -1.013657
      10A     -0.969845    11A     -0.914326    12A     -0.736745
      13A     -0.680620    14A     -0.658204    15A     -0.650713
      16A     -0.593365    17A     -0.578340    18A     -0.569194
      19A     -0.560316    20A     -0.542112    21A     -0.527402
      22A     -0.500419    23A     -0.416542    24A     -0.373426

  @DF-RHF Final Energy:  -286.02777709255531

   => Energetics <=

    Nuclear Repulsion Energy =            252.7529076984367009
    One-Electron Energy =                -889.3463007693023883
    Two-Electron Energy =                 350.5656159783104613
    DFT Exchange-Correlation Energy =       0.0000000000000000
    Empirical Dispersion Energy =           0.0000000000000000
    PCM Polarization Energy =               0.0000000000000000
    EFP Energy =                            0.0000000000000000
    Total Energy =                       -286.0277770925551977
    Molecular point group: c1
  Basis Set: 6-31G*
  Basis Set:

  -Total Gradient:
     Atom            X                  Y                   Z
    ------   -----------------  -----------------  -----------------
       1        0.000019619188     0.000016384226     0.000016626848
       2        0.000905327487    -0.002218130887    -0.006962549040
       3       -0.000166061304     0.000516670686     0.003728897973
       4       -0.001783116344     0.004463698081     0.005951883261
       5       -0.000008849262    -0.000013040363    -0.000013058334
       6       -0.000013410705     0.000005684679    -0.000012759353
       7       -0.000003078024    -0.000012587849    -0.000022591617
       8        0.001117888567    -0.002749590165    -0.002673048408
       9       -0.000035157936    -0.000003146473    -0.000036760343
      10       -0.000006543089    -0.000006908367     0.000001300171
      11       -0.000006612052    -0.000006577263     0.000002790001
      12       -0.000004296115     0.000001655067     0.000010064129
      13       -0.000007788416     0.000009609909     0.000004686645
      14       -0.000015626342    -0.000010061039    -0.000002117458
      15        0.000007704346     0.000006339760     0.000006635525

  **** Optimization is complete! (in 8 steps) ****
    Final optimized geometry and variables:
    Molecular point group: c1

    Geometry (in Angstrom), charge = 0, multiplicity = 1:

    O           -0.877131141443    -1.397274160623     0.351112880427
    C           -0.657721057729    -0.242386786090     0.116821915424
    C           -1.799454390254     0.738882602908    -0.068346449682
    N            0.618347955974     0.270886403175     0.115083421707
    H           -1.931509598979     0.996948867853    -1.114538932470
    H           -2.701757440262     0.258358212313     0.279801117478
    H           -1.631584985133     1.652852344076     0.488133183582
    C            0.979982324263     1.322875203342    -0.817457545536
    C            1.683426991337    -0.687875181557     0.355168515117
    H            1.886346053307     1.804879123738    -0.473699751720
    H            0.209350443908     2.077107405978    -0.874149680149
    H            1.160649466504     0.935228346818    -1.818863730723
    H            2.582496509279    -0.146152439645     0.622561715539
    H            1.408959846530    -1.341047466347     1.167163474567
    H            1.890623019421    -1.298737164013    -0.520625754505

  Mulliken Charges: (a.u.)
   Center  Symbol    Alpha    Beta     Spin     Total
       1     O     4.29417  4.29417  0.00000 -0.58834
       2     C     2.63364  2.63364  0.00000  0.73271
       3     C     3.29521  3.29521  0.00000 -0.59041
       4     N     3.81460  3.81460  0.00000 -0.62920
       5     H     0.40658  0.40658  0.00000  0.18684
       6     H     0.39161  0.39161  0.00000  0.21677
       7     H     0.40538  0.40538  0.00000  0.18923
       8     C     3.14957  3.14957  0.00000 -0.29915
       9     C     3.14338  3.14338  0.00000 -0.28675
      10     H     0.40904  0.40904  0.00000  0.18192
      11     H     0.40745  0.40745  0.00000  0.18510
      12     H     0.41757  0.41757  0.00000  0.16486
      13     H     0.41833  0.41833  0.00000  0.16333
      14     H     0.39437  0.39437  0.00000  0.21126
      15     H     0.41909  0.41909  0.00000  0.16183

   Total alpha = 24.00000, Total beta = 24.00000, Total charge =  0.00000
