  ==> Input File <==

--------------------------------------------------------------------------
set {
	reference rhf
	basis 6-31G*
}

set_num_threads( 4 )
memory 2 gb

molecule MOL {
0 1

H	 1.148083	 -1.049780	 0.784252
O	 1.319262	 -0.618148	 -0.041729
C	 0.709265	 0.639550	 -0.033818
C	 0.045408	 1.011689	 -1.333582
H	 1.492441	 1.354060	 0.192706
H	 -0.019649	 0.711059	 0.772778
C	 0.139627	 0.332145	 -2.458796
H	 -0.543312	 1.915492	 -1.301493
H	 0.731747	 -0.561991	 -2.531906
H	 -0.363291	 0.656582	 -3.351988

	symmetry c1
}
set optking {
	frozen_dihedral = ("
		5 3 2 1
	")
}

ee = optimize('scf')
oeprop('DIPOLE', 'QUADRUPOLE', 'MULLIKEN_CHARGES')
f=open( 'psi4out.xyz', 'w' )
f.write( "10  " )
f.write( str(ee) + "\n" )
f.write( MOL.save_string_xyz() )
f.close()
--------------------------------------------------------------------------

    Molecular point group: c1
  Charge       = 0
  Multiplicity = 1
  Basis Set: 6-31G*
  Basis Set:
  @DF-RHF Final Energy:  -191.91304176609481
    Total Energy =                       -191.9130417660948353
    Molecular point group: c1
  Basis Set: 6-31G*
  Basis Set:
  Basis Set: 6-31G*
  Basis Set:
  @DF-RHF Final Energy:  -191.91425421491056
    Total Energy =                       -191.9142542149105566
  Basis Set: 6-31G*
  Basis Set:
  Basis Set: 6-31G*
  Basis Set:
  @DF-RHF Final Energy:  -191.91461381730122
    Total Energy =                       -191.9146138173012730
  Basis Set: 6-31G*
  Basis Set:
  Basis Set: 6-31G*
  Basis Set:
  @DF-RHF Final Energy:  -191.91463211652891
    Total Energy =                       -191.9146321165289351
  Basis Set: 6-31G*
  Basis Set:
  Basis Set: 6-31G*
  Basis Set:
  @DF-RHF Final Energy:  -191.91463410858142
    Total Energy =                       -191.9146341085814242
  Basis Set: 6-31G*
  Basis Set:
  Charge       = 0
  Multiplicity = 1
  Basis Set: 6-31G*
  Basis Set:

    Orbital Energies (a.u.)
    -----------------------

    Doubly Occupied:

       1A    -20.558818     2A    -11.278644     3A    -11.223381
       4A    -11.209465     5A     -1.367139     6A     -1.052998
       7A     -0.922855     8A     -0.754174     9A     -0.707406
      10A     -0.644002    11A     -0.610168    12A     -0.581867
      13A     -0.511123    14A     -0.494696    15A     -0.448464
      16A     -0.355269

  @DF-RHF Final Energy:  -191.91463420411441

   => Energetics <=

    Nuclear Repulsion Energy =            119.3492403148851935
    One-Electron Energy =                -497.0868098961371402
    Two-Electron Energy =                 185.8229353771374690
    DFT Exchange-Correlation Energy =       0.0000000000000000
    Empirical Dispersion Energy =           0.0000000000000000
    PCM Polarization Energy =               0.0000000000000000
    EFP Energy =                            0.0000000000000000
    Total Energy =                       -191.9146342041144635
    Molecular point group: c1
  Basis Set: 6-31G*
  Basis Set:

  -Total Gradient:
     Atom            X                  Y                   Z
    ------   -----------------  -----------------  -----------------
       1       -0.000588723618    -0.000309903341    -0.000329795325
       2        0.000780687170     0.000406262277     0.000237160272
       3       -0.000291993959    -0.000212532415     0.000697700862
       4       -0.000048612993    -0.000015220808     0.000027734950
       5        0.000143472122     0.000110167251    -0.000603775473
       6       -0.000013152471     0.000019944309    -0.000016933409
       7       -0.000033045678    -0.000019835881     0.000005763558
       8        0.000017416284     0.000005293378    -0.000006160709
       9        0.000015246437     0.000005836167    -0.000004696768
      10        0.000018706703     0.000009989062    -0.000006997959

  **** Optimization is complete! (in 6 steps) ****
    Final optimized geometry and variables:
    Molecular point group: c1

    Geometry (in Angstrom), charge = 0, multiplicity = 1:

    H            0.613741651609    -1.385960303967     1.577995379211
    O            0.776014039693    -0.869459053491     0.803786569230
    C            0.088676884883     0.349387793213     0.887043839633
    C           -0.520890956245     0.726635772461    -0.433368872214
    H            0.772514554582     1.137158187584     1.198130632298
    H           -0.697989639677     0.302833047111     1.638391999041
    C           -0.494631161654    -0.010109308657    -1.524385485647
    H           -1.004119080271     1.691458954923    -0.444172045849
    H           -0.013430981830    -0.969558688972    -1.541827872683
    H           -0.950835048037     0.331356483309    -2.436427528859

  Mulliken Charges: (a.u.)
   Center  Symbol    Alpha    Beta     Spin     Total
       1     H     0.27785  0.27785  0.00000  0.44430
       2     O     4.36966  4.36966  0.00000 -0.73932
       3     C     2.99966  2.99966  0.00000  0.00068
       4     C     3.08913  3.08913  0.00000 -0.17826
       5     H     0.42081  0.42081  0.00000  0.15838
       6     H     0.42684  0.42684  0.00000  0.14632
       7     C     3.19030  3.19030  0.00000 -0.38059
       8     H     0.41269  0.41269  0.00000  0.17461
       9     H     0.39863  0.39863  0.00000  0.20274
      10     H     0.41443  0.41443  0.00000  0.17114

   Total alpha = 16.00000, Total beta = 16.00000, Total charge =  0.00000
