  ==> Input File <==

--------------------------------------------------------------------------
set {
	reference rhf
	basis 6-31G*
}

set_num_threads( 4 )
memory 2 gb

molecule MOL {
0 1

O	 -0.097949	 -1.724074	 -2.545143
C	 -0.558309	 -0.688266	 -2.171506
C	 -0.889235	 -0.467034	 -0.705952
C	 -0.804178	 0.460720	 -3.123743
C	 0.379448	 -0.143569	 0.099626
H	 -1.334788	 -1.380726	 -0.327858
H	 -1.614223	 0.334214	 -0.594505
C	 1.631333	 -0.777471	 -0.511575
H	 0.482768	 0.934507	 0.149241
H	 0.263088	 -0.495696	 1.123449
C	 2.915987	 -0.544314	 0.291766
H	 1.766672	 -0.399098	 -1.523130
H	 1.471257	 -1.849544	 -0.605828
C	 3.373361	 0.914346	 0.347591
H	 3.708709	 -1.142521	 -0.150311
H	 2.780642	 -0.921148	 1.303579
H	 3.506512	 1.320010	 -0.651625
H	 4.322697	 0.999599	 0.867103
H	 2.660624	 1.545032	 0.868198
H	 -1.872017	 0.646652	 -3.203827
H	 -0.406904	 0.223363	 -4.100790
H	 -0.347508	 1.373155	 -2.751293

	symmetry c1
}
set optking {
	frozen_dihedral = ("
		6 3 5 8
	")
}

ee = optimize('scf')
oeprop('DIPOLE', 'QUADRUPOLE', 'MULLIKEN_CHARGES')
f=open( 'psi4out.xyz', 'w' )
f.write( "22  " )
f.write( str(ee) + "\n" )
f.write( MOL.save_string_xyz() )
f.close()
--------------------------------------------------------------------------

    Molecular point group: c1
  Charge       = 0
  Multiplicity = 1
  Basis Set: 6-31G*
  Basis Set:
  @DF-RHF Final Energy:  -348.08843996270474
    Total Energy =                       -348.0884399627046832
    Molecular point group: c1
  Basis Set: 6-31G*
  Basis Set:
  Basis Set: 6-31G*
  Basis Set:
  @DF-RHF Final Energy:  -348.09171277211385
    Total Energy =                       -348.0917127721137376
  Basis Set: 6-31G*
  Basis Set:
  Basis Set: 6-31G*
  Basis Set:
  @DF-RHF Final Energy:  -348.09184129687594
    Total Energy =                       -348.0918412968759981
  Basis Set: 6-31G*
  Basis Set:
  Basis Set: 6-31G*
  Basis Set:
  @DF-RHF Final Energy:  -348.09288391582106
    Total Energy =                       -348.0928839158209485
  Basis Set: 6-31G*
  Basis Set:
  @DF-RHF Final Energy:  -348.09320603827132
    Total Energy =                       -348.0932060382713189
  @DF-RHF Final Energy:  -348.09334485310887
    Total Energy =                       -348.0933448531091017
  @DF-RHF Final Energy:  -348.09345822251316
    Total Energy =                       -348.0934582225133909
  @DF-RHF Final Energy:  -348.09368336302521
    Total Energy =                       -348.0936833630249794
  @DF-RHF Final Energy:  -348.09372052599309
    Total Energy =                       -348.0937205259931488
  Basis Set: 6-31G*
  Basis Set:
  @DF-RHF Final Energy:  -348.09368320324904
    Total Energy =                       -348.0936832032491566
  Basis Set: 6-31G*
  Basis Set:
  Basis Set: 6-31G*
  Basis Set:
  @DF-RHF Final Energy:  -348.09373168839642
    Total Energy =                       -348.0937316883965309
  Basis Set: 6-31G*
  Basis Set:
  Basis Set: 6-31G*
  Basis Set:
  @DF-RHF Final Energy:  -348.09373469181855
    Total Energy =                       -348.0937346918184971
  Basis Set: 6-31G*
  Basis Set:
  Charge       = 0
  Multiplicity = 1
  Basis Set: 6-31G*
  Basis Set:

    Orbital Energies (a.u.)
    -----------------------

    Doubly Occupied:

       1A    -20.547882     2A    -11.324532     3A    -11.232067
       4A    -11.229429     5A    -11.227823     6A    -11.220595
       7A    -11.220002     8A    -11.213293     9A     -1.393235
      10A     -1.095089    11A     -1.043523    12A     -0.996732
      13A     -0.939441    14A     -0.861709    15A     -0.791846
      16A     -0.725922    17A     -0.656918    18A     -0.643761
      19A     -0.627382    20A     -0.621762    21A     -0.598606
      22A     -0.578791    23A     -0.568694    24A     -0.543250
      25A     -0.535951    26A     -0.520381    27A     -0.501184
      28A     -0.486073    29A     -0.471036    30A     -0.462479
      31A     -0.453688    32A     -0.397755

  @DF-RHF Final Energy:  -348.09373525332398

   => Energetics <=

    Nuclear Repulsion Energy =            382.5619373950850104
    One-Electron Energy =               -1229.8496819707834220
    Two-Electron Energy =                 499.1940093223744839
    DFT Exchange-Correlation Energy =       0.0000000000000000
    Empirical Dispersion Energy =           0.0000000000000000
    PCM Polarization Energy =               0.0000000000000000
    EFP Energy =                            0.0000000000000000
    Total Energy =                       -348.0937352533239277
    Molecular point group: c1
  Basis Set: 6-31G*
  Basis Set:

  -Total Gradient:
     Atom            X                  Y                   Z
    ------   -----------------  -----------------  -----------------
       1       -0.000031988194     0.000023615145     0.000013961996
       2        0.000019770114     0.000037225819    -0.000025698563
       3        0.004152198055    -0.002764773877    -0.005880225422
       4        0.000002745271    -0.000023464925    -0.000036207351
       5       -0.001361504442    -0.004065570423     0.004729725296
       6       -0.003202963118     0.003360964822     0.003853808118
       7       -0.000030260947    -0.000014776201     0.000001455230
       8        0.000452170024     0.003371887345    -0.002689493795
       9        0.000022300509     0.000012942636     0.000039056235
      10       -0.000024389390     0.000012245424    -0.000021236154
      11       -0.000007233668     0.000030794052    -0.000009757704
      12        0.000004397979    -0.000007168266     0.000030335143
      13        0.000042212859     0.000018990493     0.000012803755
      14        0.000015194956    -0.000012659427    -0.000001457232
      15       -0.000005353673    -0.000007904609    -0.000001996103
      16       -0.000012109122     0.000006983130     0.000000889819
      17       -0.000002330196     0.000004180702    -0.000006308894
      18        0.000004301960     0.000006537528    -0.000002081571
      19       -0.000009783836    -0.000003698421     0.000002857439
      20       -0.000009188591     0.000003742578    -0.000003198255
      21       -0.000008005708     0.000013528939    -0.000016495545
      22       -0.000010180839    -0.000003622463     0.000009263553

  **** Optimization is complete! (in 13 steps) ****
    Final optimized geometry and variables:
    Molecular point group: c1

    Geometry (in Angstrom), charge = 0, multiplicity = 1:

    O           -1.385972975243    -1.482592273271    -1.598149762149
    C           -1.431906298612    -0.387844294849    -1.126075354189
    C           -1.578019032466    -0.171289753921     0.367585630600
    C           -1.369651146304     0.849405857021    -1.997344312016
    C           -0.272138777655     0.236728031713     1.094788069847
    H           -1.990738037635    -1.068580906499     0.812053045833
    H           -2.315257717612     0.612201027516     0.529991233964
    C            1.008971642875    -0.371435505253     0.511101840642
    H           -0.187819858174     1.319079081543     1.083098071033
    H           -0.369671343067    -0.046952683410     2.138191007388
    C            2.260906214820    -0.113349506241     1.357265473359
    H            1.176733192308     0.013957924976    -0.492241524456
    H            0.875955755764    -1.444310216285     0.401535745758
    C            2.672708124788     1.356895295254     1.455073918693
    H            3.084139862174    -0.678542030252     0.928308365953
    H            2.107290975388    -0.513377585667     2.357332905616
    H            2.816975227281     1.788531005906     0.468054372136
    H            3.607034335588     1.459223641426     1.998071581540
    H            1.930060608444     1.954896564366     1.973153409221
    H           -2.357054854963     1.301439500952    -2.046353498040
    H           -1.055853415291     0.580166760955    -2.996430479677
    H           -0.695574441792     1.593118629204    -1.584823410249

  Mulliken Charges: (a.u.)
   Center  Symbol    Alpha    Beta     Spin     Total
       1     O     4.26211  4.26211  0.00000 -0.52422
       2     C     2.73518  2.73518  0.00000  0.52963
       3     C     3.20348  3.20348  0.00000 -0.40696
       4     C     3.28925  3.28925  0.00000 -0.57850
       5     C     3.16102  3.16102  0.00000 -0.32205
       6     H     0.40000  0.40000  0.00000  0.20001
       7     H     0.41462  0.41462  0.00000  0.17076
       8     C     3.16278  3.16278  0.00000 -0.32556
       9     H     0.41835  0.41835  0.00000  0.16330
      10     H     0.41306  0.41306  0.00000  0.17388
      11     C     3.15325  3.15325  0.00000 -0.30650
      12     H     0.42227  0.42227  0.00000  0.15546
      13     H     0.40838  0.40838  0.00000  0.18325
      14     C     3.24228  3.24228  0.00000 -0.48457
      15     H     0.41778  0.41778  0.00000  0.16444
      16     H     0.42212  0.42212  0.00000  0.15575
      17     H     0.42230  0.42230  0.00000  0.15540
      18     H     0.41744  0.41744  0.00000  0.16512
      19     H     0.42089  0.42089  0.00000  0.15822
      20     H     0.40584  0.40584  0.00000  0.18833
      21     H     0.39700  0.39700  0.00000  0.20600
      22     H     0.41060  0.41060  0.00000  0.17880

   Total alpha = 32.00000, Total beta = 32.00000, Total charge =  0.00000
