                              Psi4 1.0.54 Driver

  ==> Input File <==

--------------------------------------------------------------------------
set {
	reference rhf
	basis cc-pvtz
}

set_num_threads( 4 )
memory 2 gb

molecule MOL {
0 1

O	 -2.844520	 1.251073	 -0.332618
C	 -2.664672	 0.129869	 0.003507
C	 -3.761756	 -0.788609	 0.469436
O	 -1.481217	 -0.452708	 0.001092
H	 -4.500641	 -0.868500	 -0.316532
H	 -3.387190	 -1.767096	 0.724200
H	 -4.242691	 -0.341397	 1.328957
C	 -0.332055	 0.384012	 -0.000250
C	 0.892252	 -0.506059	 -0.000295
H	 -0.360822	 1.020205	 -0.874146
H	 -0.359817	 1.021310	 0.872861
C	 2.188199	 0.299473	 -0.001416
H	 0.857046	 -1.152781	 -0.871031
H	 0.857910	 -1.151798	 0.871202
C	 3.437151	 -0.577593	 -0.000991
H	 2.209565	 0.950707	 -0.871712
H	 2.210062	 0.952234	 0.867721
C	 4.732399	 0.226982	 -0.000914
H	 3.417321	 -1.229122	 -0.869998
H	 3.416993	 -1.228707	 0.868337
H	 4.797903	 0.863451	 -0.876963
H	 5.598517	 -0.424436	 -0.000420
H	 4.797415	 0.864118	 0.874691

	symmetry c1
}
set optking {
	frozen_dihedral = ("
		1 2 4 8
	")
}

ee,wfn = optimize('scf', return_wfn=True)
oeprop( wfn, 'DIPOLE', 'QUADRUPOLE', 'MULLIKEN_CHARGES')
f=open( 'psi4out.xyz', 'w' )
f.write( "23  " )
f.write( str(ee) + "\n" )
f.write( MOL.save_string_xyz() )
f.close()
--------------------------------------------------------------------------

    Molecular point group: c1
  Charge       = 0
  Multiplicity = 1
  Basis Set: CC-PVTZ
  Basis Set:
  @DF-RHF Final Energy:  -423.13228778735896
    Total Energy =                       -423.1322877873590187
    Molecular point group: c1
  Basis Set: CC-PVTZ
  Basis Set:
  Basis Set: CC-PVTZ
  Basis Set:
  @DF-RHF Final Energy:  -423.03856896603452
    Total Energy =                       -423.0385689660346316
  Basis Set: CC-PVTZ
  Basis Set:
  Basis Set: CC-PVTZ
  Basis Set:
  @DF-RHF Final Energy:  -423.12101815428105
    Total Energy =                       -423.1210181542809323
  Basis Set: CC-PVTZ
  Basis Set:
  Basis Set: CC-PVTZ
  Basis Set:
  @DF-RHF Final Energy:  -423.13108506763081
    Total Energy =                       -423.1310850676312612
  Basis Set: CC-PVTZ
  Basis Set:
  @DF-RHF Final Energy:  -423.09400040881508
    Total Energy =                       -423.0940004088159867
  @DF-RHF Final Energy:  -423.12621027499807
    Total Energy =                       -423.1262102749981295
  @DF-RHF Final Energy:  -423.13229259787079
    Total Energy =                       -423.1322925978710146
  @DF-RHF Final Energy:  -423.13253219501456
    Total Energy =                       -423.1325321950143916
  @DF-RHF Final Energy:  -423.13255726750742
    Total Energy =                       -423.1325572675067406
  @DF-RHF Final Energy:  -423.13259886379586
    Total Energy =                       -423.1325988637962610
  @DF-RHF Final Energy:  -423.13205539474785
    Total Energy =                       -423.1320553947475673
  @DF-RHF Final Energy:  -423.13274108455261
    Total Energy =                       -423.1327410845524355
  @DF-RHF Final Energy:  -423.12874066958420
    Total Energy =                       -423.1287406695842037
  @DF-RHF Final Energy:  -423.13272591403449
    Total Energy =                       -423.1327259140346086
  @DF-RHF Final Energy:  -423.13290312532888
    Total Energy =                       -423.1329031253285393
  @DF-RHF Final Energy:  -423.13314410002636
    Total Energy =                       -423.1331441000263567
  @DF-RHF Final Energy:  -423.13332479615190
    Total Energy =                       -423.1333247961515553
  @DF-RHF Final Energy:  -423.13339613820870
    Total Energy =                       -423.1333961382088091
  @DF-RHF Final Energy:  -423.13341019887872
    Total Energy =                       -423.1334101988788916
  @DF-RHF Final Energy:  -423.13343052597185
    Total Energy =                       -423.1334305259723578
  @DF-RHF Final Energy:  -423.13344772881106
    Total Energy =                       -423.1334477288110065
  @DF-RHF Final Energy:  -423.13346860634772
    Total Energy =                       -423.1334686063477193
  @DF-RHF Final Energy:  -423.13348704426443
    Total Energy =                       -423.1334870442648253
  @DF-RHF Final Energy:  -423.13284354803102
    Total Energy =                       -423.1328435480301096
  @DF-RHF Final Energy:  -423.13350674574690
    Total Energy =                       -423.1335067457462173
  @DF-RHF Final Energy:  -423.13352160380509
    Total Energy =                       -423.1335216038047520
  @DF-RHF Final Energy:  -423.13352904283943
    Total Energy =                       -423.1335290428395410
  @DF-RHF Final Energy:  -423.13352127374100
    Total Energy =                       -423.1335212737408256
  @DF-RHF Final Energy:  -423.13347996249030
    Total Energy =                       -423.1334799624900143
  @DF-RHF Final Energy:  -423.13352820385740
    Total Energy =                       -423.1335282038573951
  @DF-RHF Final Energy:  -423.13353196758345
    Total Energy =                       -423.1335319675831670
  @DF-RHF Final Energy:  -423.13353199723667
    Total Energy =                       -423.1335319972363322
  @DF-RHF Final Energy:  -423.13275611641876
    Total Energy =                       -423.1327561164189319
  Basis Set: CC-PVTZ
  Basis Set:
  @DF-RHF Final Energy:  -423.13352968715105
    Total Energy =                       -423.1335296871512810
  Basis Set: CC-PVTZ
  Basis Set:
  Basis Set: CC-PVTZ
  Basis Set:
  @DF-RHF Final Energy:  -423.13353293578757
    Total Energy =                       -423.1335329357874571
  Basis Set: CC-PVTZ
  Basis Set:
  Basis Set: CC-PVTZ
  Basis Set:
  @DF-RHF Final Energy:  -423.13353369777849
    Total Energy =                       -423.1335336977786028
  Basis Set: CC-PVTZ
  Basis Set:
  Charge       = 0
  Multiplicity = 1
  Basis Set: CC-PVTZ
  Basis Set:

    Orbital Energies (a.u.)
    -----------------------

    Doubly Occupied:

       1A    -20.591888     2A    -20.533059     3A    -11.366381
       4A    -11.280262     5A    -11.231160     6A    -11.222377
       7A    -11.221486     8A    -11.219599     9A    -11.211022
      10A     -1.469124    11A     -1.364890    12A     -1.095344
      13A     -1.043531    14A     -1.004946    15A     -0.931238
      16A     -0.841904    17A     -0.803100    18A     -0.775592
      19A     -0.695238    20A     -0.688717    21A     -0.669764
      22A     -0.648513    23A     -0.607569    24A     -0.589356
      25A     -0.584617    26A     -0.566286    27A     -0.560389
      28A     -0.540499    29A     -0.523223    30A     -0.505589
      31A     -0.493335    32A     -0.478450    33A     -0.471568
      34A     -0.468119    35A     -0.454249    36A     -0.439071

  @DF-RHF Final Energy:  -423.13353434674906

   => Energetics <=

    Nuclear Repulsion Energy =            450.4512951284208953
    One-Electron Energy =               -1468.7867408846796025
    Two-Electron Energy =                 595.2019114095096484
    DFT Exchange-Correlation Energy =       0.0000000000000000
    Empirical Dispersion Energy =           0.0000000000000000
    PCM Polarization Energy =               0.0000000000000000
    EFP Energy =                            0.0000000000000000
    Total Energy =                       -423.1335343467490020
    Molecular point group: c1
  Basis Set: CC-PVTZ
  Basis Set:

  -Total Gradient:
     Atom            X                  Y                   Z
    ------   -----------------  -----------------  -----------------
       1       -0.000823158855    -0.001757320922    -0.005617093682
       2        0.001062137814     0.002453879674     0.010636696865
       3        0.000133611596     0.000104577618     0.000241449470
       4       -0.000317189483    -0.000777270590    -0.009967046494
       5        0.000039643218    -0.000004660861     0.000031312944
       6       -0.000002038100     0.000022518743     0.000028549660
       7       -0.000051380743     0.000056149284    -0.000186647902
       8       -0.000024496984    -0.000085832842     0.004783252119
       9       -0.000002122392     0.000007518740     0.000013696582
      10        0.000004380530    -0.000002393637     0.000014476627
      11       -0.000016812276    -0.000018325639     0.000011592528
      12       -0.000011289170    -0.000011978204     0.000009080541
      13       -0.000005457077     0.000007961812     0.000003016248
      14        0.000003904178     0.000004811207    -0.000003111491
      15        0.000000107712     0.000015680620     0.000002020538
      16        0.000001107830    -0.000004296263     0.000006158647
      17       -0.000000241962    -0.000005821131    -0.000000908723
      18        0.000008748960    -0.000011719913    -0.000009067035
      19        0.000002863123     0.000002545794     0.000004237175
      20       -0.000001113202     0.000006995535    -0.000000827071
      21       -0.000001944257    -0.000000102413     0.000004237623
      22        0.000004756667     0.000004596073    -0.000001562115
      23       -0.000004017122    -0.000007512688    -0.000003513056

  **** Optimization is complete! (in 37 steps) ****
    Final optimized geometry and variables:
    Molecular point group: c1

    Geometry (in Angstrom), charge = 0, multiplicity = 1:

    O           -2.933118843452     1.027639973139    -0.451399454078
    C           -2.669217041283    -0.080081952969    -0.130387123263
    C           -3.678066780496    -1.116867435819     0.273421541934
    O           -1.439258731688    -0.568207387348    -0.129841631398
    H           -4.673986885666    -0.733746043601     0.121503603464
    H           -3.528142251784    -2.020565425130    -0.301847797016
    H           -3.534662534466    -1.364717990735     1.317769940369
    C           -0.359473192288     0.355561381629    -0.107316086292
    C            0.925693172048    -0.431308345942     0.034404993273
    H           -0.367200870653     0.937914518599    -1.018091264329
    H           -0.500060692509     1.036662621400     0.722008294561
    C            2.153691804919     0.473874441556     0.066192907430
    H            1.001205761635    -1.129790135080    -0.792680321081
    H            0.878007952958    -1.024423748271     0.941980693277
    C            3.462085471250    -0.298687800902     0.208330657819
    H            2.187914313176     1.070147849512    -0.842206533838
    H            2.064039496015     1.178418659303     0.889555673621
    C            4.689563415849     0.605379920463     0.238620861736
    H            3.553038747566    -1.002860710746    -0.613866229799
    H            3.429832248529    -0.893656601467     1.116736510156
    H            4.768311261675     1.189269966548    -0.672308163446
    H            5.600203870974     0.026505118642     0.339714433492
    H            4.644515285677     1.299018505792     1.071579775948

  Mulliken Charges: (a.u.)
   Center  Symbol    Alpha    Beta     Spin     Total
       1     O     4.19478  4.19478  0.00000 -0.38955
       2     C     2.81171  2.81171  0.00000  0.37658
       3     C     3.13787  3.13787  0.00000 -0.27574
       4     O     4.15172  4.15172  0.00000 -0.30344
       5     H     0.43834  0.43834  0.00000  0.12333
       6     H     0.44457  0.44457  0.00000  0.11086
       7     H     0.44784  0.44784  0.00000  0.10431
       8     C     2.97963  2.97963  0.00000  0.04074
       9     C     3.08095  3.08095  0.00000 -0.16190
      10     H     0.45079  0.45079  0.00000  0.09842
      11     H     0.45808  0.45808  0.00000  0.08383
      12     C     3.09823  3.09823  0.00000 -0.19645
      13     H     0.44978  0.44978  0.00000  0.10045
      14     H     0.45159  0.45159  0.00000  0.09682
      15     C     3.08500  3.08500  0.00000 -0.17001
      16     H     0.45259  0.45259  0.00000  0.09482
      17     H     0.45327  0.45327  0.00000  0.09345
      18     C     3.14953  3.14953  0.00000 -0.29907
      19     H     0.45330  0.45330  0.00000  0.09339
      20     H     0.45363  0.45363  0.00000  0.09275
      21     H     0.45443  0.45443  0.00000  0.09114
      22     H     0.44767  0.44767  0.00000  0.10465
      23     H     0.45470  0.45470  0.00000  0.09061

   Total alpha = 36.00000, Total beta = 36.00000, Total charge = -0.00000

*** Psi4 exiting successfully. Buy a developer a beer!
