  ==> Input File <==

--------------------------------------------------------------------------
set {
	reference rhf
	basis 6-31G*
}

set_num_threads( 1 )
memory 2 gb

molecule MOL {
0 1

O	 1.214711	 1.306902	 -0.000018
C	 1.122059	 0.121804	 -0.000188
C	 -0.170150	 -0.657997	 -0.000612
O	 2.172624	 -0.688929	 0.000216
C	 -1.412532	 0.227344	 -0.000452
H	 -0.153702	 -1.313099	 -0.867402
H	 -0.153924	 -1.313811	 0.865644
C	 -2.684957	 -0.556476	 0.325010
H	 -1.512364	 0.704966	 -0.970202
H	 -1.280588	 1.029855	 0.718624
C	 -3.934420	 0.323204	 0.328558
H	 -2.811942	 -1.359756	 -0.397964
H	 -2.578540	 -1.035092	 1.296438
H	 -4.087742	 0.789335	 -0.640394
H	 -4.822003	 -0.256588	 0.561609
H	 -3.852933	 1.115923	 1.066526
C	 3.452279	 -0.082609	 0.000533
H	 3.583069	 0.529321	 -0.880332
H	 4.163299	 -0.894027	 0.001117
H	 3.582335	 0.529955	 0.881077

	symmetry c1
}
set optking {
	frozen_dihedral = ("
		9 5 8 12,
		1 2 3 6,
		1 2 4 17
	")
}

ee = energy('scf')
oeprop('DIPOLE', 'QUADRUPOLE', 'MULLIKEN_CHARGES')
f=open( 'psi4out.xyz', 'w' )
f.write( "20  " )
f.write( str(ee) + "\n" )
f.write( MOL.save_string_xyz() )
f.close()
--------------------------------------------------------------------------

    Molecular point group: c1

    Geometry (in Angstrom), charge = 0, multiplicity = 1:

       Center              X                  Y                   Z               Mass
    ------------   -----------------  -----------------  -----------------  -----------------
           O          1.209156531706     1.299122090085    -0.081725298039    15.994914619560
           C          1.116504531706     0.114024090085    -0.081895298039    12.000000000000
           C         -0.175704468294    -0.665776909915    -0.082319298039    12.000000000000
           O          2.167069531706    -0.696708909915    -0.081491298039    15.994914619560
           C         -1.418086468294     0.219564090085    -0.082159298039    12.000000000000
           H         -0.159256468294    -1.320878909915    -0.949109298039     1.007825032070
           H         -0.159478468294    -1.321590909915     0.783936701961     1.007825032070
           C         -2.690511468294    -0.564255909915     0.243302701961    12.000000000000
           H         -1.517918468294     0.697186090085    -1.051909298039     1.007825032070
           H         -1.286142468294     1.022075090085     0.636916701961     1.007825032070
           C         -3.939974468294     0.315424090085     0.246850701961    12.000000000000
           H         -2.817496468294    -1.367535909915    -0.479671298039     1.007825032070
           H         -2.584094468294    -1.042871909915     1.214730701961     1.007825032070
           H         -4.093296468294     0.781555090085    -0.722101298039     1.007825032070
           H         -4.827557468294    -0.264367909915     0.479901701961     1.007825032070
           H         -3.858487468294     1.108143090085     0.984818701961     1.007825032070
           C          3.446724531706    -0.090388909915    -0.081174298039    12.000000000000
           H          3.577514531706     0.521541090085    -0.962039298039     1.007825032070
           H          4.157744531706    -0.901806909915    -0.080590298039     1.007825032070
           H          3.576780531706     0.522175090085     0.799369701961     1.007825032070

  Charge       = 0
  Multiplicity = 1
  Basis Set: 6-31G*
  Basis Set:

    Orbital Energies (a.u.)
    -----------------------

    Doubly Occupied:

       1A    -20.603819     2A    -20.545623     3A    -11.372518
       4A    -11.281002     5A    -11.235548     6A    -11.220167
       7A    -11.218865     8A    -11.210507     9A     -1.469544
      10A     -1.363028    11A     -1.088641    12A     -1.024346
      13A     -0.969131    14A     -0.885760    15A     -0.804090
      16A     -0.767572    17A     -0.697452    18A     -0.683503
      19A     -0.672143    20A     -0.645398    21A     -0.597789
      22A     -0.592169    23A     -0.578904    24A     -0.540987
      25A     -0.535429    26A     -0.522677    27A     -0.501012
      28A     -0.478355    29A     -0.472685    30A     -0.470035
      31A     -0.455956    32A     -0.437327

  @DF-RHF Final Energy:  -383.94100819327474

   => Energetics <=

    Nuclear Repulsion Energy =            381.2167045500256677
    One-Electron Energy =               -1278.4316100881308103
    Two-Electron Energy =                 513.2738973448296065
    DFT Exchange-Correlation Energy =       0.0000000000000000
    Empirical Dispersion Energy =           0.0000000000000000
    PCM Polarization Energy =               0.0000000000000000
    EFP Energy =                            0.0000000000000000
    Total Energy =                       -383.9410081932754792

  Mulliken Charges: (a.u.)
   Center  Symbol    Alpha    Beta     Spin     Total
       1     O     4.28575  4.28575  0.00000 -0.57151
       2     C     2.60613  2.60613  0.00000  0.78774
       3     C     3.20840  3.20840  0.00000 -0.41681
       4     O     4.30698  4.30698  0.00000 -0.61397
       5     C     3.15213  3.15213  0.00000 -0.30425
       6     H     0.39997  0.39997  0.00000  0.20006
       7     H     0.40072  0.40072  0.00000  0.19856
       8     C     3.15458  3.15458  0.00000 -0.30915
       9     H     0.41488  0.41488  0.00000  0.17024
      10     H     0.40756  0.40756  0.00000  0.18489
      11     C     3.23942  3.23942  0.00000 -0.47884
      12     H     0.42323  0.42323  0.00000  0.15354
      13     H     0.42260  0.42260  0.00000  0.15480
      14     H     0.42032  0.42032  0.00000  0.15936
      15     H     0.41878  0.41878  0.00000  0.16245
      16     H     0.41963  0.41963  0.00000  0.16074
      17     C     3.09243  3.09243  0.00000 -0.18486
      18     H     0.40903  0.40903  0.00000  0.18194
      19     H     0.40840  0.40840  0.00000  0.18319
      20     H     0.40905  0.40905  0.00000  0.18189

   Total alpha = 32.00000, Total beta = 32.00000, Total charge = -0.00000
