  ==> Input File <==

--------------------------------------------------------------------------
set {
	reference rhf
	basis 6-31G*
}

set_num_threads( 1 )
memory 2 gb

molecule MOL {
0 1

H	 1.172349	 -1.435871	 -0.548484
O	 1.654024	 -0.625927	 -0.460906
C	 1.135793	 0.118896	 0.612333
C	 0.031547	 1.023609	 0.088541
H	 1.915668	 0.729681	 1.063582
H	 0.754543	 -0.542641	 1.387006
C	 -1.134819	 0.293262	 -0.585751
H	 0.474374	 1.714721	 -0.623187
H	 -0.338529	 1.620940	 0.920081
C	 -1.917817	 -0.639439	 0.339494
H	 -0.758119	 -0.268455	 -1.433105
H	 -1.813832	 1.041889	 -0.986690
H	 -2.777680	 -1.057197	 -0.174994
H	 -1.310268	 -1.471279	 0.680599
H	 -2.283753	 -0.111424	 1.216626

	symmetry c1
}
set optking {
	frozen_dihedral = ("
		8 4 7 11,
		2 3 4 8
	")
}

ee = energy('scf')
oeprop('DIPOLE', 'QUADRUPOLE', 'MULLIKEN_CHARGES')
f=open( 'psi4out.xyz', 'w' )
f.write( "15  " )
f.write( str(ee) + "\n" )
f.write( MOL.save_string_xyz() )
f.close()
--------------------------------------------------------------------------

    Molecular point group: c1

    Geometry (in Angstrom), charge = 0, multiplicity = 1:

       Center              X                  Y                   Z               Mass
    ------------   -----------------  -----------------  -----------------  -----------------
           H          1.188166868175    -1.432717029626    -0.543035800929     1.007825032070
           O          1.669841868175    -0.622773029626    -0.455457800929    15.994914619560
           C          1.151610868175     0.122049970374     0.617781199071    12.000000000000
           C          0.047364868175     1.026762970374     0.093989199071    12.000000000000
           H          1.931485868175     0.732834970374     1.069030199071     1.007825032070
           H          0.770360868175    -0.539487029626     1.392454199071     1.007825032070
           C         -1.119001131825     0.296415970374    -0.580302800929    12.000000000000
           H          0.490191868175     1.717874970374    -0.617738800929     1.007825032070
           H         -0.322711131825     1.624093970374     0.925529199071     1.007825032070
           C         -1.901999131825    -0.636285029626     0.344942199071    12.000000000000
           H         -0.742301131825    -0.265301029626    -1.427656800929     1.007825032070
           H         -1.798014131825     1.045042970374    -0.981241800929     1.007825032070
           H         -2.761862131825    -1.054043029626    -0.169545800929     1.007825032070
           H         -1.294450131825    -1.468125029626     0.686047199071     1.007825032070
           H         -2.267935131825    -0.108270029626     1.222074199071     1.007825032070

  Charge       = 0
  Multiplicity = 1
  Basis Set: 6-31G*
  Basis Set:

    Orbital Energies (a.u.)
    -----------------------

    Doubly Occupied:

       1A    -20.552734     2A    -11.268175     3A    -11.217988
       4A    -11.215276     5A    -11.211707     6A     -1.360617
       7A     -1.068876     8A     -0.975380     9A     -0.876877
      10A     -0.781034    11A     -0.700930    12A     -0.647274
      13A     -0.616043    14A     -0.582498    15A     -0.567514
      16A     -0.545325    17A     -0.501749    18A     -0.490987
      19A     -0.473872    20A     -0.458201    21A     -0.425007

  @DF-RHF Final Energy:  -232.14125904745501

   => Energetics <=

    Nuclear Repulsion Energy =            192.7409932295468309
    One-Electron Energy =                -696.6884129671803976
    Two-Electron Energy =                 271.8061606901791265
    DFT Exchange-Correlation Energy =       0.0000000000000000
    Empirical Dispersion Energy =           0.0000000000000000
    PCM Polarization Energy =               0.0000000000000000
    EFP Energy =                            0.0000000000000000
    Total Energy =                       -232.1412590474544686

  Mulliken Charges: (a.u.)
   Center  Symbol    Alpha    Beta     Spin     Total
       1     H     0.27885  0.27885  0.00000  0.44229
       2     O     4.36976  4.36976  0.00000 -0.73952
       3     C     3.00497  3.00497  0.00000 -0.00994
       4     C     3.15584  3.15584  0.00000 -0.31168
       5     H     0.41511  0.41511  0.00000  0.16979
       6     H     0.42899  0.42899  0.00000  0.14202
       7     C     3.16181  3.16181  0.00000 -0.32361
       8     H     0.41408  0.41408  0.00000  0.17184
       9     H     0.42812  0.42812  0.00000  0.14376
      10     C     3.24219  3.24219  0.00000 -0.48438
      11     H     0.41803  0.41803  0.00000  0.16394
      12     H     0.41787  0.41787  0.00000  0.16425
      13     H     0.41680  0.41680  0.00000  0.16640
      14     H     0.42766  0.42766  0.00000  0.14469
      15     H     0.41992  0.41992  0.00000  0.16016

   Total alpha = 21.00000, Total beta = 21.00000, Total charge =  0.00000
