  ==> Input File <==

--------------------------------------------------------------------------
set {
	reference rhf
	basis 6-31G*
}

set_num_threads( 1 )
memory 2 gb

molecule MOL {
0 1

H	 -4.031818	 -0.453427	 -0.000094
C	 -2.967712	 -0.297022	 -0.000064
C	 -2.458620	 0.992929	 0.000032
C	 -2.109895	 -1.385637	 -0.000122
H	 -3.124998	 1.836319	 0.000077
C	 -1.090278	 1.193236	 0.000070
H	 -2.506361	 -2.384847	 -0.000198
C	 -0.739812	 -1.187531	 -0.000085
H	 -0.678594	 2.184290	 0.000146
C	 -0.226438	 0.104061	 0.000012
H	 -0.072310	 -2.027032	 -0.000131
C	 1.239129	 0.373821	 0.000060
O	 1.966935	 -0.712500	 -0.211617
O	 1.717570	 1.451085	 0.171691
C	 3.373711	 -0.547006	 -0.227908
H	 3.665420	 0.134124	 -1.013888
H	 3.782805	 -1.528345	 -0.410856
H	 3.720895	 -0.166167	 0.721483

	symmetry c1
}
set optking {
	frozen_dihedral = ("
		12 13 15 16,
		10 12 13 15
	")
}

ee = energy('scf')
oeprop('DIPOLE', 'QUADRUPOLE', 'MULLIKEN_CHARGES')
f=open( 'psi4out.xyz', 'w' )
f.write( "18  " )
f.write( str(ee) + "\n" )
f.write( MOL.save_string_xyz() )
f.close()
--------------------------------------------------------------------------

    Molecular point group: c1

    Geometry (in Angstrom), charge = 0, multiplicity = 1:

       Center              X                  Y                   Z               Mass
    ------------   -----------------  -----------------  -----------------  -----------------
           H         -4.031342522234    -0.456013584807     0.029921182979     1.007825032070
           C         -2.967236522234    -0.299608584807     0.029951182979    12.000000000000
           C         -2.458144522234     0.990342415193     0.030047182979    12.000000000000
           C         -2.109419522234    -1.388223584807     0.029893182979    12.000000000000
           H         -3.124522522234     1.833732415193     0.030092182979     1.007825032070
           C         -1.089802522234     1.190649415193     0.030085182979    12.000000000000
           H         -2.505885522234    -2.387433584807     0.029817182979     1.007825032070
           C         -0.739336522234    -1.190117584807     0.029930182979    12.000000000000
           H         -0.678118522234     2.181703415193     0.030161182979     1.007825032070
           C         -0.225962522234     0.101474415193     0.030027182979    12.000000000000
           H         -0.071834522234    -2.029618584807     0.029884182979     1.007825032070
           C          1.239604477766     0.371234415193     0.030075182979    12.000000000000
           O          1.967410477766    -0.715086584807    -0.181601817021    15.994914619560
           O          1.718045477766     1.448498415193     0.201706182979    15.994914619560
           C          3.374186477766    -0.549592584807    -0.197892817021    12.000000000000
           H          3.665895477766     0.131537415193    -0.983872817021     1.007825032070
           H          3.783280477766    -1.530931584807    -0.380840817021     1.007825032070
           H          3.721370477766    -0.168753584807     0.751498182979     1.007825032070

  Charge       = 0
  Multiplicity = 1
  Basis Set: 6-31G*
  Basis Set:

    Orbital Energies (a.u.)
    -----------------------

    Doubly Occupied:

       1A    -20.607693     2A    -20.544571     3A    -11.377915
       4A    -11.282955     5A    -11.245750     6A    -11.245184
       7A    -11.244266     8A    -11.241876     9A    -11.237634
      10A    -11.236819    11A     -1.472796    12A     -1.363928
      13A     -1.165371    14A     -1.048156    15A     -1.024902
      16A     -0.978155    17A     -0.860240    18A     -0.834526
      19A     -0.777804    20A     -0.739786    21A     -0.683379
      22A     -0.677429    23A     -0.672128    24A     -0.631036
      25A     -0.624203    26A     -0.597750    27A     -0.585015
      28A     -0.560904    29A     -0.529561    30A     -0.516623
      31A     -0.503644    32A     -0.499179    33A     -0.459061
      34A     -0.444476    35A     -0.344786    36A     -0.341085

  @DF-RHF Final Energy:  -457.35038552274142

   => Energetics <=

    Nuclear Repulsion Energy =            492.9627875045538872
    One-Electron Energy =               -1600.2253969184816924
    Two-Electron Energy =                 649.9122238911869545
    DFT Exchange-Correlation Energy =       0.0000000000000000
    Empirical Dispersion Energy =           0.0000000000000000
    PCM Polarization Energy =               0.0000000000000000
    EFP Energy =                            0.0000000000000000
    Total Energy =                       -457.3503855227407939

  Mulliken Charges: (a.u.)
   Center  Symbol    Alpha    Beta     Spin     Total
       1     H     0.39540  0.39540  0.00000  0.20919
       2     C     3.09015  3.09015  0.00000 -0.18030
       3     C     3.10696  3.10696  0.00000 -0.21392
       4     C     3.10712  3.10712  0.00000 -0.21424
       5     H     0.39536  0.39536  0.00000  0.20928
       6     C     3.08692  3.08692  0.00000 -0.17384
       7     H     0.39623  0.39623  0.00000  0.20754
       8     C     3.08743  3.08743  0.00000 -0.17486
       9     H     0.37644  0.37644  0.00000  0.24712
      10     C     3.07338  3.07338  0.00000 -0.14675
      11     H     0.38092  0.38092  0.00000  0.23816
      12     C     2.58325  2.58325  0.00000  0.83350
      13     O     4.31371  4.31371  0.00000 -0.62743
      14     O     4.29128  4.29128  0.00000 -0.58255
      15     C     3.09266  3.09266  0.00000 -0.18532
      16     H     0.40739  0.40739  0.00000  0.18523
      17     H     0.40792  0.40792  0.00000  0.18417
      18     H     0.40749  0.40749  0.00000  0.18503

   Total alpha = 36.00000, Total beta = 36.00000, Total charge = -0.00000
