  ==> Input File <==

--------------------------------------------------------------------------
set {
	reference rhf
	basis cc-pvtz
}

set_num_threads( 4 )
memory 2 gb

molecule MOL {
0 1

H	 -1.835082	 1.385983	 0.000069
C	 -1.300516	 0.441153	 -0.000028
O	 -0.006604	 0.654344	 -0.000106
O	 -1.828920	 -0.612308	 0.000113
C	 0.515183	 1.561920	 -0.966474
C	 2.010241	 1.638286	 -0.767294
H	 0.044706	 2.525324	 -0.830597
H	 0.261894	 1.204040	 -1.954264
H	 2.249029	 1.994223	 0.226818
H	 2.439387	 2.322765	 -1.489220
H	 2.467311	 0.666286	 -0.902471

	symmetry c1
}
set optking {
	frozen_dihedral = ("
		5 3 2 4
	")
}

ee = optimize('scf')
oeprop('DIPOLE', 'QUADRUPOLE', 'MULLIKEN_CHARGES')
f=open( 'psi4out.xyz', 'w' )
f.write( "11  " )
f.write( str(ee) + "\n" )
f.write( MOL.save_string_xyz() )
f.close()
--------------------------------------------------------------------------

    Molecular point group: c1
  Charge       = 0
  Multiplicity = 1
  Basis Set: CC-PVTZ
  Basis Set:
  @DF-RHF Final Energy:  -266.91655492323173
    Total Energy =                       -266.9165549232317289
    Molecular point group: c1
  Basis Set: CC-PVTZ
  Basis Set:
  Basis Set: CC-PVTZ
  Basis Set:
  @DF-RHF Final Energy:  -266.91744491052179
    Total Energy =                       -266.9174449105217377
  Basis Set: CC-PVTZ
  Basis Set:
  Basis Set: CC-PVTZ
  Basis Set:
  @DF-RHF Final Energy:  -266.91584528743260
    Total Energy =                       -266.9158452874324894
  Basis Set: CC-PVTZ
  Basis Set:
  Basis Set: CC-PVTZ
  Basis Set:
  @DF-RHF Final Energy:  -266.91787262632107
    Total Energy =                       -266.9178726263207864
  Basis Set: CC-PVTZ
  Basis Set:
  Basis Set: CC-PVTZ
  Basis Set:
  @DF-RHF Final Energy:  -266.91788956291020
    Total Energy =                       -266.9178895629103181
  Basis Set: CC-PVTZ
  Basis Set:
  Basis Set: CC-PVTZ
  Basis Set:
  @DF-RHF Final Energy:  -266.91789852480730
    Total Energy =                       -266.9178985248074696
  Basis Set: CC-PVTZ
  Basis Set:
  Charge       = 0
  Multiplicity = 1
  Basis Set: CC-PVTZ
  Basis Set:

    Orbital Energies (a.u.)
    -----------------------

    Doubly Occupied:

       1A    -20.595993     2A    -20.553425     3A    -11.373032
       4A    -11.303514     5A    -11.230372     6A     -1.473476
       7A     -1.384963     8A     -1.053522     9A     -0.888390
      10A     -0.842274    11A     -0.743450    12A     -0.694078
      13A     -0.661548    14A     -0.628533    15A     -0.569215
      16A     -0.550383    17A     -0.539242    18A     -0.512696
      19A     -0.466524    20A     -0.455606

  @DF-RHF Final Energy:  -266.91789906786948

   => Energetics <=

    Nuclear Repulsion Energy =            176.8241069944490107
    One-Electron Energy =                -714.4435403240320284
    Two-Electron Energy =                 270.7015342617136753
    DFT Exchange-Correlation Energy =       0.0000000000000000
    Empirical Dispersion Energy =           0.0000000000000000
    PCM Polarization Energy =               0.0000000000000000
    EFP Energy =                            0.0000000000000000
    Total Energy =                       -266.9178990678693140
    Molecular point group: c1
  Basis Set: CC-PVTZ
  Basis Set:

  -Total Gradient:
     Atom            X                  Y                   Z
    ------   -----------------  -----------------  -----------------
       1       -0.000007230166    -0.000014247183    -0.000007384112
       2        0.000754976665    -0.002532551379     0.007283287287
       3       -0.000205971889     0.005084267973     0.002013128723
       4       -0.000530248755     0.000651699130    -0.005951982729
       5       -0.000019688082    -0.003214344852    -0.003316866776
       6       -0.000001785352     0.000007187922    -0.000012690389
       7        0.000004362889     0.000016307333    -0.000000979643
       8        0.000009874823     0.000003020059     0.000000397058
       9       -0.000007889334    -0.000000575942    -0.000005250569
      10        0.000003413263    -0.000001123593    -0.000002973093
      11        0.000000185935     0.000000360530     0.000001314244

  **** Optimization is complete! (in 7 steps) ****
    Final optimized geometry and variables:
    Molecular point group: c1

    Geometry (in Angstrom), charge = 0, multiplicity = 1:

    H           -1.667185183721     0.702684733821     0.521559611787
    C           -1.175430057849    -0.263000059209     0.393205130108
    O            0.145078805548    -0.171880110369     0.292407493895
    O           -1.766347481461    -1.272794767348     0.337745086855
    C            0.655213061028     0.777281192093    -0.627655099414
    C            2.138588871269     0.927961462352    -0.387381482239
    H            0.144771334559     1.726795955457    -0.494452010365
    H            0.459117056776     0.425695357654    -1.633476500726
    H            2.327999513646     1.287361270470     0.615822519745
    H            2.556052889503     1.635362963455    -1.093910198626
    H            2.640278146113    -0.022397098560    -0.512481605099

  Mulliken Charges: (a.u.)
   Center  Symbol    Alpha    Beta     Spin     Total
       1     H     0.47435  0.47435  0.00000  0.05131
       2     C     2.84122  2.84122  0.00000  0.31755
       3     O     4.13962  4.13962  0.00000 -0.27924
       4     O     4.16682  4.16682  0.00000 -0.33364
       5     C     2.97400  2.97400  0.00000  0.05200
       6     C     3.13292  3.13292  0.00000 -0.26584
       7     H     0.46461  0.46461  0.00000  0.07079
       8     H     0.45657  0.45657  0.00000  0.08685
       9     H     0.44932  0.44932  0.00000  0.10135
      10     H     0.45556  0.45556  0.00000  0.08888
      11     H     0.44501  0.44501  0.00000  0.10998

   Total alpha = 20.00000, Total beta = 20.00000, Total charge =  0.00000
