                              Psi4 1.0.54 Driver

  ==> Input File <==

--------------------------------------------------------------------------
set {
	reference rhf
	basis cc-pvtz
}

set_num_threads( 4 )
memory 2 gb

molecule MOL {
0 1

H	 -1.330649	 -0.482612	 0.669802
N	 -0.625934	 -0.663929	 -0.000707
C	 -0.821905	 -1.756827	 -0.923890
C	 0.468494	 0.129045	 -0.002160
H	 -0.921366	 -2.697718	 -0.395856
H	 0.035524	 -1.810672	 -1.572742
H	 -1.708477	 -1.601670	 -1.527176
C	 1.785715	 -0.615093	 0.000603
O	 0.413285	 1.323206	 0.000532
H	 1.866994	 -1.243310	 -0.878792
H	 2.591506	 0.100263	 0.006422
H	 1.860358	 -1.250360	 0.875522

	symmetry c1
}
set optking {
	frozen_dihedral = ("
		3 2 4 9
	")
}

ee,wfn = optimize('scf', return_wfn=True)
oeprop( wfn, 'DIPOLE', 'QUADRUPOLE', 'MULLIKEN_CHARGES')
f=open( 'psi4out.xyz', 'w' )
f.write( "12  " )
f.write( str(ee) + "\n" )
f.write( MOL.save_string_xyz() )
f.close()
--------------------------------------------------------------------------

    Molecular point group: c1
  Charge       = 0
  Multiplicity = 1
  Basis Set: CC-PVTZ
  Basis Set:
  @DF-RHF Final Energy:  -247.07429267569276
    Total Energy =                       -247.0742926756928455
    Molecular point group: c1
  Basis Set: CC-PVTZ
  Basis Set:
  Basis Set: CC-PVTZ
  Basis Set:
  @DF-RHF Final Energy:  -247.07904688281297
    Total Energy =                       -247.0790468828130315
  Basis Set: CC-PVTZ
  Basis Set:
  Basis Set: CC-PVTZ
  Basis Set:
  @DF-RHF Final Energy:  -247.08648533329230
    Total Energy =                       -247.0864853332921598
  Basis Set: CC-PVTZ
  Basis Set:
  Basis Set: CC-PVTZ
  Basis Set:
  @DF-RHF Final Energy:  -247.03445468301598
    Total Energy =                       -247.0344546830158947
  Basis Set: CC-PVTZ
  Basis Set:
  @DF-RHF Final Energy:  -247.08801860279632
    Total Energy =                       -247.0880186027965806
  @DF-RHF Final Energy:  -247.09020235563676
    Total Energy =                       -247.0902023556367340
  @DF-RHF Final Energy:  -247.08978398888604
    Total Energy =                       -247.0897839888859835
  @DF-RHF Final Energy:  -247.09135855277941
    Total Energy =                       -247.0913585527794112
  @DF-RHF Final Energy:  -247.09053322966781
    Total Energy =                       -247.0905332296677557
  @DF-RHF Final Energy:  -247.09225513050717
    Total Energy =                       -247.0922551305072261
  @DF-RHF Final Energy:  -247.09250127543692
    Total Energy =                       -247.0925012754368595
  Basis Set: CC-PVTZ
  Basis Set:
  @DF-RHF Final Energy:  -247.09253838367181
    Total Energy =                       -247.0925383836718652
  Basis Set: CC-PVTZ
  Basis Set:
  Basis Set: CC-PVTZ
  Basis Set:
  @DF-RHF Final Energy:  -247.09255398918435
    Total Energy =                       -247.0925539891844096
  Basis Set: CC-PVTZ
  Basis Set:
  Basis Set: CC-PVTZ
  Basis Set:
  @DF-RHF Final Energy:  -247.09255693542497
    Total Energy =                       -247.0925569354251365
  Basis Set: CC-PVTZ
  Basis Set:
  Charge       = 0
  Multiplicity = 1
  Basis Set: CC-PVTZ
  Basis Set:

    Orbital Energies (a.u.)
    -----------------------

    Doubly Occupied:

       1A    -20.522437     2A    -15.569003     3A    -11.341453
       4A    -11.266501     5A    -11.229250     6A     -1.400607
       7A     -1.228464     8A     -1.008306     9A     -0.949305
      10A     -0.774753    11A     -0.678885    12A     -0.666877
      13A     -0.637799    14A     -0.597307    15A     -0.578665
      16A     -0.565054    17A     -0.551837    18A     -0.511982
      19A     -0.429454    20A     -0.396963

  @DF-RHF Final Energy:  -247.09255731491740

   => Energetics <=

    Nuclear Repulsion Energy =            181.6783091002932053
    One-Electron Energy =                -695.7319272574700335
    Two-Electron Energy =                 266.9610608422594282
    DFT Exchange-Correlation Energy =       0.0000000000000000
    Empirical Dispersion Energy =           0.0000000000000000
    PCM Polarization Energy =               0.0000000000000000
    EFP Energy =                            0.0000000000000000
    Total Energy =                       -247.0925573149174284
    Molecular point group: c1
  Basis Set: CC-PVTZ
  Basis Set:

  -Total Gradient:
     Atom            X                  Y                   Z
    ------   -----------------  -----------------  -----------------
       1       -0.000009375012     0.000012833132    -0.000001556945
       2        0.004545669922    -0.002401171038     0.005511897824
       3       -0.002569700585     0.000417153076    -0.005417852540
       4       -0.003274318471     0.005787759747     0.006185980262
       5       -0.000002778596    -0.000008136377     0.000007464522
       6        0.000002529067    -0.000005255678    -0.000003310137
       7       -0.000005479734     0.000011688613    -0.000008768442
       8       -0.000013748065    -0.000007470933     0.000054092499
       9        0.001316833408    -0.003821407011    -0.006280725133
      10        0.000002849343     0.000006498354    -0.000028379408
      11       -0.000001906031     0.000008134845    -0.000004607211
      12        0.000009424756    -0.000000626734    -0.000014235293

  **** Optimization is complete! (in 15 steps) ****
    Final optimized geometry and variables:
    Molecular point group: c1

    Geometry (in Angstrom), charge = 0, multiplicity = 1:

    H           -1.722873443791    -0.107230001616    -0.035944931912
    N           -0.837975421813    -0.396487459313     0.321322112272
    C           -0.607362784231    -1.814401767152     0.099631353324
    C            0.108749013932     0.533896458367    -0.054009783601
    H           -1.464702668569    -2.362665943985     0.462371775645
    H            0.255040481398    -2.154079081410     0.655072964843
    H           -0.461556330521    -2.057564471398    -0.949030307701
    C            1.528414165422     0.268454262227     0.386292221329
    O           -0.180297058089     1.489002421870    -0.704253742630
    H            1.985492428773    -0.456861342604    -0.277730643011
    H            2.085325097977     1.189463184352     0.321435545021
    H            1.566186728736    -0.123357253640     1.393558063955

  Mulliken Charges: (a.u.)
   Center  Symbol    Alpha    Beta     Spin     Total
       1     H     0.42686  0.42686  0.00000  0.14628
       2     N     3.61337  3.61337  0.00000 -0.22674
       3     C     3.08937  3.08937  0.00000 -0.17873
       4     C     2.84164  2.84164  0.00000  0.31673
       5     H     0.44322  0.44322  0.00000  0.11356
       6     H     0.45149  0.45149  0.00000  0.09701
       7     H     0.45720  0.45720  0.00000  0.08559
       8     C     3.15854  3.15854  0.00000 -0.31708
       9     O     4.19528  4.19528  0.00000 -0.39056
      10     H     0.44813  0.44813  0.00000  0.10374
      11     H     0.43021  0.43021  0.00000  0.13959
      12     H     0.44469  0.44469  0.00000  0.11062

   Total alpha = 20.00000, Total beta = 20.00000, Total charge =  0.00000

*** Psi4 exiting successfully. Buy a developer a beer!
