  ==> Input File <==

--------------------------------------------------------------------------
set {
	reference rhf
	basis 6-31G*
}

set_num_threads( 1 )
memory 2 gb

molecule MOL {
0 1

H	 3.729471	 -0.928294	 -0.070608
O	 2.826016	 -1.159218	 0.122261
C	 2.077727	 -0.067559	 -0.035091
C	 0.624473	 -0.343591	 0.253101
O	 2.542965	 0.974826	 -0.363729
C	 -0.265902	 0.883932	 0.072916
H	 0.324016	 -1.163849	 -0.390541
H	 0.565024	 -0.726111	 1.268924
C	 -1.728698	 0.646073	 0.462102
H	 -0.209144	 1.219470	 -0.958188
H	 0.135059	 1.692851	 0.673903
C	 -1.947848	 -0.441031	 1.518102
H	 -2.276239	 0.371374	 -0.436508
H	 -2.168825	 1.579790	 0.809402
C	 -3.428608	 -0.705946	 1.789482
H	 -1.470968	 -1.361843	 1.188352
H	 -1.463494	 -0.162120	 2.450300
H	 -3.558511	 -1.477919	 2.541476
H	 -3.939968	 -1.031912	 0.888323
H	 -3.928080	 0.190485	 2.146098

	symmetry c1
}
set optking {
	frozen_dihedral = ("
		16 12 9 6,
		7 4 6 10,
		5 3 4 7,
		1 2 3 5
	")
}

ee = energy('scf')
oeprop('DIPOLE', 'QUADRUPOLE', 'MULLIKEN_CHARGES')
f=open( 'psi4out.xyz', 'w' )
f.write( "20  " )
f.write( str(ee) + "\n" )
f.write( MOL.save_string_xyz() )
f.close()
--------------------------------------------------------------------------

    Molecular point group: c1

    Geometry (in Angstrom), charge = 0, multiplicity = 1:

       Center              X                  Y                   Z               Mass
    ------------   -----------------  -----------------  -----------------  -----------------
           H          3.596145995711    -0.884369271435    -0.544878903511     1.007825032070
           O          2.692690995711    -1.115293271435    -0.352009903511    15.994914619560
           C          1.944401995711    -0.023634271435    -0.509361903511    12.000000000000
           C          0.491147995711    -0.299666271435    -0.221169903511    12.000000000000
           O          2.409639995711     1.018750728565    -0.837999903511    15.994914619560
           C         -0.399227004289     0.927856728565    -0.401354903511    12.000000000000
           H          0.190690995711    -1.119924271435    -0.864811903511     1.007825032070
           H          0.431698995711    -0.682186271435     0.794653096489     1.007825032070
           C         -1.862023004289     0.689997728565    -0.012168903511    12.000000000000
           H         -0.342469004289     1.263394728565    -1.432458903511     1.007825032070
           H          0.001733995711     1.736775728565     0.199632096489     1.007825032070
           C         -2.081173004289    -0.397106271435     1.043831096489    12.000000000000
           H         -2.409564004289     0.415298728565    -0.910778903511     1.007825032070
           H         -2.302150004289     1.623714728565     0.335131096489     1.007825032070
           C         -3.561933004289    -0.662021271435     1.315211096489    12.000000000000
           H         -1.604293004289    -1.317918271435     0.714081096489     1.007825032070
           H         -1.596819004289    -0.118195271435     1.976029096489     1.007825032070
           H         -3.691836004289    -1.433994271435     2.067205096489     1.007825032070
           H         -4.073293004289    -0.987987271435     0.414052096489     1.007825032070
           H         -4.061405004289     0.234409728565     1.671827096489     1.007825032070

  Charge       = 0
  Multiplicity = 1
  Basis Set: 6-31G*
  Basis Set:

    Orbital Energies (a.u.)
    -----------------------

    Doubly Occupied:

       1A    -20.612155     2A    -20.550909     3A    -11.380406
       4A    -11.239594     5A    -11.222051     6A    -11.221210
       7A    -11.219532     8A    -11.212602     9A     -1.474103
      10A     -1.365088    11A     -1.098394    12A     -1.038538
      13A     -0.961865    14A     -0.869272    15A     -0.823893
      16A     -0.767381    17A     -0.699205    18A     -0.690420
      19A     -0.667148    20A     -0.637087    21A     -0.599845
      22A     -0.593569    23A     -0.580430    24A     -0.551938
      25A     -0.538434    26A     -0.519259    27A     -0.497480
      28A     -0.478595    29A     -0.471310    30A     -0.459190
      31A     -0.457607    32A     -0.442924

  @DF-RHF Final Energy:  -383.94196454856944

   => Energetics <=

    Nuclear Repulsion Energy =            379.0514209041280083
    One-Electron Energy =               -1274.1038336788965353
    Two-Electron Energy =                 511.1104482261991961
    DFT Exchange-Correlation Energy =       0.0000000000000000
    Empirical Dispersion Energy =           0.0000000000000000
    PCM Polarization Energy =               0.0000000000000000
    EFP Energy =                            0.0000000000000000
    Total Energy =                       -383.9419645485693309

  Mulliken Charges: (a.u.)
   Center  Symbol    Alpha    Beta     Spin     Total
       1     H     0.26784  0.26784  0.00000  0.46432
       2     O     4.35163  4.35163  0.00000 -0.70325
       3     C     2.62075  2.62075  0.00000  0.75849
       4     C     3.21938  3.21938  0.00000 -0.43876
       5     O     4.27931  4.27931  0.00000 -0.55863
       6     C     3.15428  3.15428  0.00000 -0.30857
       7     H     0.39855  0.39855  0.00000  0.20289
       8     H     0.39473  0.39473  0.00000  0.21053
       9     C     3.15429  3.15429  0.00000 -0.30858
      10     H     0.40941  0.40941  0.00000  0.18119
      11     H     0.40950  0.40950  0.00000  0.18099
      12     C     3.16109  3.16109  0.00000 -0.32219
      13     H     0.42180  0.42180  0.00000  0.15640
      14     H     0.41735  0.41735  0.00000  0.16531
      15     C     3.23804  3.23804  0.00000 -0.47608
      16     H     0.41996  0.41996  0.00000  0.16008
      17     H     0.42171  0.42171  0.00000  0.15659
      18     H     0.41855  0.41855  0.00000  0.16291
      19     H     0.42101  0.42101  0.00000  0.15798
      20     H     0.42081  0.42081  0.00000  0.15838

   Total alpha = 32.00000, Total beta = 32.00000, Total charge =  0.00000
