                              Psi4 1.0.54 Driver

  ==> Input File <==

--------------------------------------------------------------------------
set {
	reference rhf
	basis cc-pvtz
}

set_num_threads( 4 )
memory 2 gb

molecule MOL {
0 1

H	 2.614283	 2.028610	 0.296620
O	 3.358864	 1.662087	 -0.142800
C	 3.565468	 0.338079	 0.273842
C	 2.533667	 -0.637565	 -0.272227
H	 4.548038	 0.064914	 -0.086598
H	 3.593945	 0.282242	 1.360360
C	 1.114816	 -0.402372	 0.240993
H	 2.544552	 -0.580764	 -1.356576
H	 2.850574	 -1.642962	 -0.005497
C	 0.113298	 -1.420414	 -0.302504
H	 0.796373	 0.598427	 -0.031033
H	 1.113377	 -0.446476	 1.328807
C	 -0.876916	 -1.966403	 0.727850
H	 -0.436810	 -0.974452	 -1.127565
H	 0.665132	 -2.255858	 -0.724383
C	 -1.878458	 -0.946083	 1.265997
H	 -1.428255	 -2.783620	 0.271002
H	 -0.326162	 -2.402213	 1.558449
C	 -2.905882	 -1.560045	 2.213553
H	 -2.396583	 -0.478716	 0.431382
H	 -1.356444	 -0.148092	 1.785337
C	 -3.905091	 -0.543378	 2.755642
H	 -3.442177	 -2.351438	 1.697160
H	 -2.389466	 -2.034763	 3.043625
H	 -4.461063	 -0.073683	 1.950956
H	 -4.620559	 -1.012019	 3.421666
H	 -3.402760	 0.242201	 3.310512

	symmetry c1
}
set optking {
	frozen_dihedral = ("
		14 10 7 4
	")
}

ee,wfn = optimize('scf', return_wfn=True)
oeprop( wfn, 'DIPOLE', 'QUADRUPOLE', 'MULLIKEN_CHARGES')
f=open( 'psi4out.xyz', 'w' )
f.write( "27  " )
f.write( str(ee) + "\n" )
f.write( MOL.save_string_xyz() )
f.close()
--------------------------------------------------------------------------

    Molecular point group: c1
  Charge       = 0
  Multiplicity = 1
  Basis Set: CC-PVTZ
  Basis Set:
  @DF-RHF Final Energy:  -388.42370984687670
    Total Energy =                       -388.4237098468764771
    Molecular point group: c1
  Basis Set: CC-PVTZ
  Basis Set:
  Basis Set: CC-PVTZ
  Basis Set:
  @DF-RHF Final Energy:  -388.42403391280561
    Total Energy =                       -388.4240339128057258
  Basis Set: CC-PVTZ
  Basis Set:
  Basis Set: CC-PVTZ
  Basis Set:
  @DF-RHF Final Energy:  -388.42405399402065
    Total Energy =                       -388.4240539940203689
  Basis Set: CC-PVTZ
  Basis Set:
  Basis Set: CC-PVTZ
  Basis Set:
  @DF-RHF Final Energy:  -388.42412837310258
    Total Energy =                       -388.4241283731020076
  Basis Set: CC-PVTZ
  Basis Set:
  Basis Set: CC-PVTZ
  Basis Set:
  @DF-RHF Final Energy:  -388.42413121906912
    Total Energy =                       -388.4241312190692952
  Basis Set: CC-PVTZ
  Basis Set:
  Basis Set: CC-PVTZ
  Basis Set:
  @DF-RHF Final Energy:  -388.42413253794257
    Total Energy =                       -388.4241325379420005
  Basis Set: CC-PVTZ
  Basis Set:
  Charge       = 0
  Multiplicity = 1
  Basis Set: CC-PVTZ
  Basis Set:

    Orbital Energies (a.u.)
    -----------------------

    Doubly Occupied:

       1A    -20.545275     2A    -11.264894     3A    -11.217311
       4A    -11.214528     5A    -11.214176     6A    -11.213776
       7A    -11.213329     8A    -11.212147     9A    -11.207663
      10A     -1.363209    11A     -1.095910    12A     -1.061976
      13A     -1.012754    14A     -0.948412    15A     -0.888937
      16A     -0.821537    17A     -0.803154    18A     -0.777204
      19A     -0.695576    20A     -0.657147    21A     -0.635512
      22A     -0.616567    23A     -0.595853    24A     -0.588965
      25A     -0.581078    26A     -0.550945    27A     -0.546328
      28A     -0.531115    29A     -0.504618    30A     -0.498432
      31A     -0.485421    32A     -0.474730    33A     -0.466656
      34A     -0.459308    35A     -0.453871    36A     -0.442670
      37A     -0.425396

  @DF-RHF Final Energy:  -388.42413281064029

   => Energetics <=

    Nuclear Repulsion Energy =            459.6767883588503878
    One-Electron Energy =               -1437.6290931840014764
    Two-Electron Energy =                 589.5281720145105737
    DFT Exchange-Correlation Energy =       0.0000000000000000
    Empirical Dispersion Energy =           0.0000000000000000
    PCM Polarization Energy =               0.0000000000000000
    EFP Energy =                            0.0000000000000000
    Total Energy =                       -388.4241328106404580
    Molecular point group: c1
  Basis Set: CC-PVTZ
  Basis Set:

  -Total Gradient:
     Atom            X                  Y                   Z
    ------   -----------------  -----------------  -----------------
       1       -0.000000330982     0.000000568342     0.000002674375
       2       -0.000006062301     0.000004977138    -0.000009312033
       3        0.000002783118    -0.000003368503     0.000006851490
       4        0.000538025055    -0.001653369187     0.002035266134
       5       -0.000002834453     0.000000290699     0.000000083822
       6        0.000000956577    -0.000002136430     0.000000793193
       7       -0.001344502941     0.002573786868    -0.002246453061
       8       -0.000006405590    -0.000003053536    -0.000001095410
       9        0.000005998760     0.000000183091     0.000002956801
      10        0.003311582646    -0.002031364312    -0.002199861081
      11        0.000010422066     0.000004053886     0.000001463751
      12        0.000006515294    -0.000001216122     0.000004307898
      13        0.000004329073     0.000001240089    -0.000008996635
      14       -0.002524180083     0.001112651865     0.002423426252
      15       -0.000010433634    -0.000007970968    -0.000000299376
      16        0.000002609138     0.000002937866    -0.000005708933
      17        0.000001678940     0.000000828735    -0.000005512149
      18        0.000004092936     0.000000590708    -0.000000868929
      19        0.000006015559    -0.000000414402     0.000001851667
      20       -0.000003290578     0.000001328126     0.000001930737
      21        0.000003673735    -0.000000833137     0.000000275204
      22       -0.000003684965    -0.000001365262    -0.000003806638
      23        0.000001889271     0.000003289062     0.000004089788
      24       -0.000000408315     0.000001913937    -0.000001776792
      25        0.000001729801     0.000000570098     0.000002176925
      26        0.000001121345     0.000001763212    -0.000002936906
      27       -0.000001289472    -0.000005881864    -0.000001520095

  **** Optimization is complete! (in 7 steps) ****
    Final optimized geometry and variables:
    Molecular point group: c1

    Geometry (in Angstrom), charge = 0, multiplicity = 1:

    H            2.380675843665     2.596553780997    -0.465260402297
    O            3.136084630313     2.250155050322    -0.902212839582
    C            3.372842260512     0.929702198283    -0.490753399980
    C            2.361505844580    -0.066414356428    -1.037266166997
    H            4.360161685269     0.679652067258    -0.854975050996
    H            3.405870675608     0.870665792336     0.595573836706
    C            0.941900988672     0.122744447008    -0.505515877272
    H            2.362790189292    -0.000028380537    -2.121439693167
    H            2.702805095493    -1.066553561517    -0.782082254051
    C           -0.058928102423    -0.900053364697    -1.074890951339
    H            0.596150374491     1.128754915444    -0.717365674822
    H            0.972797906354     0.032177959880     0.577832747194
    C           -1.053914481429    -1.445903797207    -0.048066708324
    H           -0.628418292568    -0.442481960367    -1.878424272304
    H            0.482713282127    -1.733897071399    -1.507822955391
    C           -2.025787785024    -0.403308164514     0.500110538673
    H           -1.625440961473    -2.246882073973    -0.509070531332
    H           -0.506825839392    -1.898619227216     0.775910215547
    C           -3.020841548992    -0.976865569747     1.505321513635
    H           -2.571724511075     0.043579540691    -0.327996348922
    H           -1.474526254878     0.405683832309     0.971427080840
    C           -3.996580754229     0.063600166381     2.044887192835
    H           -3.577957642638    -1.784079280701     1.037743020858
    H           -2.476851221908    -1.423317324406     2.333323828053
    H           -4.580629804728     0.504841498396     1.244030677985
    H           -4.688244874036    -0.376477636247     2.754059373149
    H           -3.471859473106     0.867441991366     2.550674150195

  Mulliken Charges: (a.u.)
   Center  Symbol    Alpha    Beta     Spin     Total
       1     H     0.39261  0.39261  0.00000  0.21478
       2     O     4.20542  4.20542  0.00000 -0.41084
       3     C     2.98007  2.98007  0.00000  0.03987
       4     C     3.08869  3.08869  0.00000 -0.17737
       5     H     0.44859  0.44859  0.00000  0.10282
       6     H     0.46998  0.46998  0.00000  0.06005
       7     C     3.10812  3.10812  0.00000 -0.21623
       8     H     0.45023  0.45023  0.00000  0.09954
       9     H     0.45567  0.45567  0.00000  0.08866
      10     C     3.10128  3.10128  0.00000 -0.20255
      11     H     0.45257  0.45257  0.00000  0.09486
      12     H     0.45334  0.45334  0.00000  0.09331
      13     C     3.09754  3.09754  0.00000 -0.19507
      14     H     0.44996  0.44996  0.00000  0.10007
      15     H     0.44661  0.44661  0.00000  0.10679
      16     C     3.08634  3.08634  0.00000 -0.17269
      17     H     0.44824  0.44824  0.00000  0.10352
      18     H     0.45468  0.45468  0.00000  0.09065
      19     C     3.08464  3.08464  0.00000 -0.16929
      20     H     0.45462  0.45462  0.00000  0.09076
      21     H     0.45394  0.45394  0.00000  0.09212
      22     C     3.14974  3.14974  0.00000 -0.29947
      23     H     0.45358  0.45358  0.00000  0.09284
      24     H     0.45462  0.45462  0.00000  0.09076
      25     H     0.45503  0.45503  0.00000  0.08995
      26     H     0.44823  0.44823  0.00000  0.10353
      27     H     0.45568  0.45568  0.00000  0.08864

   Total alpha = 37.00000, Total beta = 37.00000, Total charge = -0.00000

*** Psi4 exiting successfully. Buy a developer a beer!
