  ==> Input File <==

--------------------------------------------------------------------------
set {
	reference rhf
	basis cc-pvtz
}

set_num_threads( 4 )
memory 2 gb

molecule MOL {
0 1

H	 -1.146430	 -0.756793	 -1.074747
O	 -1.432053	 -0.565244	 -0.200812
C	 -0.727158	 0.534527	 0.310686
C	 0.680222	 0.664433	 -0.252229
H	 -1.306802	 1.408001	 0.044211
H	 -0.690821	 0.490158	 1.397609
C	 1.605391	 -0.489360	 0.123098
H	 0.615089	 0.745647	 -1.332226
H	 1.101414	 1.597893	 0.110950
H	 1.247627	 -1.432485	 -0.275204
H	 2.601435	 -0.332816	 -0.273062
H	 1.691776	 -0.589902	 1.200774

	symmetry c1
}
set optking {
	frozen_dihedral = ("
		1 2 3 4
	")
}

ee = optimize('scf')
oeprop('DIPOLE', 'QUADRUPOLE', 'MULLIKEN_CHARGES')
f=open( 'psi4out.xyz', 'w' )
f.write( "12  " )
f.write( str(ee) + "\n" )
f.write( MOL.save_string_xyz() )
f.close()
--------------------------------------------------------------------------

    Molecular point group: c1
  Charge       = 0
  Multiplicity = 1
  Basis Set: CC-PVTZ
  Basis Set:
  @DF-RHF Final Energy:  -193.18830748435997
    Total Energy =                       -193.1883074843598536
    Molecular point group: c1
  Basis Set: CC-PVTZ
  Basis Set:
  Basis Set: CC-PVTZ
  Basis Set:
  @DF-RHF Final Energy:  -193.18919214633161
    Total Energy =                       -193.1891921463317203
  Basis Set: CC-PVTZ
  Basis Set:
  Basis Set: CC-PVTZ
  Basis Set:
  @DF-RHF Final Energy:  -193.18953225712491
    Total Energy =                       -193.1895322571249949
  Basis Set: CC-PVTZ
  Basis Set:
  Basis Set: CC-PVTZ
  Basis Set:
  @DF-RHF Final Energy:  -193.18953732088821
    Total Energy =                       -193.1895373208882347
  Basis Set: CC-PVTZ
  Basis Set:
  Basis Set: CC-PVTZ
  Basis Set:
  @DF-RHF Final Energy:  -193.18954118387202
    Total Energy =                       -193.1895411838721373
  Basis Set: CC-PVTZ
  Basis Set:
  Charge       = 0
  Multiplicity = 1
  Basis Set: CC-PVTZ
  Basis Set:

    Orbital Energies (a.u.)
    -----------------------

    Doubly Occupied:

       1A    -20.545017     2A    -11.265709     3A    -11.223645
       4A    -11.212533     5A     -1.363371     6A     -1.053539
       7A     -0.926173     8A     -0.820242     9A     -0.666095
      10A     -0.643655    11A     -0.639523    12A     -0.571703
      13A     -0.544552    14A     -0.514680    15A     -0.490288
      16A     -0.467638    17A     -0.434104

  @DF-RHF Final Energy:  -193.18954129245884

   => Energetics <=

    Nuclear Repulsion Energy =            133.2688873904034494
    One-Electron Energy =                -526.1519120642763028
    Two-Electron Energy =                 199.6934833814138983
    DFT Exchange-Correlation Energy =       0.0000000000000000
    Empirical Dispersion Energy =           0.0000000000000000
    PCM Polarization Energy =               0.0000000000000000
    EFP Energy =                            0.0000000000000000
    Total Energy =                       -193.1895412924589550
    Molecular point group: c1
  Basis Set: CC-PVTZ
  Basis Set:

  -Total Gradient:
     Atom            X                  Y                   Z
    ------   -----------------  -----------------  -----------------
       1        0.001591434965    -0.001395658417     0.000870672241
       2       -0.002187737610     0.002046967606    -0.001557795430
       3        0.001082463041    -0.001484900931     0.001768985318
       4       -0.000496618701     0.000816745932    -0.001084631038
       5        0.000011079667     0.000003110952     0.000002823880
       6        0.000003174231     0.000008523926     0.000003584006
       7       -0.000004958000     0.000001925287    -0.000003300769
       8        0.000001942959    -0.000001623722     0.000001127127
       9        0.000007086463     0.000005338881    -0.000000680457
      10       -0.000001018619    -0.000004632392    -0.000002091455
      11       -0.000008555168     0.000002156867    -0.000000294648
      12        0.000001706773     0.000002046011     0.000001601224

  **** Optimization is complete! (in 6 steps) ****
    Final optimized geometry and variables:
    Molecular point group: c1

    Geometry (in Angstrom), charge = 0, multiplicity = 1:

    H           -1.132209487300    -0.788361748610    -1.048802768172
    O           -1.426784689724    -0.583496363411    -0.180601973191
    C           -0.730144664585     0.528206057128     0.319512067460
    C            0.682129202290     0.659407183721    -0.228706254677
    H           -1.285495385411     1.435520366547     0.097127788605
    H           -0.705133431948     0.419072625505     1.397134710413
    C            1.603258533803    -0.497165673432     0.148617009660
    H            0.631485875756     0.755588064965    -1.311814400270
    H            1.098828534078     1.592881285834     0.136861643027
    H            1.215815746315    -1.445818742895    -0.202391291500
    H            2.590210190200    -0.361927729355    -0.277929438610
    H            1.712593562417    -0.567484302099     1.225331600880

  Mulliken Charges: (a.u.)
   Center  Symbol    Alpha    Beta     Spin     Total
       1     H     0.39348  0.39348  0.00000  0.21304
       2     O     4.20609  4.20609  0.00000 -0.41219
       3     C     2.95876  2.95876  0.00000  0.08248
       4     C     3.10270  3.10270  0.00000 -0.20541
       5     H     0.46573  0.46573  0.00000  0.06854
       6     H     0.46591  0.46591  0.00000  0.06819
       7     C     3.14288  3.14288  0.00000 -0.28577
       8     H     0.45745  0.45745  0.00000  0.08510
       9     H     0.45114  0.45114  0.00000  0.09772
      10     H     0.45312  0.45312  0.00000  0.09377
      11     H     0.44906  0.44906  0.00000  0.10189
      12     H     0.45369  0.45369  0.00000  0.09263

   Total alpha = 17.00000, Total beta = 17.00000, Total charge =  0.00000
