  ==> Input File <==

--------------------------------------------------------------------------
set {
	reference rhf
	basis 6-31G*
}

set_num_threads( 4 )
memory 2 gb

molecule MOL {
0 1

H	 -2.698709	 -0.000305	 0.034435
C	 -1.693833	 0.000034	 0.434417
O	 -0.828952	 -0.000968	 -0.659236
H	 -1.574200	 0.882896	 1.055746
H	 -1.574147	 -0.881698	 1.057355
C	 0.559449	 -0.000018	 -0.420814
C	 0.917969	 0.577417	 0.947012
C	 1.195153	 -1.368440	 -0.658007
H	 0.938662	 0.677438	 -1.176647
H	 0.409963	 1.523356	 1.100890
H	 1.987668	 0.751561	 1.007462
H	 0.650251	 -0.091748	 1.758621
H	 0.878442	 -1.769643	 -1.614661
H	 2.276936	 -1.278364	 -0.667900
H	 0.934630	 -2.082495	 0.116650

	symmetry c1
}
set optking {
	frozen_dihedral = ("
		9 6 3 2
	")
}

ee = optimize('scf')
oeprop('DIPOLE', 'QUADRUPOLE', 'MULLIKEN_CHARGES')
f=open( 'psi4out.xyz', 'w' )
f.write( "15  " )
f.write( str(ee) + "\n" )
f.write( MOL.save_string_xyz() )
f.close()
--------------------------------------------------------------------------

    Molecular point group: c1
  Charge       = 0
  Multiplicity = 1
  Basis Set: 6-31G*
  Basis Set:
  @DF-RHF Final Energy:  -232.13253964681064
    Total Energy =                       -232.1325396468105851
    Molecular point group: c1
  Basis Set: 6-31G*
  Basis Set:
  Basis Set: 6-31G*
  Basis Set:
  @DF-RHF Final Energy:  -232.13306058784190
    Total Energy =                       -232.1330605878420101
  Basis Set: 6-31G*
  Basis Set:
  Basis Set: 6-31G*
  Basis Set:
  @DF-RHF Final Energy:  -232.13457424374852
    Total Energy =                       -232.1345742437486024
  Basis Set: 6-31G*
  Basis Set:
  Basis Set: 6-31G*
  Basis Set:
  @DF-RHF Final Energy:  -232.13463645518556
    Total Energy =                       -232.1346364551854435
  Basis Set: 6-31G*
  Basis Set:
  Basis Set: 6-31G*
  Basis Set:
  @DF-RHF Final Energy:  -232.13466698497814
    Total Energy =                       -232.1346669849780824
  Basis Set: 6-31G*
  Basis Set:
  Basis Set: 6-31G*
  Basis Set:
  @DF-RHF Final Energy:  -232.13467203032769
    Total Energy =                       -232.1346720303276925
  Basis Set: 6-31G*
  Basis Set:
  Basis Set: 6-31G*
  Basis Set:
  @DF-RHF Final Energy:  -232.13467335615638
    Total Energy =                       -232.1346733561563269
  Basis Set: 6-31G*
  Basis Set:
  Charge       = 0
  Multiplicity = 1
  Basis Set: 6-31G*
  Basis Set:

    Orbital Energies (a.u.)
    -----------------------

    Doubly Occupied:

       1A    -20.545832     2A    -11.274584     3A    -11.262255
       4A    -11.215048     5A    -11.206321     6A     -1.367337
       7A     -1.051825     8A     -0.946919     9A     -0.921528
      10A     -0.781355    11A     -0.674797    12A     -0.642518
      13A     -0.631405    14A     -0.579341    15A     -0.555505
      16A     -0.546721    17A     -0.535891    18A     -0.506323
      19A     -0.492721    20A     -0.444866    21A     -0.400538

  @DF-RHF Final Energy:  -232.13467356459068

   => Energetics <=

    Nuclear Repulsion Energy =            198.3319607774449196
    One-Electron Energy =                -707.7660034081192180
    Two-Electron Energy =                 277.2993690660837274
    DFT Exchange-Correlation Energy =       0.0000000000000000
    Empirical Dispersion Energy =           0.0000000000000000
    PCM Polarization Energy =               0.0000000000000000
    EFP Energy =                            0.0000000000000000
    Total Energy =                       -232.1346735645905710
    Molecular point group: c1
  Basis Set: 6-31G*
  Basis Set:

  -Total Gradient:
     Atom            X                  Y                   Z
    ------   -----------------  -----------------  -----------------
       1        0.000002410883     0.000000842227    -0.000006560328
       2       -0.000118507769     0.003211232821     0.000018395091
       3        0.000090109220    -0.004255106622     0.000430413235
       4       -0.000000466104    -0.000003667577    -0.000007133437
       5        0.000001840106    -0.000001437441     0.000000190107
       6        0.000490415822    -0.001758201223    -0.002771207429
       7        0.000016253577     0.000014631892     0.000007192045
       8        0.000004889190    -0.000001587502    -0.000014473757
       9       -0.000495821594     0.002786146269     0.002343308111
      10        0.000004957611     0.000004093380     0.000005028514
      11       -0.000000355988     0.000000675981     0.000000818161
      12        0.000001160349     0.000000488168    -0.000003218399
      13        0.000001808551    -0.000003932621    -0.000001722969
      14        0.000002401132     0.000001323452     0.000000134777
      15       -0.000001094986     0.000004498795    -0.000001163724

  **** Optimization is complete! (in 8 steps) ****
    Final optimized geometry and variables:
    Molecular point group: c1

    Geometry (in Angstrom), charge = 0, multiplicity = 1:

    H           -2.716516171908     0.011057918276     0.049058519521
    C           -1.728331022286     0.109639284766     0.478053822189
    O           -0.836747282707     0.145330990460    -0.591664218233
    H           -1.702218448239     1.018099891782     1.071392752582
    H           -1.557575633354    -0.739447023450     1.135994533538
    C            0.556870650423     0.192041055454    -0.358749397446
    C            0.963723838967     0.757996936483     1.001560660482
    C            1.147601264274    -1.191612381928    -0.600131740513
    H            0.936426280822     0.883631402843    -1.103314670293
    H            0.546593543846     1.746289167988     1.160714473082
    H            2.044579973450     0.847721506093     1.036121553146
    H            0.661241281190     0.119248725974     1.824678525413
    H            0.862312666271    -1.551817661224    -1.581695256410
    H            2.231880391078    -1.170819545660    -0.541623204107
    H            0.782254363572    -1.899543970055     0.138530551666

  Mulliken Charges: (a.u.)
   Center  Symbol    Alpha    Beta     Spin     Total
       1     H     0.41228  0.41228  0.00000  0.17543
       2     C     3.07713  3.07713  0.00000 -0.15427
       3     O     4.31816  4.31816  0.00000 -0.63632
       4     H     0.42868  0.42868  0.00000  0.14265
       5     H     0.43181  0.43181  0.00000  0.13638
       6     C     2.90388  2.90388  0.00000  0.19223
       7     C     3.26343  3.26343  0.00000 -0.52685
       8     C     3.24074  3.24074  0.00000 -0.48148
       9     H     0.41922  0.41922  0.00000  0.16157
      10     H     0.41302  0.41302  0.00000  0.17396
      11     H     0.41482  0.41482  0.00000  0.17036
      12     H     0.41846  0.41846  0.00000  0.16307
      13     H     0.41119  0.41119  0.00000  0.17762
      14     H     0.42479  0.42479  0.00000  0.15043
      15     H     0.42239  0.42239  0.00000  0.15523

   Total alpha = 21.00000, Total beta = 21.00000, Total charge = -0.00000
