  ==> Input File <==

--------------------------------------------------------------------------
set {
	reference rhf
	basis cc-pvtz
}

set_num_threads( 4 )
memory 2 gb

molecule MOL {
0 1

H	 -3.853603	 -1.976959	 0.722283
C	 -2.784875	 -1.881301	 0.751371
C	 -2.054818	 -2.581696	 1.694825
C	 -2.142136	 -1.058530	 -0.154122
H	 -2.554385	 -3.220135	 2.397341
C	 -0.681534	 -2.458263	 1.731579
H	 -2.709207	 -0.515797	 -0.885384
C	 -0.767109	 -0.933886	 -0.118592
H	 -0.100907	 -2.993215	 2.455288
C	 -0.032615	 -1.634075	 0.825212
H	 -0.266255	 -0.297542	 -0.818407
C	 1.452813	 -1.534830	 0.906305
O	 1.968286	 -0.725612	 -0.000027
O	 2.110393	 -2.119594	 1.700546
C	 3.373556	 -0.568203	 0.000011
H	 3.695416	 -0.031588	 -0.879663
H	 3.782700	 -1.565294	 -0.000152
H	 3.695405	 -0.031851	 0.879862

	symmetry c1
}
set optking {
	frozen_dihedral = ("
		12 13 15 16
	")
}

ee = optimize('scf')
oeprop('DIPOLE', 'QUADRUPOLE', 'MULLIKEN_CHARGES')
f=open( 'psi4out.xyz', 'w' )
f.write( "18  " )
f.write( str(ee) + "\n" )
f.write( MOL.save_string_xyz() )
f.close()
--------------------------------------------------------------------------

    Molecular point group: c1
  Charge       = 0
  Multiplicity = 1
  Basis Set: CC-PVTZ
  Basis Set:
  @DF-RHF Final Energy:  -457.50845895377523
    Total Energy =                       -457.5084589537750617
    Molecular point group: c1
  Basis Set: CC-PVTZ
  Basis Set:
  Basis Set: CC-PVTZ
  Basis Set:
  @DF-RHF Final Energy:  -457.50976806658508
    Total Energy =                       -457.5097680665853659
  Basis Set: CC-PVTZ
  Basis Set:
  Basis Set: CC-PVTZ
  Basis Set:
  @DF-RHF Final Energy:  -457.51005926051084
    Total Energy =                       -457.5100592605107295
  Basis Set: CC-PVTZ
  Basis Set:
  Basis Set: CC-PVTZ
  Basis Set:
  @DF-RHF Final Energy:  -457.50938438772801
    Total Energy =                       -457.5093843877278914
  Basis Set: CC-PVTZ
  Basis Set:
  Basis Set: CC-PVTZ
  Basis Set:
  @DF-RHF Final Energy:  -457.51007600652179
    Total Energy =                       -457.5100760065215582
  Basis Set: CC-PVTZ
  Basis Set:
  Basis Set: CC-PVTZ
  Basis Set:
  @DF-RHF Final Energy:  -457.51007685164603
    Total Energy =                       -457.5100768516460903
  Basis Set: CC-PVTZ
  Basis Set:
  Charge       = 0
  Multiplicity = 1
  Basis Set: CC-PVTZ
  Basis Set:

    Orbital Energies (a.u.)
    -----------------------

    Doubly Occupied:

       1A    -20.600935     2A    -20.534431     3A    -11.371865
       4A    -11.281178     5A    -11.244998     6A    -11.243506
       7A    -11.242707     8A    -11.240059     9A    -11.236073
      10A    -11.235313    11A     -1.476893    12A     -1.368531
      13A     -1.170798    14A     -1.051859    15A     -1.029063
      16A     -0.980628    17A     -0.863225    18A     -0.838480
      19A     -0.781247    20A     -0.745061    21A     -0.687915
      22A     -0.681694    23A     -0.676398    24A     -0.634116
      25A     -0.630085    26A     -0.601307    27A     -0.587609
      28A     -0.565469    29A     -0.531420    30A     -0.520323
      31A     -0.509549    32A     -0.502229    33A     -0.464062
      34A     -0.449462    35A     -0.350232    36A     -0.346262

  @DF-RHF Final Energy:  -457.51007715159915

   => Energetics <=

    Nuclear Repulsion Energy =            494.0053805711220321
    One-Electron Energy =               -1602.4809425706962429
    Two-Electron Energy =                 650.9654848479747216
    DFT Exchange-Correlation Energy =       0.0000000000000000
    Empirical Dispersion Energy =           0.0000000000000000
    PCM Polarization Energy =               0.0000000000000000
    EFP Energy =                            0.0000000000000000
    Total Energy =                       -457.5100771515994893
    Molecular point group: c1
  Basis Set: CC-PVTZ
  Basis Set:

  -Total Gradient:
     Atom            X                  Y                   Z
    ------   -----------------  -----------------  -----------------
       1       -0.000000082830     0.000000456207    -0.000000496826
       2       -0.000000439236    -0.000005736084     0.000007231347
       3       -0.000009363473     0.000002225456    -0.000004713454
       4        0.000005958100     0.000002980461    -0.000002473410
       5        0.000000132427    -0.000000238266    -0.000000050807
       6        0.000007979682     0.000005252258    -0.000003716145
       7       -0.000001201162    -0.000000287434     0.000000428525
       8       -0.000007661927     0.000002601849    -0.000004012015
       9       -0.000000673712    -0.000000115464    -0.000000392621
      10       -0.000006492386    -0.000007873414     0.000005131314
      11       -0.000000954392    -0.000001380982     0.000001505593
      12        0.000061329198    -0.000637365628    -0.000525736373
      13       -0.000054387180     0.000737512409     0.000669813439
      14        0.000004754855     0.000010072467    -0.000013339940
      15       -0.000059605118     0.000715793977     0.000340014617
      16        0.000071879791    -0.000813914996    -0.000465344916
      17       -0.000000704454    -0.000009213085    -0.000000050839
      18       -0.000010468182    -0.000000769729    -0.000003797489

  **** Optimization is complete! (in 7 steps) ****
    Final optimized geometry and variables:
    Molecular point group: c1

    Geometry (in Angstrom), charge = 0, multiplicity = 1:

    H           -4.025418706813    -0.443335216630    -0.015855241079
    C           -2.956673137878    -0.348677067961     0.016918557952
    C           -2.230450159220    -1.050480738039     0.962418312644
    C           -2.309983040558     0.474159192653    -0.885639241603
    H           -2.733028821462    -1.688978775134     1.662812414928
    C           -0.857215232029    -0.928303475467     1.004033095493
    H           -2.873870014056     1.018110768072    -1.618501319264
    C           -0.934831874392     0.597466695980    -0.845297283003
    H           -0.279692893857    -1.464305097596     1.729521453931
    C           -0.204336516333    -0.104117590230     0.100414430440
    H           -0.431152415473     1.234043946158    -1.542937983859
    C            1.281306728542    -0.006791470902     0.186936535883
    O            1.800032574543     0.805146792206    -0.714958678320
    O            1.934980320843    -0.594457188575     0.982168173610
    C            3.206533531887     0.948935133520    -0.727081678989
    H            3.441563715302     1.495212622065    -1.626045311330
    H            3.688049628759    -0.016334737048    -0.742894424389
    H            3.537597854017     1.496573587802     0.143208332545

  Mulliken Charges: (a.u.)
   Center  Symbol    Alpha    Beta     Spin     Total
       1     H     0.42029  0.42029  0.00000  0.15943
       2     C     3.06974  3.06974  0.00000 -0.13949
       3     C     3.07551  3.07551  0.00000 -0.15101
       4     C     3.07493  3.07493  0.00000 -0.14987
       5     H     0.42038  0.42038  0.00000  0.15923
       6     C     3.07589  3.07589  0.00000 -0.15178
       7     H     0.42189  0.42189  0.00000  0.15623
       8     C     3.08212  3.08212  0.00000 -0.16424
       9     H     0.40665  0.40665  0.00000  0.18670
      10     C     3.01296  3.01296  0.00000 -0.02591
      11     H     0.41104  0.41104  0.00000  0.17792
      12     C     2.78167  2.78167  0.00000  0.43666
      13     O     4.14852  4.14852  0.00000 -0.29703
      14     O     4.21133  4.21133  0.00000 -0.42265
      15     C     3.03669  3.03669  0.00000 -0.07337
      16     H     0.44560  0.44560  0.00000  0.10881
      17     H     0.45065  0.45065  0.00000  0.09870
      18     H     0.45416  0.45416  0.00000  0.09168

   Total alpha = 36.00000, Total beta = 36.00000, Total charge =  0.00000
