                              Psi4 1.0.54 Driver

  ==> Input File <==

--------------------------------------------------------------------------
set {
	reference rhf
	basis cc-pvtz
}

set_num_threads( 4 )
memory 2 gb

molecule MOL {
0 1

O	 0.749630	 1.305591	 -0.000460
C	 0.576499	 0.134701	 -0.003900
C	 -0.765656	 -0.550508	 -0.002152
O	 1.564816	 -0.744612	 -0.000631
C	 -1.945526	 0.411052	 0.000603
H	 -0.794329	 -1.203792	 -0.868145
H	 -0.791555	 -1.205429	 0.862701
C	 -3.282915	 -0.321280	 0.002596
H	 -1.880300	 1.059126	 -0.864925
H	 -1.877207	 1.057892	 0.866807
H	 -3.388495	 -0.952755	 -0.873419
H	 -4.107811	 0.380864	 0.004116
H	 -3.385717	 -0.953283	 0.878571
C	 1.214976	 -2.114137	 -0.005426
H	 0.634032	 -2.362059	 0.870413
H	 2.145322	 -2.658317	 -0.001521
H	 0.643535	 -2.358460	 -0.888490

	symmetry c1
}
set optking {
	frozen_dihedral = ("
		14 4 2 1
	")
}

ee,wfn = optimize('scf', return_wfn=True)
oeprop( wfn, 'DIPOLE', 'QUADRUPOLE', 'MULLIKEN_CHARGES')
f=open( 'psi4out.xyz', 'w' )
f.write( "17  " )
f.write( str(ee) + "\n" )
f.write( MOL.save_string_xyz() )
f.close()
--------------------------------------------------------------------------

    Molecular point group: c1
  Charge       = 0
  Multiplicity = 1
  Basis Set: CC-PVTZ
  Basis Set:
  @DF-RHF Final Energy:  -345.00926551965676
    Total Energy =                       -345.0092655196565943
    Molecular point group: c1
  Basis Set: CC-PVTZ
  Basis Set:
  Basis Set: CC-PVTZ
  Basis Set:
  @DF-RHF Final Energy:  -344.97611167402238
    Total Energy =                       -344.9761116740224338
  Basis Set: CC-PVTZ
  Basis Set:
  Basis Set: CC-PVTZ
  Basis Set:
  @DF-RHF Final Energy:  -345.01574596068360
    Total Energy =                       -345.0157459606837733
  Basis Set: CC-PVTZ
  Basis Set:
  Basis Set: CC-PVTZ
  Basis Set:
  @DF-RHF Final Energy:  -345.02010122559534
    Total Energy =                       -345.0201012255952833
  Basis Set: CC-PVTZ
  Basis Set:
  @DF-RHF Final Energy:  -345.02110055695738
    Total Energy =                       -345.0211005569577196
  @DF-RHF Final Energy:  -345.02121068008319
    Total Energy =                       -345.0212106800835272
  Basis Set: CC-PVTZ
  Basis Set:
  @DF-RHF Final Energy:  -345.02120121124665
    Total Energy =                       -345.0212012112461935
  Basis Set: CC-PVTZ
  Basis Set:
  Basis Set: CC-PVTZ
  Basis Set:
  @DF-RHF Final Energy:  -345.02123633084705
    Total Energy =                       -345.0212363308472732
  Basis Set: CC-PVTZ
  Basis Set:
  Basis Set: CC-PVTZ
  Basis Set:
  @DF-RHF Final Energy:  -345.02123797922121
    Total Energy =                       -345.0212379792212118
  Basis Set: CC-PVTZ
  Basis Set:
  Charge       = 0
  Multiplicity = 1
  Basis Set: CC-PVTZ
  Basis Set:

    Orbital Energies (a.u.)
    -----------------------

    Doubly Occupied:

       1A    -20.595545     2A    -20.527490     3A    -11.366471
       4A    -11.293578     5A    -11.244185     6A    -11.224205
       7A    -11.216942     8A     -1.466357     9A     -1.367471
      10A     -1.084002    11A     -0.990907    12A     -0.970227
      13A     -0.839913    14A     -0.767788    15A     -0.706380
      16A     -0.692549    17A     -0.675703    18A     -0.641701
      19A     -0.603368    20A     -0.578826    21A     -0.574577
      22A     -0.541460    23A     -0.538245    24A     -0.497963
      25A     -0.491903    26A     -0.484800    27A     -0.450663
      28A     -0.434414

  @DF-RHF Final Energy:  -345.02123805757788

   => Energetics <=

    Nuclear Repulsion Energy =            314.6761957839645447
    One-Electron Energy =               -1093.6596030958921801
    Two-Electron Energy =                 433.9621692543498739
    DFT Exchange-Correlation Energy =       0.0000000000000000
    Empirical Dispersion Energy =           0.0000000000000000
    PCM Polarization Energy =               0.0000000000000000
    EFP Energy =                            0.0000000000000000
    Total Energy =                       -345.0212380575777615
    Molecular point group: c1
  Basis Set: CC-PVTZ
  Basis Set:

  -Total Gradient:
     Atom            X                  Y                   Z
    ------   -----------------  -----------------  -----------------
       1        0.000000950146     0.000008391978     0.000009464115
       2        0.000029352497    -0.000017459408    -0.000037428440
       3        0.000011126996     0.000000955799     0.000031241416
       4       -0.000040675188    -0.000029691873    -0.000008797413
       5       -0.000003774409     0.000005356819    -0.000006642345
       6        0.000011930410    -0.000005028205    -0.000008108393
       7       -0.000016947681     0.000004880681    -0.000003221627
       8        0.000000030057    -0.000001005331     0.000001652907
       9        0.000000205299    -0.000001108861     0.000001560460
      10       -0.000000993591     0.000000154082     0.000001272465
      11       -0.000000137873    -0.000000779800    -0.000001099670
      12       -0.000003302041     0.000001000122     0.000000292546
      13       -0.000001695693    -0.000000639400     0.000001007147
      14       -0.000001449432     0.000034357652     0.000049264394
      15        0.000024563693    -0.000016100986    -0.000017208741
      16       -0.000006345847    -0.000002426322    -0.000002974182
      17       -0.000002837338     0.000019143052    -0.000010274639

  **** Optimization is complete! (in 10 steps) ****
    Final optimized geometry and variables:
    Molecular point group: c1

    Geometry (in Angstrom), charge = 0, multiplicity = 1:

    O            0.882790988146     1.556029692186    -0.169359715129
    C            0.760169385873     0.388181398852    -0.063211293137
    C           -0.583615907150    -0.298754257731     0.049072956822
    O            1.852838463764    -0.372249779483    -0.039891957890
    C           -1.754359458684     0.674656510716     0.009397696936
    H           -0.667594034610    -1.022714151395    -0.755288076504
    H           -0.600641845269    -0.871795806049     0.970750371511
    C           -3.096874363187    -0.039149815161     0.123900472321
    H           -1.712936596225     1.242847662950    -0.911114934010
    H           -1.646092806638     1.393461499011     0.811581153737
    H           -3.242234059409    -0.743074549951    -0.689206238074
    H           -3.914013213922     0.671203011799     0.093487761337
    H           -3.174556491326    -0.590518715169     1.055425600342
    C            1.820956851147    -1.771167013680     0.082776511802
    H            1.370870840594    -2.082732213295     1.015863607991
    H            2.849924480791    -2.091648308832     0.068890412231
    H            1.299645856719    -2.235155489802    -0.743835219426

  Mulliken Charges: (a.u.)
   Center  Symbol    Alpha    Beta     Spin     Total
       1     O     4.18173  4.18173  0.00000 -0.36347
       2     C     2.80537  2.80537  0.00000  0.38927
       3     C     3.12881  3.12881  0.00000 -0.25762
       4     O     4.12746  4.12746  0.00000 -0.25492
       5     C     3.08019  3.08019  0.00000 -0.16038
       6     H     0.44162  0.44162  0.00000  0.11675
       7     H     0.44160  0.44160  0.00000  0.11679
       8     C     3.15026  3.15026  0.00000 -0.30052
       9     H     0.44353  0.44353  0.00000  0.11295
      10     H     0.44351  0.44351  0.00000  0.11298
      11     H     0.45659  0.45659  0.00000  0.08683
      12     H     0.44405  0.44405  0.00000  0.11190
      13     H     0.45658  0.45658  0.00000  0.08684
      14     C     3.04540  3.04540  0.00000 -0.09081
      15     H     0.46066  0.46066  0.00000  0.07867
      16     H     0.43193  0.43193  0.00000  0.13614
      17     H     0.46070  0.46070  0.00000  0.07860

   Total alpha = 28.00000, Total beta = 28.00000, Total charge = -0.00000

*** Psi4 exiting successfully. Buy a developer a beer!
