  ==> Input File <==

--------------------------------------------------------------------------
set {
	reference rhf
	basis cc-pvtz
}

set_num_threads( 4 )
memory 2 gb

molecule MOL {
0 1

H	 1.759000	 -0.724000	 -0.875000
C	 1.173000	 -0.465000	 0.000000
H	 1.758000	 -0.723000	 0.876000
O	 -0.000000	 -1.235000	 -0.000000
C	 0.770000	 1.020000	 -0.000000
C	 -1.173000	 -0.465000	 -0.000000
H	 1.164000	 1.529000	 -0.872000
H	 1.165000	 1.530000	 0.870000
C	 -0.770000	 1.020000	 0.000000
H	 -1.759000	 -0.723000	 -0.876000
H	 -1.759000	 -0.724000	 0.876000
H	 -1.164000	 1.530000	 0.872000
H	 -1.164000	 1.530000	 -0.871000

	symmetry c1
}
ee = optimize('scf')
oeprop('DIPOLE', 'QUADRUPOLE', 'MULLIKEN_CHARGES')
f=open( 'psi4out.xyz', 'w' )
f.write( "13  " )
f.write( str(ee) + "\n" )
f.write( MOL.save_string_xyz() )
f.close()
--------------------------------------------------------------------------

    Molecular point group: c1
  Charge       = 0
  Multiplicity = 1
  Basis Set: CC-PVTZ
  Basis Set:
  @DF-RHF Final Energy:  -231.05511474578412
    Total Energy =                       -231.0551147457841239
    Molecular point group: c1
  Basis Set: CC-PVTZ
  Basis Set:
  Basis Set: CC-PVTZ
  Basis Set:
  @DF-RHF Final Energy:  -231.05515689590939
    Total Energy =                       -231.0551568959094766
  Basis Set: CC-PVTZ
  Basis Set:
  Basis Set: CC-PVTZ
  Basis Set:
  @DF-RHF Final Energy:  -231.05515872971574
    Total Energy =                       -231.0551587297157994
  Basis Set: CC-PVTZ
  Basis Set:
  Charge       = 0
  Multiplicity = 1
  Basis Set: CC-PVTZ
  Basis Set:

    Orbital Energies (a.u.)
    -----------------------

    Doubly Occupied:

       1A    -20.537885     2A    -11.262632     3A    -11.262605
       4A    -11.220793     5A    -11.220207     6A     -1.376232
       7A     -1.053081     8A     -0.997649     9A     -0.811844
      10A     -0.810651    11A     -0.685525    12A     -0.671498
      13A     -0.591427    14A     -0.588991    15A     -0.582680
      16A     -0.499761    17A     -0.486888    18A     -0.466004
      19A     -0.464666    20A     -0.401107

  @DF-RHF Final Energy:  -231.05515940836474

   => Energetics <=

    Nuclear Repulsion Energy =            190.7289891514724047
    One-Electron Energy =                -691.5840470239386377
    Two-Electron Energy =                 269.7998984641012612
    DFT Exchange-Correlation Energy =       0.0000000000000000
    Empirical Dispersion Energy =           0.0000000000000000
    PCM Polarization Energy =               0.0000000000000000
    EFP Energy =                            0.0000000000000000
    Total Energy =                       -231.0551594083649434
    Molecular point group: c1
  Basis Set: CC-PVTZ
  Basis Set:

  -Total Gradient:
     Atom            X                  Y                   Z
    ------   -----------------  -----------------  -----------------
       1       -0.000001424766     0.000000351836    -0.000008321863
       2       -0.000007133851    -0.000004277606    -0.000008947856
       3        0.000009898603    -0.000012380772    -0.000030980809
       4        0.000000186401     0.000030886097     0.000046118932
       5        0.000043084559     0.000021942022    -0.000033356581
       6       -0.000003115917    -0.000015318012    -0.000011610643
       7        0.000004502831     0.000002321151     0.000056416384
       8       -0.000025000209    -0.000023825387     0.000001365162
       9       -0.000045286249     0.000032677212     0.000026986307
      10       -0.000010690406    -0.000000026788     0.000022302482
      11        0.000011675173    -0.000005859698    -0.000012145581
      12        0.000005029813    -0.000000937646    -0.000056277861
      13        0.000018274018    -0.000025552411     0.000008451928

  **** Optimization is complete! (in 4 steps) ****
    Final optimized geometry and variables:
    Molecular point group: c1

    Geometry (in Angstrom), charge = 0, multiplicity = 1:

    H            1.759961008126    -0.676939807226    -0.871350268251
    C            1.170987224270    -0.420045454222     0.001546951575
    H            1.754921371937    -0.674400709148     0.878593026887
    O           -0.000108994238    -1.188985515708    -0.000930027831
    C            0.769465091315     1.062022557704    -0.001732507195
    C           -1.171069303085    -0.419833824761    -0.000797428912
    H            1.160358796664     1.567386800127    -0.874093602240
    H            1.164523218699     1.572376855125     0.865868382600
    C           -0.769266536971     1.062171461561     0.001909364143
    H           -1.756753767909    -0.673983327182    -0.876709386700
    H           -1.758372973308    -0.676692968520     0.873230425140
    H           -1.160062953973     1.567943497488     0.874070429827
    H           -1.164231736770     1.572257030661    -0.865879033999

  Mulliken Charges: (a.u.)
   Center  Symbol    Alpha    Beta     Spin     Total
       1     H     0.46482  0.46482  0.00000  0.07036
       2     C     2.97061  2.97061  0.00000  0.05878
       3     H     0.46491  0.46491  0.00000  0.07018
       4     O     4.18717  4.18717  0.00000 -0.37434
       5     C     3.11149  3.11149  0.00000 -0.22297
       6     C     2.97061  2.97061  0.00000  0.05878
       7     H     0.44729  0.44729  0.00000  0.10543
       8     H     0.44731  0.44731  0.00000  0.10539
       9     C     3.11149  3.11149  0.00000 -0.22298
      10     H     0.46486  0.46486  0.00000  0.07029
      11     H     0.46487  0.46487  0.00000  0.07026
      12     H     0.44729  0.44729  0.00000  0.10543
      13     H     0.44730  0.44730  0.00000  0.10540

   Total alpha = 20.00000, Total beta = 20.00000, Total charge = -0.00000
