  ==> Input File <==

--------------------------------------------------------------------------
set {
	reference rhf
	basis cc-pvtz
}

set_num_threads( 4 )
memory 2 gb

molecule MOL {
0 1

H	 2.646708	 0.758099	 0.000000
O	 2.258158	 -0.097743	 0.000000
C	 0.911162	 -0.015915	 0.000000
C	 0.346352	 1.248913	 0.000000
C	 0.101394	 -1.136048	 0.000000
H	 0.989917	 2.106423	 0.000000
C	 -1.025339	 1.381346	 0.000000
H	 0.539581	 -2.117701	 0.000000
C	 -1.274300	 -0.987976	 0.000000
H	 -1.457484	 2.364021	 0.000000
C	 -1.847228	 0.266490	 -0.000000
H	 -1.895868	 -1.863179	 0.000000
H	 -2.913798	 0.377502	 -0.000000

	symmetry c1
}
set optking {
	frozen_dihedral = ("
		4 3 2 1
	")
}

ee = optimize('scf')
oeprop('DIPOLE', 'QUADRUPOLE', 'MULLIKEN_CHARGES')
f=open( 'psi4out.xyz', 'w' )
f.write( "13  " )
f.write( str(ee) + "\n" )
f.write( MOL.save_string_xyz() )
f.close()
--------------------------------------------------------------------------

    Molecular point group: c1
  Charge       = 0
  Multiplicity = 1
  Basis Set: CC-PVTZ
  Basis Set:
  @DF-RHF Final Energy:  -305.66856137857860
    Total Energy =                       -305.6685613785786018
    Molecular point group: c1
  Basis Set: CC-PVTZ
  Basis Set:
  Basis Set: CC-PVTZ
  Basis Set:
  @DF-RHF Final Energy:  -305.67037413035411
    Total Energy =                       -305.6703741303541051
  Basis Set: CC-PVTZ
  Basis Set:
  Basis Set: CC-PVTZ
  Basis Set:
  @DF-RHF Final Energy:  -305.67053261696225
    Total Energy =                       -305.6705326169624755
  Basis Set: CC-PVTZ
  Basis Set:
  Basis Set: CC-PVTZ
  Basis Set:
  @DF-RHF Final Energy:  -305.67055448599018
    Total Energy =                       -305.6705544859904649
  Basis Set: CC-PVTZ
  Basis Set:
  Charge       = 0
  Multiplicity = 1
  Basis Set: CC-PVTZ
  Basis Set:

    Orbital Energies (a.u.)
    -----------------------

    Doubly Occupied:

       1A    -20.585128     2A    -11.297748     3A    -11.235258
       4A    -11.233456     5A    -11.226160     6A    -11.220518
       7A    -11.219342     8A     -1.415883     9A     -1.152649
      10A     -1.022831    11A     -1.008395    12A     -0.851580
      13A     -0.826701    14A     -0.741664    15A     -0.688400
      16A     -0.654957    17A     -0.612240    18A     -0.595573
      19A     -0.592264    20A     -0.568811    21A     -0.517573
      22A     -0.492785    23A     -0.485762    24A     -0.343268
      25A     -0.314591

  @DF-RHF Final Energy:  -305.67055871545460

   => Energetics <=

    Nuclear Repulsion Energy =            273.8465651790345419
    One-Electron Energy =                -957.2271748880276618
    Two-Electron Energy =                 377.7100509935386299
    DFT Exchange-Correlation Energy =       0.0000000000000000
    Empirical Dispersion Energy =           0.0000000000000000
    PCM Polarization Energy =               0.0000000000000000
    EFP Energy =                            0.0000000000000000
    Total Energy =                       -305.6705587154544901
    Molecular point group: c1
  Basis Set: CC-PVTZ
  Basis Set:

  -Total Gradient:
     Atom            X                  Y                   Z
    ------   -----------------  -----------------  -----------------
       1        0.000028939664    -0.000014645396    -0.000000000000
       2        0.000009509436     0.000037227082    -0.000000000000
       3       -0.000007930616    -0.000088084237     0.000000000001
       4        0.000015713060     0.000040629275    -0.000000000000
       5       -0.000012716364    -0.000035038554    -0.000000000000
       6       -0.000032538790    -0.000012933025    -0.000000000000
       7        0.000048400881     0.000025200346     0.000000000000
       8        0.000054241524     0.000030523056    -0.000000000000
       9       -0.000093160749     0.000081363137    -0.000000000000
      10       -0.000041520067     0.000001840952    -0.000000000000
      11        0.000007940949    -0.000123276579    -0.000000000000
      12        0.000014720910    -0.000001430994     0.000000000000
      13        0.000008400167     0.000058624936    -0.000000000000

  **** Optimization is complete! (in 5 steps) ****
    Final optimized geometry and variables:
    Molecular point group: c1

    Geometry (in Angstrom), charge = 0, multiplicity = 1:

    H            2.694694759975     0.563427684423    -0.000000000006
    O            2.244910605669    -0.261945801355    -0.000000000002
    C            0.907704463597    -0.082480742069     0.000000000002
    C            0.329198330800     1.173172595295     0.000000000002
    C            0.109334846227    -1.214192055237     0.000000000001
    H            0.948620644762     2.051787201684    -0.000000000000
    C           -1.048911337441     1.293431055417     0.000000000001
    H            0.575288367085    -2.179822554756     0.000000000001
    C           -1.262390239730    -1.079260522829    -0.000000000001
    H           -1.490126246373     2.272074392055    -0.000000000001
    C           -1.853460371556     0.172997034333    -0.000000000001
    H           -1.875795444458    -1.960258274098    -0.000000000003
    H           -2.921356407033     0.270619364104    -0.000000000003

  Mulliken Charges: (a.u.)
   Center  Symbol    Alpha    Beta     Spin     Total
       1     H     0.38744  0.38744  0.00000  0.22512
       2     O     4.17470  4.17470  0.00000 -0.34941
       3     C     2.84882  2.84882  0.00000  0.30236
       4     C     3.13455  3.13455  0.00000 -0.26909
       5     C     3.11115  3.11115  0.00000 -0.22231
       6     H     0.43515  0.43515  0.00000  0.12970
       7     C     3.06464  3.06464  0.00000 -0.12927
       8     H     0.41956  0.41956  0.00000  0.16087
       9     C     3.05640  3.05640  0.00000 -0.11279
      10     H     0.42239  0.42239  0.00000  0.15522
      11     C     3.09883  3.09883  0.00000 -0.19765
      12     H     0.42243  0.42243  0.00000  0.15514
      13     H     0.42394  0.42394  0.00000  0.15211

   Total alpha = 25.00000, Total beta = 25.00000, Total charge =  0.00000
