  ==> Input File <==

--------------------------------------------------------------------------
set {
	reference rhf
	basis 6-31G*
}

set_num_threads( 1 )
memory 2 gb

molecule MOL {
0 1

O	 -1.034368	 -1.123335	 2.064358
C	 -1.721325	 -1.159522	 1.094102
C	 -2.958981	 -2.010849	 0.972781
O	 -1.481751	 -0.454642	 0.000584
H	 -3.649272	 -1.735576	 1.761188
H	 -3.435274	 -1.894629	 0.010453
H	 -2.684275	 -3.047787	 1.125024
C	 -0.334255	 0.388708	 0.000906
C	 0.891947	 -0.504646	 0.000751
H	 -0.365390	 1.025305	 -0.873475
H	 -0.365484	 1.024911	 0.875569
C	 2.191998	 0.301789	 0.000897
H	 0.855148	 -1.151283	 -0.871571
H	 0.855132	 -1.151660	 0.872805
C	 3.441114	 -0.581407	 0.000108
H	 2.215074	 0.954890	 -0.869742
H	 2.215465	 0.953923	 0.872248
C	 4.739576	 0.224112	 -0.001102
H	 3.419457	 -1.233487	 -0.870178
H	 3.420834	 -1.233096	 0.870717
H	 4.804918	 0.861552	 -0.878265
H	 5.606527	 -0.429058	 -0.001824
H	 4.806469	 0.861674	 0.875853

	symmetry c1
}
set optking {
	frozen_dihedral = ("
		13 9 8 10,
		16 12 9 13,
		19 15 12 16,
		1 2 4 8
	")
}

ee = energy('scf')
oeprop('DIPOLE', 'QUADRUPOLE', 'MULLIKEN_CHARGES')
f=open( 'psi4out.xyz', 'w' )
f.write( "23  " )
f.write( str(ee) + "\n" )
f.write( MOL.save_string_xyz() )
f.close()
--------------------------------------------------------------------------

    Molecular point group: c1

    Geometry (in Angstrom), charge = 0, multiplicity = 1:

       Center              X                  Y                   Z               Mass
    ------------   -----------------  -----------------  -----------------  -----------------
           O         -1.438625163758    -0.573108094086     1.597242996465    15.994914619560
           C         -2.125582163758    -0.609295094086     0.626986996465    12.000000000000
           C         -3.363238163758    -1.460622094086     0.505665996465    12.000000000000
           O         -1.886008163758     0.095584905914    -0.466531003535    15.994914619560
           H         -4.053529163758    -1.185349094086     1.294072996465     1.007825032070
           H         -3.839531163758    -1.344402094086    -0.456662003535     1.007825032070
           H         -3.088532163758    -2.497560094086     0.657908996465     1.007825032070
           C         -0.738512163758     0.938934905914    -0.466209003535    12.000000000000
           C          0.487689836242     0.045580905914    -0.466364003535    12.000000000000
           H         -0.769647163758     1.575531905914    -1.340590003535     1.007825032070
           H         -0.769741163758     1.575137905914     0.408453996465     1.007825032070
           C          1.787740836242     0.852015905914    -0.466218003535    12.000000000000
           H          0.450890836242    -0.601056094086    -1.338686003535     1.007825032070
           H          0.450874836242    -0.601433094086     0.405689996465     1.007825032070
           C          3.036856836242    -0.031180094086    -0.467007003535    12.000000000000
           H          1.810816836242     1.505116905914    -1.336857003535     1.007825032070
           H          1.811207836242     1.504149905914     0.405132996465     1.007825032070
           C          4.335318836242     0.774338905914    -0.468217003535    12.000000000000
           H          3.015199836242    -0.683260094086    -1.337293003535     1.007825032070
           H          3.016576836242    -0.682869094086     0.403601996465     1.007825032070
           H          4.400660836242     1.411778905914    -1.345380003535     1.007825032070
           H          5.202269836242     0.121168905914    -0.468939003535     1.007825032070
           H          4.402211836242     1.411900905914     0.408737996465     1.007825032070

  Charge       = 0
  Multiplicity = 1
  Basis Set: 6-31G*
  Basis Set:

    Orbital Energies (a.u.)
    -----------------------

    Doubly Occupied:

       1A    -20.603455     2A    -20.541603     3A    -11.376809
       4A    -11.282307     5A    -11.233594     6A    -11.217207
       7A    -11.215984     8A    -11.211994     9A    -11.208702
      10A     -1.470459    11A     -1.362902    12A     -1.087771
      13A     -1.040147    14A     -1.000179    15A     -0.929515
      16A     -0.849616    17A     -0.796186    18A     -0.764163
      19A     -0.702400    20A     -0.681018    21A     -0.656553
      22A     -0.644895    23A     -0.602671    24A     -0.589680
      25A     -0.582344    26A     -0.570820    27A     -0.552660
      28A     -0.535037    29A     -0.520023    30A     -0.517908
      31A     -0.483669    32A     -0.474153    33A     -0.470225
      34A     -0.464966    35A     -0.435270    36A     -0.432274

  @DF-RHF Final Energy:  -422.97398079708745

   => Energetics <=

    Nuclear Repulsion Energy =            462.5173052529709707
    One-Electron Energy =               -1492.7640576991152557
    Two-Electron Energy =                 607.2727716490554712
    DFT Exchange-Correlation Energy =       0.0000000000000000
    Empirical Dispersion Energy =           0.0000000000000000
    PCM Polarization Energy =               0.0000000000000000
    EFP Energy =                            0.0000000000000000
    Total Energy =                       -422.9739807970887568

  Mulliken Charges: (a.u.)
   Center  Symbol    Alpha    Beta     Spin     Total
       1     O     4.28505  4.28505  0.00000 -0.57010
       2     C     2.61520  2.61520  0.00000  0.76959
       3     C     3.28776  3.28776  0.00000 -0.57551
       4     O     4.31101  4.31101  0.00000 -0.62202
       5     H     0.39715  0.39715  0.00000  0.20570
       6     H     0.39895  0.39895  0.00000  0.20211
       7     H     0.39780  0.39780  0.00000  0.20440
       8     C     3.00198  3.00198  0.00000 -0.00397
       9     C     3.17843  3.17843  0.00000 -0.35686
      10     H     0.40780  0.40780  0.00000  0.18441
      11     H     0.40762  0.40762  0.00000  0.18476
      12     C     3.15960  3.15960  0.00000 -0.31920
      13     H     0.41914  0.41914  0.00000  0.16173
      14     H     0.39119  0.39119  0.00000  0.21763
      15     C     3.15126  3.15126  0.00000 -0.30252
      16     H     0.42575  0.42575  0.00000  0.14850
      17     H     0.42020  0.42020  0.00000  0.15960
      18     C     3.23966  3.23966  0.00000 -0.47932
      19     H     0.42291  0.42291  0.00000  0.15417
      20     H     0.41948  0.41948  0.00000  0.16104
      21     H     0.42228  0.42228  0.00000  0.15543
      22     H     0.41880  0.41880  0.00000  0.16241
      23     H     0.42098  0.42098  0.00000  0.15804

   Total alpha = 36.00000, Total beta = 36.00000, Total charge =  0.00000
