                              Psi4 1.0.54 Driver

  ==> Input File <==

--------------------------------------------------------------------------
set {
	reference rhf
	basis cc-pvtz
}

set_num_threads( 4 )
memory 2 gb

molecule MOL {
0 1

H	 3.465510	 -1.186968	 -0.562399
O	 2.824271	 -1.154299	 0.131461
C	 2.076458	 -0.067370	 -0.038225
C	 0.626018	 -0.337582	 0.258241
O	 2.538288	 0.965419	 -0.381593
C	 -0.267326	 0.883135	 0.076490
H	 0.325620	 -1.161483	 -0.378003
H	 0.574537	 -0.713685	 1.275261
C	 -1.726822	 0.642622	 0.463839
H	 -0.210803	 1.217591	 -0.953497
H	 0.129920	 1.693110	 0.675679
C	 -2.480891	 -0.340606	 -0.429852
H	 -2.243098	 1.597649	 0.438609
H	 -1.776542	 0.301208	 1.495542
C	 -3.955933	 -0.460128	 -0.060472
H	 -2.393755	 -0.020485	 -1.464726
H	 -2.024244	 -1.323637	 -0.374360
H	 -4.467673	 -1.160944	 -0.709827
H	 -4.458917	 0.497287	 -0.144505
H	 -4.076458	 -0.806900	 0.960497

	symmetry c1
}
set optking {
	frozen_dihedral = ("
		1 2 3 5
	")
}

ee,wfn = optimize('scf', return_wfn=True)
oeprop( wfn, 'DIPOLE', 'QUADRUPOLE', 'MULLIKEN_CHARGES')
f=open( 'psi4out.xyz', 'w' )
f.write( "20  " )
f.write( str(ee) + "\n" )
f.write( MOL.save_string_xyz() )
f.close()
--------------------------------------------------------------------------

    Molecular point group: c1
  Charge       = 0
  Multiplicity = 1
  Basis Set: CC-PVTZ
  Basis Set:
  @DF-RHF Final Energy:  -384.08672558746849
    Total Energy =                       -384.0867255874685497
    Molecular point group: c1
  Basis Set: CC-PVTZ
  Basis Set:
  Basis Set: CC-PVTZ
  Basis Set:
  @DF-RHF Final Energy:  -384.08380872656585
    Total Energy =                       -384.0838087265657919
  Basis Set: CC-PVTZ
  Basis Set:
  Basis Set: CC-PVTZ
  Basis Set:
  @DF-RHF Final Energy:  -384.08740549503540
    Total Energy =                       -384.0874054950350001
  Basis Set: CC-PVTZ
  Basis Set:
  Basis Set: CC-PVTZ
  Basis Set:
  @DF-RHF Final Energy:  -384.08748289420191
    Total Energy =                       -384.0874828942018553
  Basis Set: CC-PVTZ
  Basis Set:
  Basis Set: CC-PVTZ
  Basis Set:
  @DF-RHF Final Energy:  -384.08749577413136
    Total Energy =                       -384.0874957741317530
  Basis Set: CC-PVTZ
  Basis Set:
  Basis Set: CC-PVTZ
  Basis Set:
  @DF-RHF Final Energy:  -384.08749909800429
    Total Energy =                       -384.0874990980046277
  Basis Set: CC-PVTZ
  Basis Set:
  Basis Set: CC-PVTZ
  Basis Set:
  @DF-RHF Final Energy:  -384.08749898228808
    Total Energy =                       -384.0874989822882526
  Basis Set: CC-PVTZ
  Basis Set:
  Charge       = 0
  Multiplicity = 1
  Basis Set: CC-PVTZ
  Basis Set:

    Orbital Energies (a.u.)
    -----------------------

    Doubly Occupied:

       1A    -20.597292     2A    -20.544014     3A    -11.373661
       4A    -11.238329     5A    -11.220910     6A    -11.219037
       7A    -11.218355     8A    -11.210832     9A     -1.471031
      10A     -1.370006    11A     -1.097371    12A     -1.041825
      13A     -0.961618    14A     -0.869189    15A     -0.818059
      16A     -0.778727    17A     -0.706181    18A     -0.689301
      19A     -0.665993    20A     -0.632942    21A     -0.615833
      22A     -0.590957    23A     -0.564564    24A     -0.553946
      25A     -0.546705    26A     -0.511750    27A     -0.498425
      28A     -0.486541    29A     -0.470886    30A     -0.468384
      31A     -0.458592    32A     -0.445897

  @DF-RHF Final Energy:  -384.08749937034457

   => Energetics <=

    Nuclear Repulsion Energy =            376.2651511179970498
    One-Electron Energy =               -1268.8309935219008366
    Two-Electron Energy =                 508.4783430335596677
    DFT Exchange-Correlation Energy =       0.0000000000000000
    Empirical Dispersion Energy =           0.0000000000000000
    PCM Polarization Energy =               0.0000000000000000
    EFP Energy =                            0.0000000000000000
    Total Energy =                       -384.0874993703441760
    Molecular point group: c1
  Basis Set: CC-PVTZ
  Basis Set:

  -Total Gradient:
     Atom            X                  Y                   Z
    ------   -----------------  -----------------  -----------------
       1       -0.006176836553    -0.006505839049    -0.006062927881
       2        0.007919795591     0.009487106718     0.011959414137
       3       -0.002111731969    -0.006444060972    -0.015241751228
       4       -0.000002566112     0.000114204760     0.000164294506
       5        0.000353792909     0.003359085358     0.009234071500
       6       -0.000002296217    -0.000020178513    -0.000023073274
       7        0.000008556019    -0.000016898973    -0.000021811851
       8        0.000000150175     0.000015698248    -0.000024816257
       9       -0.000002257452     0.000004136748    -0.000002136353
      10        0.000003877066    -0.000000488030    -0.000000090385
      11        0.000007377436     0.000014731645     0.000009819811
      12        0.000005596035    -0.000012999219     0.000010641816
      13       -0.000000878877     0.000001985974     0.000003073392
      14        0.000000331525    -0.000004167978    -0.000003020813
      15       -0.000004162494     0.000006991980    -0.000005075421
      16        0.000002711344    -0.000000294138     0.000005742019
      17        0.000000635709    -0.000001541344     0.000000108327
      18       -0.000001786905     0.000002352141    -0.000002696901
      19       -0.000003296818     0.000001833829     0.000002722942
      20        0.000002989591    -0.000001659184    -0.000002488084

  **** Optimization is complete! (in 8 steps) ****
    Final optimized geometry and variables:
    Molecular point group: c1

    Geometry (in Angstrom), charge = 0, multiplicity = 1:

    H            3.557590569898    -1.203072811378    -0.356672904953
    O            2.852414096192    -1.115223839811     0.264851456464
    C            2.076130323755    -0.071836136199    -0.067013634879
    C            0.627246530276    -0.337587508958     0.238983670374
    O            2.522210033150     0.943757515573    -0.467153842648
    C           -0.267507749896     0.883583003977     0.070318912618
    H            0.321854786578    -1.157679762128    -0.401428529967
    H            0.583078587554    -0.724228047191     1.252192363705
    C           -1.724563259306     0.641333689486     0.466052946245
    H           -0.217454061366     1.224816942046    -0.957663425457
    H            0.133654552750     1.689992566308     0.672312124804
    C           -2.485175694281    -0.335294435546    -0.429449190166
    H           -2.240525575812     1.596750666024     0.450944770527
    H           -1.767562015734     0.292778727153     1.495629751000
    C           -3.956696785524    -0.460794088129    -0.047864733662
    H           -2.407914348370    -0.006030802655    -1.462293707948
    H           -2.026370718623    -1.318007796548    -0.386560910250
    H           -4.472562002130    -1.158663115207    -0.697158007993
    H           -4.462689888922     0.495903573077    -0.121303933155
    H           -4.067409903950    -0.814360099403     0.971877619385

  Mulliken Charges: (a.u.)
   Center  Symbol    Alpha    Beta     Spin     Total
       1     H     0.38077  0.38077  0.00000  0.23847
       2     O     4.16950  4.16950  0.00000 -0.33901
       3     C     2.80385  2.80385  0.00000  0.39229
       4     C     3.11115  3.11115  0.00000 -0.22230
       5     O     4.18011  4.18011  0.00000 -0.36022
       6     C     3.09380  3.09380  0.00000 -0.18761
       7     H     0.44137  0.44137  0.00000  0.11727
       8     H     0.43690  0.43690  0.00000  0.12621
       9     C     3.09875  3.09875  0.00000 -0.19750
      10     H     0.44537  0.44537  0.00000  0.10925
      11     H     0.43956  0.43956  0.00000  0.12087
      12     C     3.08678  3.08678  0.00000 -0.17356
      13     H     0.44562  0.44562  0.00000  0.10877
      14     H     0.45367  0.45367  0.00000  0.09266
      15     C     3.14952  3.14952  0.00000 -0.29904
      16     H     0.45270  0.45270  0.00000  0.09461
      17     H     0.45452  0.45452  0.00000  0.09097
      18     H     0.44784  0.44784  0.00000  0.10432
      19     H     0.45355  0.45355  0.00000  0.09291
      20     H     0.45468  0.45468  0.00000  0.09064

   Total alpha = 32.00000, Total beta = 32.00000, Total charge = -0.00000

*** Psi4 exiting successfully. Buy a developer a beer!
