                              Psi4 1.0.54 Driver

  ==> Input File <==

--------------------------------------------------------------------------
set {
	reference rhf
	basis cc-pvtz
}

set_num_threads( 4 )
memory 2 gb

molecule MOL {
0 1

H	 -0.000105	 1.988529	 0.748933
O	 -0.000098	 1.879786	 -0.188206
C	 -0.000014	 0.545691	 -0.532416
C	 -1.039338	 0.281613	 -1.623217
C	 -0.159618	 -0.322147	 0.717047
H	 0.965876	 0.312201	 -0.955737
F	 -0.754626	 1.006010	 -2.677279
F	 -1.064541	 -0.973859	 -1.993174
F	 -2.247820	 0.615615	 -1.223981
F	 0.830892	 -0.082154	 1.540546
F	 -0.150271	 -1.601342	 0.439043
F	 -1.280200	 -0.048455	 1.350108

	symmetry c1
}
set optking {
	frozen_dihedral = ("
		6 3 2 1
	")
}

ee,wfn = optimize('scf', return_wfn=True)
oeprop( wfn, 'DIPOLE', 'QUADRUPOLE', 'MULLIKEN_CHARGES')
f=open( 'psi4out.xyz', 'w' )
f.write( "12  " )
f.write( str(ee) + "\n" )
f.write( MOL.save_string_xyz() )
f.close()
--------------------------------------------------------------------------

    Molecular point group: c1
  Charge       = 0
  Multiplicity = 1
  Basis Set: CC-PVTZ
  Basis Set:
  @DF-RHF Final Energy:  -786.58416536586833
    Total Energy =                       -786.5841653658687846
    Molecular point group: c1
  Basis Set: CC-PVTZ
  Basis Set:
  Basis Set: CC-PVTZ
  Basis Set:
  @DF-RHF Final Energy:  -786.58528360973821
    Total Energy =                       -786.5852836097376439
  Basis Set: CC-PVTZ
  Basis Set:
  Basis Set: CC-PVTZ
  Basis Set:
  @DF-RHF Final Energy:  -786.58553331679775
    Total Energy =                       -786.5855333167980916
  Basis Set: CC-PVTZ
  Basis Set:
  Basis Set: CC-PVTZ
  Basis Set:
  @DF-RHF Final Energy:  -786.58557563936267
    Total Energy =                       -786.5855756393627871
  Basis Set: CC-PVTZ
  Basis Set:
  Basis Set: CC-PVTZ
  Basis Set:
  @DF-RHF Final Energy:  -786.58559013656463
    Total Energy =                       -786.5855901365646332
  Basis Set: CC-PVTZ
  Basis Set:
  Basis Set: CC-PVTZ
  Basis Set:
  @DF-RHF Final Energy:  -786.58559292646623
    Total Energy =                       -786.5855929264657789
  Basis Set: CC-PVTZ
  Basis Set:
  Charge       = 0
  Multiplicity = 1
  Basis Set: CC-PVTZ
  Basis Set:

    Orbital Energies (a.u.)
    -----------------------

    Doubly Occupied:

       1A    -26.364746     2A    -26.363424     3A    -26.362353
       4A    -26.351354     5A    -26.348676     6A    -26.347742
       7A    -20.607387     8A    -11.527368     9A    -11.514358
      10A    -11.351861    11A     -1.776918    12A     -1.762020
      13A     -1.672363    14A     -1.669699    15A     -1.657445
      16A     -1.655734    17A     -1.436837    18A     -1.105285
      19A     -1.003194    20A     -0.943944    21A     -0.876460
      22A     -0.869049    23A     -0.863553    24A     -0.849354
      25A     -0.838882    26A     -0.803615    27A     -0.754091
      28A     -0.740864    29A     -0.726353    30A     -0.724636
      31A     -0.710879    32A     -0.696211    33A     -0.692051
      34A     -0.676811    35A     -0.674896    36A     -0.671667
      37A     -0.659359    38A     -0.655699    39A     -0.621056
      40A     -0.550229    41A     -0.507242

  @DF-RHF Final Energy:  -786.58559355584771

   => Energetics <=

    Nuclear Repulsion Energy =            671.1108659901990450
    One-Electron Energy =               -2429.4215894667222528
    Two-Electron Energy =                 971.7251299206754993
    DFT Exchange-Correlation Energy =       0.0000000000000000
    Empirical Dispersion Energy =           0.0000000000000000
    PCM Polarization Energy =               0.0000000000000000
    EFP Energy =                            0.0000000000000000
    Total Energy =                       -786.5855935558477086
    Molecular point group: c1
  Basis Set: CC-PVTZ
  Basis Set:

  -Total Gradient:
     Atom            X                  Y                   Z
    ------   -----------------  -----------------  -----------------
       1       -0.000745999355    -0.000049659550     0.000037512522
       2        0.000882080774     0.000036605183    -0.000258394289
       3        0.000129517887    -0.000038636030     0.000773866745
       4       -0.000053141659     0.000105124270     0.000023041225
       5       -0.000067105297    -0.000050537187    -0.000050937847
       6       -0.000263402892     0.000088161223    -0.000573848360
       7        0.000005656397     0.000047781962    -0.000042782409
       8       -0.000000723401    -0.000118649845     0.000010012840
       9        0.000041795377    -0.000021497784    -0.000011924892
      10        0.000055707711     0.000045759731     0.000089889548
      11       -0.000022005391    -0.000031013692    -0.000004892789
      12        0.000037619857    -0.000013438285     0.000008457716

  **** Optimization is complete! (in 7 steps) ****
    Final optimized geometry and variables:
    Molecular point group: c1

    Geometry (in Angstrom), charge = 0, multiplicity = 1:

    H            0.553300882109     2.031124702683     0.969447514004
    O            0.553326006895     1.802676033328     0.057005403907
    C            0.607866594953     0.437372313856    -0.147632254876
    C           -0.433663100034     0.088474764081    -1.210860235632
    C            0.444368613390    -0.342364466039     1.155387289047
    H            1.568736028126     0.148467316659    -0.557127936428
    F           -0.163403911272     0.749877963468    -2.309549842189
    F           -0.403922158671    -1.193313255076    -1.496806733707
    F           -1.650189713235     0.395355103130    -0.841749081302
    F            1.343410012512     0.090745501871     2.018694229884
    F            0.637727498437    -1.622413243939     0.983007669951
    F           -0.732751040210    -0.169456336126     1.704825501792

  Mulliken Charges: (a.u.)
   Center  Symbol    Alpha    Beta     Spin     Total
       1     H     0.38223  0.38223  0.00000  0.23554
       2     O     4.18947  4.18947  0.00000 -0.37894
       3     C     2.99475  2.99475  0.00000  0.01050
       4     C     2.67948  2.67948  0.00000  0.64105
       5     C     2.68728  2.68728  0.00000  0.62544
       6     H     0.44058  0.44058  0.00000  0.11883
       7     F     4.60271  4.60271  0.00000 -0.20542
       8     F     4.60654  4.60654  0.00000 -0.21307
       9     F     4.60345  4.60345  0.00000 -0.20689
      10     F     4.61099  4.61099  0.00000 -0.22199
      11     F     4.59888  4.59888  0.00000 -0.19777
      12     F     4.60364  4.60364  0.00000 -0.20727

   Total alpha = 41.00000, Total beta = 41.00000, Total charge =  0.00000

*** Psi4 exiting successfully. Buy a developer a beer!
