  ==> Input File <==

--------------------------------------------------------------------------
set {
	reference rhf
	basis cc-pvtz
}

set_num_threads( 4 )
memory 2 gb

molecule MOL {
0 1

H	 2.621316	 1.615522	 -2.121207
O	 1.693324	 1.511649	 -2.228285
C	 1.124290	 1.013147	 -1.113312
C	 1.860761	 0.708952	 0.021481
C	 -0.240016	 0.806879	 -1.125309
H	 2.923471	 0.870259	 0.029095
C	 1.232418	 0.199983	 1.140004
H	 -0.811588	 1.040818	 -2.000192
C	 -0.861704	 0.296439	 0.000000
H	 1.812426	 -0.031669	 2.012215
C	 -0.131988	 -0.009303	 1.136160
C	 -2.330689	 0.069587	 0.000000
H	 -0.623362	 -0.404956	 2.004432
O	 -2.848621	 -0.993976	 0.000000
H	 -2.934306	 0.982410	 0.000000

	symmetry c1
}
set optking {
	frozen_dihedral = ("
		11 9 12 14
	")
}

ee = optimize('scf')
oeprop('DIPOLE', 'QUADRUPOLE', 'MULLIKEN_CHARGES')
f=open( 'psi4out.xyz', 'w' )
f.write( "15  " )
f.write( str(ee) + "\n" )
f.write( MOL.save_string_xyz() )
f.close()
--------------------------------------------------------------------------

    Molecular point group: c1
  Charge       = 0
  Multiplicity = 1
  Basis Set: CC-PVTZ
  Basis Set:
  @DF-RHF Final Energy:  -418.42840974016076
    Total Energy =                       -418.4284097401609870
    Molecular point group: c1
  Basis Set: CC-PVTZ
  Basis Set:
  Basis Set: CC-PVTZ
  Basis Set:
  @DF-RHF Final Energy:  -418.42843212716264
    Total Energy =                       -418.4284321271625231
  Basis Set: CC-PVTZ
  Basis Set:
  Basis Set: CC-PVTZ
  Basis Set:
  @DF-RHF Final Energy:  -418.42890460321149
    Total Energy =                       -418.4289046032115493
  Basis Set: CC-PVTZ
  Basis Set:
  Basis Set: CC-PVTZ
  Basis Set:
  @DF-RHF Final Energy:  -418.42898599551120
    Total Energy =                       -418.4289859955108568
  Basis Set: CC-PVTZ
  Basis Set:
  Charge       = 0
  Multiplicity = 1
  Basis Set: CC-PVTZ
  Basis Set:

    Orbital Energies (a.u.)
    -----------------------

    Doubly Occupied:

       1A    -20.597333     2A    -20.562798     3A    -11.332404
       4A    -11.312955     5A    -11.255841     6A    -11.249318
       7A    -11.240174     8A    -11.238636     9A    -11.236111
      10A     -1.429144    11A     -1.417297    12A     -1.172595
      13A     -1.052029    14A     -1.027105    15A     -0.902400
      16A     -0.846290    17A     -0.820640    18A     -0.742923
      19A     -0.703455    20A     -0.675627    21A     -0.674089
      22A     -0.641259    23A     -0.616390    24A     -0.608412
      25A     -0.587370    26A     -0.545345    27A     -0.537591
      28A     -0.516339    29A     -0.497408    30A     -0.426945
      31A     -0.358011    32A     -0.328843

  @DF-RHF Final Energy:  -418.42898672661676

   => Energetics <=

    Nuclear Repulsion Energy =            402.7385896156395688
    One-Electron Energy =               -1368.0290039919741503
    Two-Electron Energy =                 546.8614276497173705
    DFT Exchange-Correlation Energy =       0.0000000000000000
    Empirical Dispersion Energy =           0.0000000000000000
    PCM Polarization Energy =               0.0000000000000000
    EFP Energy =                            0.0000000000000000
    Total Energy =                       -418.4289867266172678
    Molecular point group: c1
  Basis Set: CC-PVTZ
  Basis Set:

  -Total Gradient:
     Atom            X                  Y                   Z
    ------   -----------------  -----------------  -----------------
       1       -0.000009937819    -0.000004171299     0.000011354745
       2        0.000021029272    -0.000057491539    -0.000020448377
       3       -0.000195885264     0.000177305854    -0.000010371594
       4        0.000022888219    -0.000171111909     0.000140558961
       5        0.000135244266     0.000016715144    -0.000094291355
       6        0.000000272722     0.000002271484    -0.000006833278
       7        0.000146575048     0.000111323990    -0.000064715678
       8       -0.000012751640    -0.000005927311     0.000016139235
       9        0.000707306486    -0.005517465875    -0.003802130591
      10       -0.000002306635    -0.000008353446     0.000005140994
      11       -0.000613596574     0.003693490374     0.001136489850
      12       -0.000241390153     0.001982202288     0.007463404602
      13        0.000010171606    -0.000003371235     0.000002439370
      14        0.000011240040    -0.000189758616    -0.004790984329
      15        0.000021140422    -0.000025657902     0.000014247445

  **** Optimization is complete! (in 5 steps) ****
    Final optimized geometry and variables:
    Molecular point group: c1

    Geometry (in Angstrom), charge = 0, multiplicity = 1:

    H            2.674529125854     1.210012044264    -1.848778680719
    O            1.744711544985     1.110024428833    -1.945641977833
    C            1.190984695411     0.607721810938    -0.825855924512
    C            1.933715886484     0.311089151877     0.302939947294
    C           -0.176498974546     0.397951465649    -0.829485012301
    H            2.994591115635     0.482658226315     0.309618357845
    C            1.304889856289    -0.200718286703     1.421305594390
    H           -0.737865862631     0.648907783623    -1.709068919663
    C           -0.787715045946    -0.142300771167     0.284278122677
    H            1.885562506550    -0.421724909424     2.296235001205
    C           -0.055511836850    -0.431456662192     1.423469287107
    C           -2.274387374024    -0.326468508541     0.279462252388
    H           -0.539369502971    -0.841217773399     2.287937785636
    O           -2.811927157492    -1.377462298115     0.305579575705
    H           -2.859893728486     0.596087356435     0.211236609643

  Mulliken Charges: (a.u.)
   Center  Symbol    Alpha    Beta     Spin     Total
       1     H     0.38616  0.38616  0.00000  0.22769
       2     O     4.17169  4.17169  0.00000 -0.34338
       3     C     2.83601  2.83601  0.00000  0.32799
       4     C     3.13990  3.13990  0.00000 -0.27980
       5     C     3.13618  3.13618  0.00000 -0.27236
       6     H     0.43247  0.43247  0.00000  0.13506
       7     C     3.05292  3.05292  0.00000 -0.10583
       8     H     0.41947  0.41947  0.00000  0.16106
       9     C     2.92234  2.92234  0.00000  0.15532
      10     H     0.41958  0.41958  0.00000  0.16083
      11     C     3.12067  3.12067  0.00000 -0.24135
      12     C     2.92806  2.92806  0.00000  0.14388
      13     H     0.41913  0.41913  0.00000  0.16174
      14     O     4.15745  4.15745  0.00000 -0.31490
      15     H     0.45797  0.45797  0.00000  0.08407

   Total alpha = 32.00000, Total beta = 32.00000, Total charge = -0.00000
