                              Psi4 1.0.54 Driver

  ==> Input File <==

--------------------------------------------------------------------------
set {
	reference rhf
	basis cc-pvtz
}

set_num_threads( 4 )
memory 2 gb

molecule MOL {
0 1

H	 3.273419	 0.176595	 -0.102789
N	 2.433987	 -0.362316	 -0.080024
C	 1.263552	 0.494993	 0.021953
H	 2.497638	 -0.973615	 0.707122
C	 -0.016533	 -0.325589	 -0.026925
H	 1.280915	 1.180773	 -0.818522
H	 1.263064	 1.106893	 0.925038
C	 -1.280353	 0.525521	 0.047747
H	 -0.016686	 -0.912532	 -0.939714
H	 -0.014099	 -1.037598	 0.796369
C	 -1.848793	 0.627052	 1.459327
H	 -2.034544	 0.106756	 -0.613159
H	 -1.068521	 1.523531	 -0.326391
H	 -2.102642	 -0.352700	 1.849680
H	 -2.746743	 1.233896	 1.478742
H	 -1.131552	 1.075975	 2.138454

	symmetry c1
}
set optking {
	frozen_dihedral = ("
		12 8 5 9
	")
}

ee,wfn = optimize('scf', return_wfn=True)
oeprop( wfn, 'DIPOLE', 'QUADRUPOLE', 'MULLIKEN_CHARGES')
f=open( 'psi4out.xyz', 'w' )
f.write( "16  " )
f.write( str(ee) + "\n" )
f.write( MOL.save_string_xyz() )
f.close()
--------------------------------------------------------------------------

    Molecular point group: c1
  Charge       = 0
  Multiplicity = 1
  Basis Set: CC-PVTZ
  Basis Set:
  @DF-RHF Final Energy:  -212.39630205583887
    Total Energy =                       -212.3963020558389303
    Molecular point group: c1
  Basis Set: CC-PVTZ
  Basis Set:
  Basis Set: CC-PVTZ
  Basis Set:
  @DF-RHF Final Energy:  -212.39657692573161
    Total Energy =                       -212.3965769257316651
  Basis Set: CC-PVTZ
  Basis Set:
  Basis Set: CC-PVTZ
  Basis Set:
  @DF-RHF Final Energy:  -212.39664539487831
    Total Energy =                       -212.3966453948783055
  Basis Set: CC-PVTZ
  Basis Set:
  Basis Set: CC-PVTZ
  Basis Set:
  @DF-RHF Final Energy:  -212.39664674194586
    Total Energy =                       -212.3966467419457445
  Basis Set: CC-PVTZ
  Basis Set:
  Charge       = 0
  Multiplicity = 1
  Basis Set: CC-PVTZ
  Basis Set:

    Orbital Energies (a.u.)
    -----------------------

    Doubly Occupied:

       1A    -15.526632     2A    -11.238565     3A    -11.213046
       4A    -11.207834     5A    -11.207103     6A     -1.178550
       7A     -1.059246     8A     -0.958193     9A     -0.851642
      10A     -0.788603    11A     -0.660673    12A     -0.637141
      13A     -0.612016    14A     -0.578767    15A     -0.562415
      16A     -0.528830    17A     -0.503886    18A     -0.468244
      19A     -0.462795    20A     -0.461202    21A     -0.383783

  @DF-RHF Final Energy:  -212.39664688808460

   => Energetics <=

    Nuclear Repulsion Energy =            188.0356089820217562
    One-Electron Energy =                -658.6861783542690318
    Two-Electron Energy =                 258.2539224841626719
    DFT Exchange-Correlation Energy =       0.0000000000000000
    Empirical Dispersion Energy =           0.0000000000000000
    PCM Polarization Energy =               0.0000000000000000
    EFP Energy =                            0.0000000000000000
    Total Energy =                       -212.3966468880846037
    Molecular point group: c1
  Basis Set: CC-PVTZ
  Basis Set:

  -Total Gradient:
     Atom            X                  Y                   Z
    ------   -----------------  -----------------  -----------------
       1        0.000007375010    -0.000000080501     0.000004365590
       2        0.000010889033    -0.000004411473    -0.000007324607
       3       -0.000022074780     0.000013499348    -0.000003927555
       4       -0.000000329132    -0.000001827613     0.000004727888
       5        0.001861038863     0.003197555998    -0.002214392037
       6       -0.000002071351    -0.000000282366    -0.000001028323
       7        0.000000979948    -0.000013062767    -0.000007723656
       8       -0.001453379122    -0.002692131974     0.003014595221
       9       -0.001315748463    -0.002220082954     0.001367176483
      10       -0.000004824821     0.000001749455     0.000005773768
      11       -0.000000590101     0.000003408197     0.000005566290
      12        0.000913660852     0.001711635660    -0.002156094461
      13        0.000003947049     0.000003545378     0.000003907573
      14        0.000002247864     0.000004708651    -0.000008375253
      15        0.000000600371     0.000000874809     0.000000444396
      16       -0.000001721224    -0.000005097848    -0.000007691317

  **** Optimization is complete! (in 5 steps) ****
    Final optimized geometry and variables:
    Molecular point group: c1

    Geometry (in Angstrom), charge = 0, multiplicity = 1:

    H            3.127917954098     0.009579152486    -0.371111175817
    N            2.291883146211    -0.534961896805    -0.357960952403
    C            1.113457304066     0.314038100839    -0.294583730124
    H            2.342916548465    -1.134757310444     0.438857634402
    C           -0.159297420274    -0.516754029593    -0.367166563507
    H            1.144162832719     0.989177898579    -1.142998166388
    H            1.087220009340     0.937952995641     0.599884319229
    C           -1.443429565414     0.317429979254    -0.246242060718
    H           -0.157984869027    -1.086568678264    -1.288763448712
    H           -0.139486217680    -1.257846493639     0.429653530482
    C           -1.982137101453     0.423101465916     1.177117849270
    H           -2.207004718505    -0.092904651666    -0.897825896604
    H           -1.254093544967     1.317685783837    -0.627986370060
    H           -2.260378100674    -0.552762150212     1.560439691669
    H           -2.859806689534     1.058117471412     1.219062449663
    H           -1.241073237985     0.841596739294     1.849991124786

  Mulliken Charges: (a.u.)
   Center  Symbol    Alpha    Beta     Spin     Total
       1     H     0.43011  0.43011  0.00000  0.13977
       2     N     3.68997  3.68997  0.00000 -0.37994
       3     C     3.02553  3.02553  0.00000 -0.05106
       4     H     0.43035  0.43035  0.00000  0.13929
       5     C     3.08651  3.08651  0.00000 -0.17302
       6     H     0.45644  0.45644  0.00000  0.08713
       7     H     0.46760  0.46760  0.00000  0.06480
       8     C     3.09622  3.09622  0.00000 -0.19245
       9     H     0.44383  0.44383  0.00000  0.11234
      10     H     0.46224  0.46224  0.00000  0.07551
      11     C     3.14726  3.14726  0.00000 -0.29453
      12     H     0.44719  0.44719  0.00000  0.10562
      13     H     0.45687  0.45687  0.00000  0.08626
      14     H     0.45484  0.45484  0.00000  0.09032
      15     H     0.44887  0.44887  0.00000  0.10226
      16     H     0.45615  0.45615  0.00000  0.08770

   Total alpha = 21.00000, Total beta = 21.00000, Total charge =  0.00000

*** Psi4 exiting successfully. Buy a developer a beer!
