  ==> Input File <==

--------------------------------------------------------------------------
set {
	reference rhf
	basis 6-31G*
}

set_num_threads( 4 )
memory 2 gb

molecule MOL {
0 1

H	 -1.836216	 1.387520	 -0.000064
C	 -1.301823	 0.443321	 -0.000031
O	 -0.003969	 0.658512	 0.000451
O	 -1.829879	 -0.616434	 -0.000857
C	 0.776726	 -0.037392	 -0.970847
C	 2.219937	 0.372056	 -0.771314
H	 0.418096	 0.222310	 -1.957385
H	 0.637893	 -1.100932	 -0.833360
H	 2.338637	 1.441210	 -0.904930
H	 2.849986	 -0.136564	 -1.493517
H	 2.559654	 0.111628	 0.224507

	symmetry c1
}
set optking {
	frozen_dihedral = ("
		5 3 2 4
	")
}

ee = optimize('scf')
oeprop('DIPOLE', 'QUADRUPOLE', 'MULLIKEN_CHARGES')
f=open( 'psi4out.xyz', 'w' )
f.write( "11  " )
f.write( str(ee) + "\n" )
f.write( MOL.save_string_xyz() )
f.close()
--------------------------------------------------------------------------

    Molecular point group: c1
  Charge       = 0
  Multiplicity = 1
  Basis Set: 6-31G*
  Basis Set:
  @DF-RHF Final Energy:  -266.81657355946606
    Total Energy =                       -266.8165735594660077
    Molecular point group: c1
  Basis Set: 6-31G*
  Basis Set:
  Basis Set: 6-31G*
  Basis Set:
  @DF-RHF Final Energy:  -266.80908528344503
    Total Energy =                       -266.8090852834450288
  Basis Set: 6-31G*
  Basis Set:
  Basis Set: 6-31G*
  Basis Set:
  @DF-RHF Final Energy:  -266.81719172008093
    Total Energy =                       -266.8171917200809276
  Basis Set: 6-31G*
  Basis Set:
  Basis Set: 6-31G*
  Basis Set:
  @DF-RHF Final Energy:  -266.81748834629309
    Total Energy =                       -266.8174883462934304
  Basis Set: 6-31G*
  Basis Set:
  Basis Set: 6-31G*
  Basis Set:
  @DF-RHF Final Energy:  -266.81749320034169
    Total Energy =                       -266.8174932003416870
  Basis Set: 6-31G*
  Basis Set:
  Charge       = 0
  Multiplicity = 1
  Basis Set: 6-31G*
  Basis Set:

    Orbital Energies (a.u.)
    -----------------------

    Doubly Occupied:

       1A    -20.600673     2A    -20.564057     3A    -11.379847
       4A    -11.296310     5A    -11.227444     6A     -1.468866
       7A     -1.375622     8A     -1.050928     9A     -0.896593
      10A     -0.813017    11A     -0.739296    12A     -0.686294
      13A     -0.665342    14A     -0.617338    15A     -0.563590
      16A     -0.548744    17A     -0.528346    18A     -0.508981
      19A     -0.462944    20A     -0.449375

  @DF-RHF Final Energy:  -266.81749378567599

   => Energetics <=

    Nuclear Repulsion Energy =            178.0411010370588372
    One-Electron Energy =                -716.8299769356241313
    Two-Electron Energy =                 271.9713821128892732
    DFT Exchange-Correlation Energy =       0.0000000000000000
    Empirical Dispersion Energy =           0.0000000000000000
    PCM Polarization Energy =               0.0000000000000000
    EFP Energy =                            0.0000000000000000
    Total Energy =                       -266.8174937856759925
    Molecular point group: c1
  Basis Set: 6-31G*
  Basis Set:

  -Total Gradient:
     Atom            X                  Y                   Z
    ------   -----------------  -----------------  -----------------
       1       -0.000004827446    -0.000009538944    -0.000005773944
       2       -0.000712025220     0.002075169524    -0.018143370732
       3        0.001705428636    -0.008130556031     0.013287334222
       4        0.000122607215     0.000503622954     0.010214606365
       5       -0.001117701878     0.005566232850    -0.005337366135
       6       -0.000005018689    -0.000006920286    -0.000016493438
       7        0.000006349165    -0.000000715504     0.000002821153
       8        0.000008388501     0.000010118230    -0.000004348538
       9       -0.000006075252    -0.000005282804    -0.000001261223
      10        0.000008629181     0.000001421168     0.000002676093
      11       -0.000005754212    -0.000003551158     0.000001176173

  **** Optimization is complete! (in 6 steps) ****
    Final optimized geometry and variables:
    Molecular point group: c1

    Geometry (in Angstrom), charge = 0, multiplicity = 1:

    H           -1.859729073408     1.204106676251     0.401238381476
    C           -1.292121799590     0.280276712853     0.338920459823
    O            0.014245074160     0.523845717807     0.307882215322
    O           -1.789690126251    -0.788813545016     0.401137480728
    C            0.808413450141    -0.198763248692    -0.633255655630
    C            2.252332609144     0.197187773487    -0.415128829053
    H            0.477562208698     0.061543050511    -1.632152500375
    H            0.660350442197    -1.259352867521    -0.486925919069
    H            2.382092692039     1.264343851491    -0.552305738679
    H            2.889382052570    -0.322403021719    -1.123410942759
    H            2.569236997310    -0.061453879406     0.588366221437

  Mulliken Charges: (a.u.)
   Center  Symbol    Alpha    Beta     Spin     Total
       1     H     0.41704  0.41704  0.00000  0.16591
       2     C     2.72704  2.72704  0.00000  0.54592
       3     O     4.30028  4.30028  0.00000 -0.60056
       4     O     4.24626  4.24626  0.00000 -0.49253
       5     C     3.00609  3.00609  0.00000 -0.01218
       6     C     3.24863  3.24863  0.00000 -0.49725
       7     H     0.41726  0.41726  0.00000  0.16548
       8     H     0.40346  0.40346  0.00000  0.19309
       9     H     0.41041  0.41041  0.00000  0.17918
      10     H     0.41565  0.41565  0.00000  0.16871
      11     H     0.40788  0.40788  0.00000  0.18424

   Total alpha = 20.00000, Total beta = 20.00000, Total charge = -0.00000
