  ==> Input File <==

--------------------------------------------------------------------------
set {
	reference rhf
	basis 6-31G*
}

set_num_threads( 4 )
memory 2 gb

molecule MOL {
0 1

O	 -1.487788	 1.240889	 -0.102860
C	 -1.083277	 0.139568	 0.115197
C	 0.323299	 -0.082943	 0.642902
C	 -1.933017	 -1.084621	 -0.143902
C	 1.355627	 -0.005344	 -0.493127
H	 0.396251	 -1.044647	 1.143147
H	 0.528637	 0.693580	 1.371677
C	 0.792671	 -0.498439	 -1.824737
H	 1.701739	 1.019787	 -0.605309
H	 2.220771	 -0.597971	 -0.214811
H	 1.541291	 -0.439330	 -2.608168
H	 -0.061167	 0.096369	 -2.136169
H	 0.468527	 -1.532255	 -1.752619
H	 -1.393885	 -1.806447	 -0.750509
H	 -2.850323	 -0.799888	 -0.640100
H	 -2.169004	 -1.571158	 0.798858

	symmetry c1
}
set optking {
	frozen_dihedral = ("
		9 5 3 2
	")
}

ee = optimize('scf')
oeprop('DIPOLE', 'QUADRUPOLE', 'MULLIKEN_CHARGES')
f=open( 'psi4out.xyz', 'w' )
f.write( "16  " )
f.write( str(ee) + "\n" )
f.write( MOL.save_string_xyz() )
f.close()
--------------------------------------------------------------------------

    Molecular point group: c1
  Charge       = 0
  Multiplicity = 1
  Basis Set: 6-31G*
  Basis Set:
  @DF-RHF Final Energy:  -270.02206021531470
    Total Energy =                       -270.0220602153148093
    Molecular point group: c1
  Basis Set: 6-31G*
  Basis Set:
  Basis Set: 6-31G*
  Basis Set:
  @DF-RHF Final Energy:  -270.02472491587389
    Total Energy =                       -270.0247249158736622
  Basis Set: 6-31G*
  Basis Set:
  Basis Set: 6-31G*
  Basis Set:
  @DF-RHF Final Energy:  -270.02506286548714
    Total Energy =                       -270.0250628654870297
  Basis Set: 6-31G*
  Basis Set:
  Basis Set: 6-31G*
  Basis Set:
  @DF-RHF Final Energy:  -270.02517280364793
    Total Energy =                       -270.0251728036478198
  Basis Set: 6-31G*
  Basis Set:
  @DF-RHF Final Energy:  -270.02540690030992
    Total Energy =                       -270.0254069003102586
  @DF-RHF Final Energy:  -270.02547526137653
    Total Energy =                       -270.0254752613764140
  @DF-RHF Final Energy:  -270.02558537024396
    Total Energy =                       -270.0255853702441300
  @DF-RHF Final Energy:  -270.02568167028829
    Total Energy =                       -270.0256816702882929
  @DF-RHF Final Energy:  -270.02570268392299
    Total Energy =                       -270.0257026839231003
  @DF-RHF Final Energy:  -270.02572164500452
    Total Energy =                       -270.0257216450044098
  @DF-RHF Final Energy:  -270.02572388448857
    Total Energy =                       -270.0257238844884569
  @DF-RHF Final Energy:  -270.02573754407763
    Total Energy =                       -270.0257375440778560
  @DF-RHF Final Energy:  -270.02572001573009
    Total Energy =                       -270.0257200157299735
  @DF-RHF Final Energy:  -270.02569781608042
    Total Energy =                       -270.0256978160801964
  @DF-RHF Final Energy:  -270.02575026658224
    Total Energy =                       -270.0257502665822358
  @DF-RHF Final Energy:  -270.02576322479183
    Total Energy =                       -270.0257632247918309
  @DF-RHF Final Energy:  -270.02577590404661
    Total Energy =                       -270.0257759040465544
  @DF-RHF Final Energy:  -270.02578612053480
    Total Energy =                       -270.0257861205349172
  @DF-RHF Final Energy:  -270.02580488595584
    Total Energy =                       -270.0258048859559494
  @DF-RHF Final Energy:  -270.02580888704063
    Total Energy =                       -270.0258088870404549
  @DF-RHF Final Energy:  -270.02591099144661
    Total Energy =                       -270.0259109914467217
  @DF-RHF Final Energy:  -270.02589454444706
    Total Energy =                       -270.0258945444471692
  @DF-RHF Final Energy:  -270.02591066826443
    Total Energy =                       -270.0259106682645438
  @DF-RHF Final Energy:  -270.02591037935292
    Total Energy =                       -270.0259103793528084
  @DF-RHF Final Energy:  -270.02591017434975
    Total Energy =                       -270.0259101743496331
  @DF-RHF Final Energy:  -270.02591004373767
    Total Energy =                       -270.0259100437376105
  @DF-RHF Final Energy:  -270.02588479405426
    Total Energy =                       -270.0258847940542637
  @DF-RHF Final Energy:  -270.02590994659545
    Total Energy =                       -270.0259099465956751
  @DF-RHF Final Energy:  -270.02590980007517
    Total Energy =                       -270.0259098000751692
  @DF-RHF Final Energy:  -270.02590984656558
    Total Energy =                       -270.0259098465655825
  @DF-RHF Final Energy:  -270.02590917141254
    Total Energy =                       -270.0259091714126498
  @DF-RHF Final Energy:  -270.02588578480743
    Total Energy =                       -270.0258857848075422
  @DF-RHF Final Energy:  -270.02591002506733
    Total Energy =                       -270.0259100250673328
  @DF-RHF Final Energy:  -270.02590957879693
    Total Energy =                       -270.0259095787970409
  @DF-RHF Final Energy:  -270.02591013428031
    Total Energy =                       -270.0259101342803092
  @DF-RHF Final Energy:  -270.02591014639324
    Total Energy =                       -270.0259101463931302
  Basis Set: 6-31G*
  Basis Set:
  @DF-RHF Final Energy:  -270.02590986241410
    Total Energy =                       -270.0259098624139256
  Basis Set: 6-31G*
  Basis Set:
  Basis Set: 6-31G*
  Basis Set:
  @DF-RHF Final Energy:  -270.02591012109883
    Total Energy =                       -270.0259101210987183
  Basis Set: 6-31G*
  Basis Set:
  Basis Set: 6-31G*
  Basis Set:
  @DF-RHF Final Energy:  -270.02591007630190
    Total Energy =                       -270.0259100763018978
  Basis Set: 6-31G*
  Basis Set:
  Charge       = 0
  Multiplicity = 1
  Basis Set: 6-31G*
  Basis Set:

    Orbital Energies (a.u.)
    -----------------------

    Doubly Occupied:

       1A    -20.547975     2A    -11.325980     3A    -11.231646
       4A    -11.228731     5A    -11.227446     6A    -11.211157
       7A     -1.394045     8A     -1.075285     9A     -1.013464
      10A     -0.947896    11A     -0.831034    12A     -0.724490
      13A     -0.657548    14A     -0.639415    15A     -0.621098
      16A     -0.603953    17A     -0.580603    18A     -0.553445
      19A     -0.545008    20A     -0.505173    21A     -0.493390
      22A     -0.475163    23A     -0.474556    24A     -0.397968

  @DF-RHF Final Energy:  -270.02591004137292

   => Energetics <=

    Nuclear Repulsion Energy =            242.3545132793190646
    One-Electron Energy =                -846.1479086614446032
    Two-Electron Energy =                 333.7674853407525006
    DFT Exchange-Correlation Energy =       0.0000000000000000
    Empirical Dispersion Energy =           0.0000000000000000
    PCM Polarization Energy =               0.0000000000000000
    EFP Energy =                            0.0000000000000000
    Total Energy =                       -270.0259100413729811
    Molecular point group: c1
  Basis Set: 6-31G*
  Basis Set:

  -Total Gradient:
     Atom            X                  Y                   Z
    ------   -----------------  -----------------  -----------------
       1       -0.000089258685     0.000201751967     0.000043303573
       2        0.000094375036    -0.004951878305    -0.001227783615
       3        0.001654628841     0.007006557850     0.003506703412
       4       -0.000029426972    -0.000118199857    -0.000348788575
       5       -0.006049970515    -0.000541102283    -0.006301563176
       6       -0.000112524025    -0.000068030321    -0.000181921493
       7       -0.000098643321    -0.000054218729    -0.000016552127
       8        0.000293943817     0.000207160309     0.000209335135
       9        0.004439354043    -0.001471353042     0.004320591618
      10        0.000066506140    -0.000145020025    -0.000024198102
      11       -0.000091911609    -0.000005696540     0.000037270703
      12       -0.000064703619    -0.000029903910    -0.000052526500
      13       -0.000059389235    -0.000021853289     0.000012702788
      14       -0.000002667470     0.000008981884    -0.000000548321
      15        0.000019249530    -0.000054863218     0.000024187072
      16        0.000030438044     0.000037667506    -0.000000212392

    Molecular point group: c1

    Geometry (in Angstrom), charge = 0, multiplicity = 1:

    O           -1.097429963209     1.122070414834    -0.177967794031
    C           -0.807455841512     0.111350253326     0.386211567522
    C            0.599386004631    -0.124145588964     0.915139154660
    C           -1.825387297389    -0.981351024508     0.622193032701
    C            1.731587340836     0.141982375904    -0.103162331305
    H            0.669461534648    -1.148246775964     1.273555821783
    H            0.726876299437     0.514944900796     1.784259373095
    C            1.433961610812    -0.247283272168    -1.546146324372
    H            2.046443629930     1.176606105804    -0.037092681570
    H            2.591148399641    -0.427931709896     0.237523695650
    H            2.324120018666    -0.130694127716    -2.156911854003
    H            0.652016094861     0.365310841928    -1.975741451886
    H            1.126557661881    -1.288765199661    -1.615495317776
    H           -1.519549798164    -1.886748214016     0.105313150808
    H           -2.796676375026    -0.670913943848     0.264209988424
    H           -1.883010888173    -1.220703498431     1.679586969487

  Mulliken Charges: (a.u.)
   Center  Symbol    Alpha    Beta     Spin     Total
       1     O     4.26354  4.26354  0.00000 -0.52709
       2     C     2.73564  2.73564  0.00000  0.52872
       3     C     3.20686  3.20686  0.00000 -0.41372
       4     C     3.28991  3.28991  0.00000 -0.57982
       5     C     3.14728  3.14728  0.00000 -0.29456
       6     H     0.41663  0.41663  0.00000  0.16674
       7     H     0.39998  0.39998  0.00000  0.20004
       8     C     3.25219  3.25219  0.00000 -0.50437
       9     H     0.41088  0.41088  0.00000  0.17823
      10     H     0.41934  0.41934  0.00000  0.16132
      11     H     0.41676  0.41676  0.00000  0.16647
      12     H     0.40175  0.40175  0.00000  0.19650
      13     H     0.42593  0.42593  0.00000  0.14815
      14     H     0.40758  0.40758  0.00000  0.18484
      15     H     0.39715  0.39715  0.00000  0.20571
      16     H     0.40858  0.40858  0.00000  0.18285

   Total alpha = 24.00000, Total beta = 24.00000, Total charge = -0.00000
