  ==> Input File <==

--------------------------------------------------------------------------
set {
	reference rhf
	basis 6-31G*
}

set_num_threads( 4 )
memory 2 gb

molecule MOL {
0 1

H	 2.551573	 -0.334518	 -0.594006
C	 1.951159	 -0.223429	 0.317018
C	 0.692068	 0.589600	 0.160137
O	 2.308637	 -0.726789	 1.332384
C	 -0.558097	 -0.297372	 0.091132
H	 0.791645	 1.202255	 -0.728243
H	 0.616171	 1.253469	 1.020572
C	 -1.850991	 0.512573	 -0.019058
H	 -0.476753	 -0.965681	 -0.762987
H	 -0.604799	 -0.930658	 0.975228
C	 -3.096943	 -0.368295	 -0.099594
H	 -1.800724	 1.150330	 -0.898172
H	 -1.931651	 1.177355	 0.838044
H	 -3.060452	 -1.020287	 -0.967456
H	 -3.996858	 0.233488	 -0.175704
H	 -3.191959	 -0.995686	 0.782074

	symmetry c1
}
set optking {
	frozen_dihedral = ("
		4 2 3 6
	")
}

ee = optimize('scf')
oeprop('DIPOLE', 'QUADRUPOLE', 'MULLIKEN_CHARGES')
f=open( 'psi4out.xyz', 'w' )
f.write( "16  " )
f.write( str(ee) + "\n" )
f.write( MOL.save_string_xyz() )
f.close()
--------------------------------------------------------------------------

    Molecular point group: c1
  Charge       = 0
  Multiplicity = 1
  Basis Set: 6-31G*
  Basis Set:
  @DF-RHF Final Energy:  -270.01834235532044
    Total Energy =                       -270.0183423553206694
    Molecular point group: c1
  Basis Set: 6-31G*
  Basis Set:
  Basis Set: 6-31G*
  Basis Set:
  @DF-RHF Final Energy:  -270.01802497270978
    Total Energy =                       -270.0180249727098385
  Basis Set: 6-31G*
  Basis Set:
  Basis Set: 6-31G*
  Basis Set:
  @DF-RHF Final Energy:  -270.01834208840864
    Total Energy =                       -270.0183420884085308
  Basis Set: 6-31G*
  Basis Set:
  Basis Set: 6-31G*
  Basis Set:
  @DF-RHF Final Energy:  -270.01872628131810
    Total Energy =                       -270.0187262813179814
  Basis Set: 6-31G*
  Basis Set:
  Basis Set: 6-31G*
  Basis Set:
  @DF-RHF Final Energy:  -270.01871900914034
    Total Energy =                       -270.0187190091406819
  Basis Set: 6-31G*
  Basis Set:
  Basis Set: 6-31G*
  Basis Set:
  @DF-RHF Final Energy:  -270.01873074404398
    Total Energy =                       -270.0187307440438644
  Basis Set: 6-31G*
  Basis Set:
  Charge       = 0
  Multiplicity = 1
  Basis Set: 6-31G*
  Basis Set:

    Orbital Energies (a.u.)
    -----------------------

    Doubly Occupied:

       1A    -20.562238     2A    -11.326838     3A    -11.234750
       4A    -11.233508     5A    -11.226928     6A    -11.216328
       7A     -1.402423     8A     -1.093060     9A     -1.016178
      10A     -0.905468    11A     -0.812547    12A     -0.786579
      13A     -0.681926    14A     -0.645606    15A     -0.627852
      16A     -0.601505    17A     -0.577726    18A     -0.550516
      19A     -0.525796    20A     -0.510288    21A     -0.485068
      22A     -0.478574    23A     -0.474659    24A     -0.408315

  @DF-RHF Final Energy:  -270.01873070995578

   => Energetics <=

    Nuclear Repulsion Energy =            230.4973904975558128
    One-Electron Energy =                -822.2628903555067836
    Two-Electron Energy =                 321.7467691479952805
    DFT Exchange-Correlation Energy =       0.0000000000000000
    Empirical Dispersion Energy =           0.0000000000000000
    PCM Polarization Energy =               0.0000000000000000
    EFP Energy =                            0.0000000000000000
    Total Energy =                       -270.0187307099557188
    Molecular point group: c1
  Basis Set: 6-31G*
  Basis Set:

  -Total Gradient:
     Atom            X                  Y                   Z
    ------   -----------------  -----------------  -----------------
       1       -0.000009789417     0.000010878413     0.000019890485
       2        0.000601452734     0.001018087353     0.000145535131
       3        0.000330105988     0.000559408153     0.000520908363
       4       -0.000497025157    -0.000843278703    -0.000180492201
       5       -0.000001158939    -0.000009175047     0.000004026909
       6       -0.000419546835    -0.000725402431    -0.000508442609
       7        0.000005079364    -0.000002395063     0.000012668749
       8       -0.000002643209    -0.000010541297    -0.000022217718
       9        0.000018188895     0.000021709815    -0.000008056613
      10       -0.000023378231    -0.000016778722     0.000000529490
      11       -0.000006450660     0.000004446642     0.000025195967
      12       -0.000003889079    -0.000010524999    -0.000007930119
      13        0.000010504847     0.000006306253    -0.000009369994
      14        0.000000970706     0.000007608133    -0.000002409488
      15       -0.000000208509    -0.000001154554     0.000009103256
      16       -0.000002212507    -0.000009193946     0.000001060391

  **** Optimization is complete! (in 7 steps) ****
    Final optimized geometry and variables:
    Molecular point group: c1

    Geometry (in Angstrom), charge = 0, multiplicity = 1:

    H            2.615820108773    -0.298705873771    -0.917437705470
    C            2.044825977300    -0.133695422550     0.002799724546
    C            0.794297274253     0.703685835928    -0.122675227887
    O            2.397483983034    -0.636157716855     1.020968063627
    C           -0.451503149833    -0.193611844414    -0.209505749932
    H            0.859277608311     1.328475269724    -1.008879886056
    H            0.726051535042     1.345433271071     0.749311726126
    C           -1.747257604076     0.609395672644    -0.330527542755
    H           -0.360532780614    -0.861894588026    -1.063919100285
    H           -0.487400595849    -0.822586684713     0.674840473470
    C           -2.987918804037    -0.279660689604    -0.404403621457
    H           -1.700335537856     1.240129058990    -1.215523569536
    H           -1.833039294644     1.280815965064     0.520611600068
    H           -2.947466459184    -0.939360045670    -1.266422448505
    H           -3.891410265779     0.316117764284    -0.486041512415
    H           -3.078824174648    -0.899712617144     0.482541975484

  Mulliken Charges: (a.u.)
   Center  Symbol    Alpha    Beta     Spin     Total
       1     H     0.42857  0.42857  0.00000  0.14286
       2     C     2.84087  2.84087  0.00000  0.31827
       3     C     3.20033  3.20033  0.00000 -0.40067
       4     O     4.23672  4.23672  0.00000 -0.47344
       5     C     3.16118  3.16118  0.00000 -0.32237
       6     H     0.41622  0.41622  0.00000  0.16756
       7     H     0.40041  0.40041  0.00000  0.19918
       8     C     3.15219  3.15219  0.00000 -0.30439
       9     H     0.41924  0.41924  0.00000  0.16152
      10     H     0.40652  0.40652  0.00000  0.18695
      11     C     3.24049  3.24049  0.00000 -0.48098
      12     H     0.42170  0.42170  0.00000  0.15660
      13     H     0.41921  0.41921  0.00000  0.16159
      14     H     0.42061  0.42061  0.00000  0.15878
      15     H     0.41706  0.41706  0.00000  0.16587
      16     H     0.41866  0.41866  0.00000  0.16267

   Total alpha = 24.00000, Total beta = 24.00000, Total charge = -0.00000
