                              Psi4 1.0.54 Driver

  ==> Input File <==

--------------------------------------------------------------------------
set {
	reference rhf
	basis cc-pvtz
}

set_num_threads( 4 )
memory 2 gb

molecule MOL {
0 1

H	 -1.507437	 -0.240120	 -0.150442
N	 -0.625934	 -0.663929	 -0.000707
C	 -0.577294	 -2.092361	 0.204992
C	 0.468494	 0.129045	 -0.002160
H	 -1.150815	 -2.378341	 1.078650
H	 0.449787	 -2.378890	 0.353652
H	 -0.967740	 -2.622406	 -0.655613
C	 1.785715	 -0.615093	 0.000603
O	 0.413285	 1.323206	 0.000532
H	 1.866994	 -1.243310	 -0.878792
H	 2.591506	 0.100263	 0.006422
H	 1.860358	 -1.250360	 0.875522

	symmetry c1
}
set optking {
	frozen_dihedral = ("
		3 2 4 9
	")
}

ee,wfn = optimize('scf', return_wfn=True)
oeprop( wfn, 'DIPOLE', 'QUADRUPOLE', 'MULLIKEN_CHARGES')
f=open( 'psi4out.xyz', 'w' )
f.write( "12  " )
f.write( str(ee) + "\n" )
f.write( MOL.save_string_xyz() )
f.close()
--------------------------------------------------------------------------

    Molecular point group: c1
  Charge       = 0
  Multiplicity = 1
  Basis Set: CC-PVTZ
  Basis Set:
  @DF-RHF Final Energy:  -247.09099203136253
    Total Energy =                       -247.0909920313624752
    Molecular point group: c1
  Basis Set: CC-PVTZ
  Basis Set:
  Basis Set: CC-PVTZ
  Basis Set:
  @DF-RHF Final Energy:  -247.09276183534132
    Total Energy =                       -247.0927618353415482
  Basis Set: CC-PVTZ
  Basis Set:
  Basis Set: CC-PVTZ
  Basis Set:
  @DF-RHF Final Energy:  -247.09574175840248
    Total Energy =                       -247.0957417584023688
  Basis Set: CC-PVTZ
  Basis Set:
  Basis Set: CC-PVTZ
  Basis Set:
  @DF-RHF Final Energy:  -247.09635455475876
    Total Energy =                       -247.0963545547588183
  Basis Set: CC-PVTZ
  Basis Set:
  @DF-RHF Final Energy:  -247.09642987371433
    Total Energy =                       -247.0964298737143849
  @DF-RHF Final Energy:  -247.09645827859273
    Total Energy =                       -247.0964582785928201
  @DF-RHF Final Energy:  -247.09654767701775
    Total Energy =                       -247.0965476770175542
  @DF-RHF Final Energy:  -247.08988557592443
    Total Energy =                       -247.0898855759242565
  @DF-RHF Final Energy:  -247.09689801210078
    Total Energy =                       -247.0968980121009508
  @DF-RHF Final Energy:  -247.09710372667377
    Total Energy =                       -247.0971037266737653
  @DF-RHF Final Energy:  -247.09727228438359
    Total Energy =                       -247.0972722843835072
  Basis Set: CC-PVTZ
  Basis Set:
  @DF-RHF Final Energy:  -247.09732149971896
    Total Energy =                       -247.0973214997190439
  Basis Set: CC-PVTZ
  Basis Set:
  Basis Set: CC-PVTZ
  Basis Set:
  @DF-RHF Final Energy:  -247.09734617593367
    Total Energy =                       -247.0973461759336942
  Basis Set: CC-PVTZ
  Basis Set:
  Basis Set: CC-PVTZ
  Basis Set:
  @DF-RHF Final Energy:  -247.09735838122754
    Total Energy =                       -247.0973583812275365
  Basis Set: CC-PVTZ
  Basis Set:
  Charge       = 0
  Multiplicity = 1
  Basis Set: CC-PVTZ
  Basis Set:

    Orbital Energies (a.u.)
    -----------------------

    Doubly Occupied:

       1A    -20.506036     2A    -15.573560     3A    -11.337196
       4A    -11.269346     5A    -11.228280     6A     -1.388295
       7A     -1.231613     8A     -1.006472     9A     -0.958204
      10A     -0.784053    11A     -0.676032    12A     -0.669741
      13A     -0.643342    14A     -0.586193    15A     -0.579518
      16A     -0.562594    17A     -0.557155    18A     -0.518133
      19A     -0.416302    20A     -0.388395

  @DF-RHF Final Energy:  -247.09735900950187

   => Energetics <=

    Nuclear Repulsion Energy =            181.7561232644032998
    One-Electron Energy =                -695.9460459126262322
    Two-Electron Energy =                 267.0925636387211171
    DFT Exchange-Correlation Energy =       0.0000000000000000
    Empirical Dispersion Energy =           0.0000000000000000
    PCM Polarization Energy =               0.0000000000000000
    EFP Energy =                            0.0000000000000000
    Total Energy =                       -247.0973590095018153
    Molecular point group: c1
  Basis Set: CC-PVTZ
  Basis Set:

  -Total Gradient:
     Atom            X                  Y                   Z
    ------   -----------------  -----------------  -----------------
       1        0.000014790167     0.000016749355    -0.000004232600
       2        0.000067350346    -0.000085741370    -0.000122930274
       3       -0.000056574097     0.000030076246     0.000131591668
       4        0.000009183282     0.000061086697    -0.000229959305
       5        0.000002596046     0.000010788131    -0.000023656100
       6        0.000008662921    -0.000043697307     0.000013372173
       7        0.000002076124    -0.000005250790     0.000012112060
       8       -0.000013326251     0.000003758372    -0.000027006430
       9       -0.000016338830     0.000013124741     0.000224194814
      10       -0.000006485873    -0.000004188038     0.000012154559
      11       -0.000003343479    -0.000001081860     0.000002771639
      12       -0.000008590355     0.000004375826     0.000011587795

  **** Optimization is complete! (in 15 steps) ****
    Final optimized geometry and variables:
    Molecular point group: c1

    Geometry (in Angstrom), charge = 0, multiplicity = 1:

    H           -1.723779967891     0.200300706778    -0.305314373278
    N           -0.869010088109    -0.292342950305    -0.199161337449
    C           -0.936245896001    -1.709627700839     0.062473119640
    C            0.204123276527     0.517442089290    -0.025196489858
    H           -0.896297627959    -1.945857495984     1.121147635304
    H           -0.138646336330    -2.240864485166    -0.437688423579
    H           -1.870761808807    -2.085052374912    -0.328605776670
    C            1.530271387909    -0.151803350443     0.250577673309
    O            0.102859776462     1.706067171797    -0.104547587352
    H            1.809361269260    -0.799874817785    -0.571451845041
    H            2.276697793555     0.615489666602     0.372448774045
    H            1.481877283278    -0.756103605169     1.148495598458

  Mulliken Charges: (a.u.)
   Center  Symbol    Alpha    Beta     Spin     Total
       1     H     0.41157  0.41157  0.00000  0.17686
       2     N     3.60579  3.60579  0.00000 -0.21158
       3     C     3.08630  3.08630  0.00000 -0.17260
       4     C     2.84600  2.84600  0.00000  0.30799
       5     H     0.45574  0.45574  0.00000  0.08852
       6     H     0.45324  0.45324  0.00000  0.09352
       7     H     0.44362  0.44362  0.00000  0.11275
       8     C     3.16157  3.16157  0.00000 -0.32313
       9     O     4.21045  4.21045  0.00000 -0.42090
      10     H     0.44651  0.44651  0.00000  0.10699
      11     H     0.42931  0.42931  0.00000  0.14139
      12     H     0.44990  0.44990  0.00000  0.10020

   Total alpha = 20.00000, Total beta = 20.00000, Total charge = -0.00000

*** Psi4 exiting successfully. Buy a developer a beer!
