  ==> Input File <==

--------------------------------------------------------------------------
set {
	reference rhf
	basis 6-31G*
}

set_num_threads( 4 )
memory 2 gb

molecule MOL {
0 1

H	 3.734462	 -0.812156	 0.695923
O	 2.830258	 -1.088533	 0.582851
C	 2.079485	 0.003070	 0.437389
C	 0.624473	 -0.343591	 0.253101
O	 2.544056	 1.096136	 0.457316
C	 -0.265902	 0.883932	 0.072916
H	 0.564498	 -1.019254	 -0.593808
H	 0.320265	 -0.925593	 1.119406
C	 -1.728698	 0.646073	 0.462102
H	 -0.209144	 1.219470	 -0.958188
H	 0.135059	 1.692851	 0.673903
C	 -2.482460	 -0.343073	 -0.431425
H	 -2.245265	 1.602650	 0.432430
H	 -1.779332	 0.308348	 1.496285
C	 -3.960546	 -0.461025	 -0.060175
H	 -2.395034	 -0.026811	 -1.468912
H	 -2.024850	 -1.327147	 -0.371646
H	 -4.472726	 -1.168004	 -0.705284
H	 -4.465146	 0.496508	 -0.151489
H	 -4.081218	 -0.800940	 0.964585

	symmetry c1
}
set optking {
	frozen_dihedral = ("
		7 4 6 10
	")
}

ee = optimize('scf')
oeprop('DIPOLE', 'QUADRUPOLE', 'MULLIKEN_CHARGES')
f=open( 'psi4out.xyz', 'w' )
f.write( "20  " )
f.write( str(ee) + "\n" )
f.write( MOL.save_string_xyz() )
f.close()
--------------------------------------------------------------------------

    Molecular point group: c1
  Charge       = 0
  Multiplicity = 1
  Basis Set: 6-31G*
  Basis Set:
  @DF-RHF Final Energy:  -383.94755851031249
    Total Energy =                       -383.9475585103127742
    Molecular point group: c1
  Basis Set: 6-31G*
  Basis Set:
  Basis Set: 6-31G*
  Basis Set:
  @DF-RHF Final Energy:  -383.94754791611786
    Total Energy =                       -383.9475479161174576
  Basis Set: 6-31G*
  Basis Set:
  Basis Set: 6-31G*
  Basis Set:
  @DF-RHF Final Energy:  -383.94771147691898
    Total Energy =                       -383.9477114769184709
  Basis Set: 6-31G*
  Basis Set:
  Basis Set: 6-31G*
  Basis Set:
  @DF-RHF Final Energy:  -383.94774871519627
    Total Energy =                       -383.9477487151964397
  Basis Set: 6-31G*
  Basis Set:
  Basis Set: 6-31G*
  Basis Set:
  @DF-RHF Final Energy:  -383.94749322235344
    Total Energy =                       -383.9474932223533870
  Basis Set: 6-31G*
  Basis Set:
  Basis Set: 6-31G*
  Basis Set:
  @DF-RHF Final Energy:  -383.94776693445277
    Total Energy =                       -383.9477669344529431
  Basis Set: 6-31G*
  Basis Set:
  Charge       = 0
  Multiplicity = 1
  Basis Set: 6-31G*
  Basis Set:

    Orbital Energies (a.u.)
    -----------------------

    Doubly Occupied:

       1A    -20.612519     2A    -20.551813     3A    -11.381260
       4A    -11.240585     5A    -11.222363     6A    -11.220461
       7A    -11.219761     8A    -11.212322     9A     -1.474697
      10A     -1.365685    11A     -1.096023    12A     -1.040326
      13A     -0.961306    14A     -0.868514    15A     -0.816367
      16A     -0.776102    17A     -0.699845    18A     -0.689768
      19A     -0.664638    20A     -0.636027    21A     -0.601642
      22A     -0.593570    23A     -0.575299    24A     -0.552551
      25A     -0.544687    26A     -0.511750    27A     -0.496644
      28A     -0.479338    29A     -0.468391    30A     -0.467472
      31A     -0.457402    32A     -0.444081

  @DF-RHF Final Energy:  -383.94776697093886

   => Energetics <=

    Nuclear Repulsion Energy =            375.9841625473360978
    One-Electron Energy =               -1267.9774433217548903
    Two-Electron Energy =                 508.0455138034794800
    DFT Exchange-Correlation Energy =       0.0000000000000000
    Empirical Dispersion Energy =           0.0000000000000000
    PCM Polarization Energy =               0.0000000000000000
    EFP Energy =                            0.0000000000000000
    Total Energy =                       -383.9477669709392558
    Molecular point group: c1
  Basis Set: 6-31G*
  Basis Set:

  -Total Gradient:
     Atom            X                  Y                   Z
    ------   -----------------  -----------------  -----------------
       1       -0.000016211372     0.000013638838    -0.000005084216
       2       -0.000030398320    -0.000025872055    -0.000020410283
       3        0.000016426630    -0.000006417780     0.000075915334
       4       -0.003220030898    -0.002068639374     0.001436519855
       5       -0.000013152183     0.000023568553    -0.000037102590
       6        0.003240346052     0.002370415420     0.000455080636
       7        0.002155360823     0.001329352445    -0.001270618574
       8        0.000011393726    -0.000006184680    -0.000001627105
       9       -0.000002802447    -0.000002656254    -0.000028393429
      10       -0.002162167876    -0.001609577057    -0.000640008737
      11        0.000000684278     0.000000633540     0.000005044367
      12        0.000013292122    -0.000026961958     0.000034296715
      13       -0.000005591592    -0.000000736687    -0.000000575238
      14        0.000005926125    -0.000004610253    -0.000005259048
      15       -0.000009929574     0.000025142308    -0.000016323490
      16        0.000009239310    -0.000010152184     0.000007637966
      17        0.000010429281    -0.000003961828     0.000011517470
      18       -0.000004690836     0.000011793458    -0.000010209563
      19       -0.000002341576     0.000004104004     0.000015473810
      20        0.000004218321    -0.000012878459    -0.000005873881

  **** Optimization is complete! (in 7 steps) ****
    Final optimized geometry and variables:
    Molecular point group: c1

    Geometry (in Angstrom), charge = 0, multiplicity = 1:

    H            3.716343065108    -0.895362063146     0.399861915598
    O            2.803232633460    -1.150923820393     0.312591452775
    C            2.072750015252    -0.041795791059     0.198440841827
    C            0.604695312140    -0.360529884540     0.056670112441
    O            2.563404986302     1.039911660991     0.210738958231
    C           -0.269584789865     0.883063637601    -0.119627810545
    H            0.525450694438    -1.033861259785    -0.790746194767
    H            0.317291328017    -0.933894123455     0.933739238604
    C           -1.740153286201     0.646556713663     0.241742862868
    H           -0.213505611651     1.214682035526    -1.152678065836
    H            0.126606432815     1.685037346140     0.490548930948
    C           -2.459337861280    -0.372983878020    -0.645492816505
    H           -2.264366282698     1.597328352847     0.177021010753
    H           -1.810716125763     0.332314113556     1.282138699077
    C           -3.941568498771    -0.513771537897    -0.300152797339
    H           -2.358316163278    -0.074897486316    -1.687283654978
    H           -1.981373051372    -1.345713489579    -0.558346251973
    H           -4.428474212594    -1.239289568570    -0.944268277247
    H           -4.462052204148     0.432742070604    -0.414574697709
    H           -4.075101770354    -0.841302156117     0.727028837363

  Mulliken Charges: (a.u.)
   Center  Symbol    Alpha    Beta     Spin     Total
       1     H     0.26780  0.26780  0.00000  0.46439
       2     O     4.35098  4.35098  0.00000 -0.70197
       3     C     2.62516  2.62516  0.00000  0.74967
       4     C     3.21269  3.21269  0.00000 -0.42537
       5     O     4.27886  4.27886  0.00000 -0.55772
       6     C     3.15625  3.15625  0.00000 -0.31250
       7     H     0.39644  0.39644  0.00000  0.20712
       8     H     0.39827  0.39827  0.00000  0.20346
       9     C     3.15623  3.15623  0.00000 -0.31246
      10     H     0.41585  0.41585  0.00000  0.16830
      11     H     0.40084  0.40084  0.00000  0.19832
      12     C     3.15499  3.15499  0.00000 -0.30999
      13     H     0.41837  0.41837  0.00000  0.16326
      14     H     0.42341  0.42341  0.00000  0.15318
      15     C     3.23912  3.23912  0.00000 -0.47824
      16     H     0.42221  0.42221  0.00000  0.15557
      17     H     0.42210  0.42210  0.00000  0.15581
      18     H     0.41844  0.41844  0.00000  0.16311
      19     H     0.42067  0.42067  0.00000  0.15865
      20     H     0.42130  0.42130  0.00000  0.15740

   Total alpha = 32.00000, Total beta = 32.00000, Total charge =  0.00000
