  ==> Input File <==

--------------------------------------------------------------------------
set {
	reference rhf
	basis cc-pvtz
}

set_num_threads( 4 )
memory 2 gb

molecule MOL {
0 1

H	 -3.162190	 0.493205	 -0.000107
C	 -2.363908	 -0.234727	 0.000005
O	 -1.158738	 0.454634	 -0.000087
H	 -2.464314	 -0.863616	 -0.882153
H	 -2.464327	 -0.863359	 0.882345
C	 -0.028611	 -0.359694	 0.000037
C	 1.212847	 0.509314	 -0.000053
H	 -0.034155	 -1.007047	 -0.877198
H	 -0.034195	 -1.006836	 0.877430
C	 1.734226	 0.779763	 -1.406955
H	 0.980282	 1.443952	 0.498235
H	 1.976974	 0.020047	 0.593815
H	 0.992917	 1.291360	 -2.011782
H	 2.620176	 1.402057	 -1.377582
H	 1.996548	 -0.142022	 -1.915449

	symmetry c1
}
set optking {
	frozen_dihedral = ("
		11 7 6 8
	")
}

ee = optimize('scf')
oeprop('DIPOLE', 'QUADRUPOLE', 'MULLIKEN_CHARGES')
f=open( 'psi4out.xyz', 'w' )
f.write( "15  " )
f.write( str(ee) + "\n" )
f.write( MOL.save_string_xyz() )
f.close()
--------------------------------------------------------------------------

    Molecular point group: c1
  Charge       = 0
  Multiplicity = 1
  Basis Set: CC-PVTZ
  Basis Set:
  @DF-RHF Final Energy:  -232.22476138032724
    Total Energy =                       -232.2247613803272088
    Molecular point group: c1
  Basis Set: CC-PVTZ
  Basis Set:
  Basis Set: CC-PVTZ
  Basis Set:
  @DF-RHF Final Energy:  -232.22524053363028
    Total Energy =                       -232.2252405336304264
  Basis Set: CC-PVTZ
  Basis Set:
  Basis Set: CC-PVTZ
  Basis Set:
  @DF-RHF Final Energy:  -232.22534369471589
    Total Energy =                       -232.2253436947157752
  Basis Set: CC-PVTZ
  Basis Set:
  Basis Set: CC-PVTZ
  Basis Set:
  @DF-RHF Final Energy:  -232.22534702431224
    Total Energy =                       -232.2253470243121001
  Basis Set: CC-PVTZ
  Basis Set:
  Charge       = 0
  Multiplicity = 1
  Basis Set: CC-PVTZ
  Basis Set:

    Orbital Energies (a.u.)
    -----------------------

    Doubly Occupied:

       1A    -20.547293     2A    -11.264805     3A    -11.261555
       4A    -11.212964     5A    -11.205260     6A     -1.380727
       7A     -1.054965     8A     -0.952674     9A     -0.881746
      10A     -0.805070    11A     -0.670662    12A     -0.663117
      13A     -0.632943    14A     -0.584620    15A     -0.580073
      16A     -0.546346    17A     -0.493954    18A     -0.484896
      19A     -0.484068    20A     -0.461861    21A     -0.415283

  @DF-RHF Final Energy:  -232.22534748804082

   => Energetics <=

    Nuclear Repulsion Energy =            191.9195400373331495
    One-Electron Energy =                -695.1200113086367764
    Two-Electron Energy =                 270.9751237832627453
    DFT Exchange-Correlation Energy =       0.0000000000000000
    Empirical Dispersion Energy =           0.0000000000000000
    PCM Polarization Energy =               0.0000000000000000
    EFP Energy =                            0.0000000000000000
    Total Energy =                       -232.2253474880408817
    Molecular point group: c1
  Basis Set: CC-PVTZ
  Basis Set:

  -Total Gradient:
     Atom            X                  Y                   Z
    ------   -----------------  -----------------  -----------------
       1        0.000005563606     0.000000318903     0.000003722074
       2       -0.000038308378    -0.000010975931    -0.000002262078
       3        0.000018126562    -0.000020261090     0.000001630073
       4        0.000000369119     0.000002496067     0.000001522661
       5       -0.000004496198     0.000002156869    -0.000000894116
       6        0.002587736874    -0.003661286953     0.002097550414
       7        0.001095238274    -0.001323815677     0.004316865079
       8       -0.002304315519     0.003244121089    -0.002365140024
       9        0.000004463749     0.000004864876    -0.000006104033
      10       -0.000011419895    -0.000006016338    -0.000017942625
      11       -0.001336317323     0.001772519885    -0.004007666585
      12       -0.000028010093    -0.000007338913    -0.000016272480
      13        0.000001956471    -0.000008586702    -0.000004217260
      14        0.000005320542     0.000001145172    -0.000000388753
      15        0.000004092208     0.000010658742    -0.000000402347

  **** Optimization is complete! (in 5 steps) ****
    Final optimized geometry and variables:
    Molecular point group: c1

    Geometry (in Angstrom), charge = 0, multiplicity = 1:

    H           -2.991560916833     0.304379867555     0.229980914600
    C           -2.203987918256    -0.435145343311     0.248690152160
    O           -0.989604575694     0.235510085221     0.289685115760
    H           -2.287887700674    -1.057285032047    -0.640111496384
    H           -2.340527076694    -1.068186857101     1.123290140993
    C            0.130896733524    -0.600298677068     0.328154232297
    C            1.385643327087     0.263384485949     0.289599291801
    H            0.098063137556    -1.260298020224    -0.537814264588
    H            0.102118884143    -1.212293389195     1.227102024703
    C            1.853098209578     0.572311489749    -1.130855194042
    H            1.150331768667     1.198433815194     0.783354530641
    H            2.182184360585    -0.220579391271     0.843464033309
    H            1.061571130985     1.046108647415    -1.699934158518
    H            2.705370817329     1.242005657635    -1.124347729523
    H            2.146879304004    -0.331635507944    -1.654194357397

  Mulliken Charges: (a.u.)
   Center  Symbol    Alpha    Beta     Spin     Total
       1     H     0.44731  0.44731  0.00000  0.10538
       2     C     3.03153  3.03153  0.00000 -0.06307
       3     O     4.17578  4.17578  0.00000 -0.35156
       4     H     0.47243  0.47243  0.00000  0.05515
       5     H     0.47214  0.47214  0.00000  0.05573
       6     C     2.96597  2.96597  0.00000  0.06807
       7     C     3.08081  3.08081  0.00000 -0.16162
       8     H     0.47629  0.47629  0.00000  0.04742
       9     H     0.46642  0.46642  0.00000  0.06716
      10     C     3.15110  3.15110  0.00000 -0.30220
      11     H     0.44983  0.44983  0.00000  0.10033
      12     H     0.45339  0.45339  0.00000  0.09321
      13     H     0.44927  0.44927  0.00000  0.10147
      14     H     0.44995  0.44995  0.00000  0.10010
      15     H     0.45778  0.45778  0.00000  0.08443

   Total alpha = 21.00000, Total beta = 21.00000, Total charge = -0.00000
