  ==> Input File <==

--------------------------------------------------------------------------
set {
	reference rhf
	basis 6-31G*
}

set_num_threads( 4 )
memory 2 gb

molecule MOL {
0 1

H	 -3.489639	 -0.094624	 2.426277
C	 -2.534335	 -0.010222	 1.939394
C	 -2.152239	 1.195686	 1.371118
C	 -1.689311	 -1.107303	 1.882122
H	 -2.808538	 2.045746	 1.416238
C	 -0.923756	 1.303437	 0.745256
H	 -1.987208	 -2.041282	 2.323197
C	 -0.459115	 -1.001771	 1.256141
H	 -0.611556	 2.228654	 0.300087
C	 -0.073237	 0.205447	 0.685627
H	 0.197963	 -1.848170	 1.209478
C	 1.239129	 0.373821	 0.000060
O	 1.970282	 -0.730723	 0.000018
O	 1.603172	 1.391947	 -0.499692
C	 3.377318	 -0.566646	 -0.000065
H	 3.695437	 -0.028981	 -0.881264
H	 3.789299	 -1.563704	 0.000236
H	 3.695516	 -0.028316	 0.880770

	symmetry c1
}
set optking {
	frozen_dihedral = ("
		10 12 13 15
	")
}

ee = optimize('scf')
oeprop('DIPOLE', 'QUADRUPOLE', 'MULLIKEN_CHARGES')
f=open( 'psi4out.xyz', 'w' )
f.write( "18  " )
f.write( str(ee) + "\n" )
f.write( MOL.save_string_xyz() )
f.close()
--------------------------------------------------------------------------

    Molecular point group: c1
  Charge       = 0
  Multiplicity = 1
  Basis Set: 6-31G*
  Basis Set:
  @DF-RHF Final Energy:  -457.34567290391271
    Total Energy =                       -457.3456729039131687
    Molecular point group: c1
  Basis Set: 6-31G*
  Basis Set:
  Basis Set: 6-31G*
  Basis Set:
  @DF-RHF Final Energy:  -457.34236255822378
    Total Energy =                       -457.3423625582236127
  Basis Set: 6-31G*
  Basis Set:
  Basis Set: 6-31G*
  Basis Set:
  @DF-RHF Final Energy:  -457.34602439015976
    Total Energy =                       -457.3460243901595277
  Basis Set: 6-31G*
  Basis Set:
  Basis Set: 6-31G*
  Basis Set:
  @DF-RHF Final Energy:  -457.34607181095072
    Total Energy =                       -457.3460718109511163
  Basis Set: 6-31G*
  Basis Set:
  Basis Set: 6-31G*
  Basis Set:
  @DF-RHF Final Energy:  -457.34607285479331
    Total Energy =                       -457.3460728547925100
  Basis Set: 6-31G*
  Basis Set:
  Charge       = 0
  Multiplicity = 1
  Basis Set: 6-31G*
  Basis Set:

    Orbital Energies (a.u.)
    -----------------------

    Doubly Occupied:

       1A    -20.602650     2A    -20.546343     3A    -11.378322
       4A    -11.284419     5A    -11.246099     6A    -11.246057
       7A    -11.244760     8A    -11.242397     9A    -11.238035
      10A    -11.237310    11A     -1.469597    12A     -1.364104
      13A     -1.165756    14A     -1.047397    15A     -1.025419
      16A     -0.977207    17A     -0.861923    18A     -0.835018
      19A     -0.777438    20A     -0.739259    21A     -0.683327
      22A     -0.675319    23A     -0.670696    24A     -0.632063
      25A     -0.624565    26A     -0.598865    27A     -0.589581
      28A     -0.559012    29A     -0.529043    30A     -0.516824
      31A     -0.502926    32A     -0.499242    33A     -0.458542
      34A     -0.443537    35A     -0.345494    36A     -0.341585

  @DF-RHF Final Energy:  -457.34607301819972

   => Energetics <=

    Nuclear Repulsion Energy =            493.2433411288888010
    One-Electron Energy =               -1600.7785641968337131
    Two-Electron Energy =                 650.1891500497447396
    DFT Exchange-Correlation Energy =       0.0000000000000000
    Empirical Dispersion Energy =           0.0000000000000000
    PCM Polarization Energy =               0.0000000000000000
    EFP Energy =                            0.0000000000000000
    Total Energy =                       -457.3460730182002862
    Molecular point group: c1
  Basis Set: 6-31G*
  Basis Set:

  -Total Gradient:
     Atom            X                  Y                   Z
    ------   -----------------  -----------------  -----------------
       1       -0.000000246914     0.000000765343    -0.000001038053
       2       -0.000003013171     0.000027171177    -0.000006349921
       3       -0.000018130709    -0.000011654097     0.000015306524
       4        0.000022217023    -0.000009008823    -0.000007050285
       5       -0.000001749140     0.000000435577    -0.000002254316
       6        0.000018623528    -0.000014949417    -0.000005316609
       7        0.000000026921     0.000002078605     0.000000554694
       8       -0.000011081090    -0.000019986956     0.000010464087
       9        0.000000738561     0.000004999551     0.000001847629
      10        0.002564340983     0.001611387058     0.005395134979
      11       -0.000000715404     0.000004061763    -0.000001073770
      12       -0.003680351449    -0.002390502950    -0.004608943351
      13        0.001159357829     0.000912780179    -0.007486534980
      14       -0.000031945519     0.000032935622     0.000006442464
      15       -0.000021251758    -0.000142094695     0.006710498423
      16        0.000005769357     0.000008001966    -0.000000934103
      17        0.000002406983    -0.000011366868     0.000001599828
      18       -0.000004996030    -0.000005053036    -0.000022353236

  **** Optimization is complete! (in 6 steps) ****
    Final optimized geometry and variables:
    Molecular point group: c1

    Geometry (in Angstrom), charge = 0, multiplicity = 1:

    H           -3.640780924438    -0.201418583852     1.741622023318
    C           -2.689282533653    -0.116962294051     1.247437919688
    C           -2.310346329041     1.090407887242     0.679123722116
    C           -1.846348182721    -1.214766199366     1.180828416645
    H           -2.965651294338     1.940862978004     0.731355591553
    C           -1.087052381202     1.198502240774     0.044218462450
    H           -2.142117368763    -2.149590897772     1.621479366929
    C           -0.620451628761    -1.108599701267     0.545948855913
    H           -0.777056230175     2.124897576834    -0.400011111435
    C           -0.236414202129     0.100208733911    -0.022121882646
    H            0.035548916146    -1.955218795841     0.491633151214
    C            1.081161030873     0.273121616704    -0.696588823038
    O            1.812767934557    -0.836999603588    -0.718647426692
    O            1.477533703112     1.314131428613    -1.115472259922
    C            3.220351944642    -0.674236961047    -0.708923274885
    H            3.561902237612    -0.214490121833    -1.624167519954
    H            3.631625769515    -1.666986745151    -0.613522843321
    H            3.519453090182    -0.064731279940     0.132832751953

  Mulliken Charges: (a.u.)
   Center  Symbol    Alpha    Beta     Spin     Total
       1     H     0.39522  0.39522  0.00000  0.20957
       2     C     3.08982  3.08982  0.00000 -0.17964
       3     C     3.10708  3.10708  0.00000 -0.21417
       4     C     3.10702  3.10702  0.00000 -0.21404
       5     H     0.39521  0.39521  0.00000  0.20958
       6     C     3.08619  3.08619  0.00000 -0.17238
       7     H     0.39614  0.39614  0.00000  0.20771
       8     C     3.08747  3.08747  0.00000 -0.17494
       9     H     0.37600  0.37600  0.00000  0.24800
      10     C     3.07814  3.07814  0.00000 -0.15627
      11     H     0.38086  0.38086  0.00000  0.23828
      12     C     2.58061  2.58061  0.00000  0.83879
      13     O     4.31737  4.31737  0.00000 -0.63475
      14     O     4.28595  4.28595  0.00000 -0.57189
      15     C     3.09291  3.09291  0.00000 -0.18583
      16     H     0.40423  0.40423  0.00000  0.19154
      17     H     0.40768  0.40768  0.00000  0.18464
      18     H     0.41210  0.41210  0.00000  0.17580

   Total alpha = 36.00000, Total beta = 36.00000, Total charge = -0.00000
