  ==> Input File <==

--------------------------------------------------------------------------
set {
	reference rhf
	basis 6-31G*
}

set_num_threads( 1 )
memory 2 gb

molecule MOL {
0 1

H	 -1.265187	 -0.592460	 -0.758169
N	 -0.626943	 -0.667432	 -0.000092
C	 -0.916094	 -1.622917	 1.044972
C	 0.469286	 0.129090	 0.000148
H	 -1.862479	 -1.398413	 1.525553
H	 -0.128957	 -1.567670	 1.779201
H	 -0.957766	 -2.631997	 0.648675
C	 1.788933	 -0.616240	 -0.000037
O	 0.411098	 1.327768	 -0.000049
H	 1.872803	 -1.245775	 -0.880381
H	 2.595421	 0.101576	 0.003713
H	 1.870096	 -1.252171	 0.875943

	symmetry c1
}
set optking {
	frozen_dihedral = ("
		4 2 3 5
	")
}

ee = energy('scf')
oeprop('DIPOLE', 'QUADRUPOLE', 'MULLIKEN_CHARGES')
f=open( 'psi4out.xyz', 'w' )
f.write( "12  " )
f.write( str(ee) + "\n" )
f.write( MOL.save_string_xyz() )
f.close()
--------------------------------------------------------------------------

    Molecular point group: c1

    Geometry (in Angstrom), charge = 0, multiplicity = 1:

       Center              X                  Y                   Z               Mass
    ------------   -----------------  -----------------  -----------------  -----------------
           H         -1.484787165243    -0.290165198582    -0.973882348475     1.007825032070
           N         -0.846543165243    -0.365137198582    -0.215805348475    14.003074004780
           C         -1.135694165243    -1.320622198582     0.829258651525    12.000000000000
           C          0.249685834757     0.431384801418    -0.215565348475    12.000000000000
           H         -2.082079165243    -1.096118198582     1.309839651525     1.007825032070
           H         -0.348557165243    -1.265375198582     1.563487651525     1.007825032070
           H         -1.177366165243    -2.329702198582     0.432961651525     1.007825032070
           C          1.569332834757    -0.313945198582    -0.215750348475    12.000000000000
           O          0.191497834757     1.630062801418    -0.215762348475    15.994914619560
           H          1.653202834757    -0.943480198582    -1.096094348475     1.007825032070
           H          2.375820834757     0.403870801418    -0.212000348475     1.007825032070
           H          1.650495834757    -0.949876198582     0.660229651525     1.007825032070

  Charge       = 0
  Multiplicity = 1
  Basis Set: 6-31G*
  Basis Set:

    Orbital Energies (a.u.)
    -----------------------

    Doubly Occupied:

       1A    -20.537323     2A    -15.555564     3A    -11.346181
       4A    -11.265961     5A    -11.224846     6A     -1.392565
       7A     -1.224254     8A     -1.002542     9A     -0.946474
      10A     -0.784379    11A     -0.679286    12A     -0.654645
      13A     -0.639127    14A     -0.592945    15A     -0.580929
      16A     -0.565718    17A     -0.554845    18A     -0.489083
      19A     -0.421114    20A     -0.374009

  @DF-RHF Final Energy:  -246.97269407604529

   => Energetics <=

    Nuclear Repulsion Energy =            181.4645890467875802
    One-Electron Energy =                -695.2109306250963527
    Two-Electron Energy =                 266.7736475022633726
    DFT Exchange-Correlation Energy =       0.0000000000000000
    Empirical Dispersion Energy =           0.0000000000000000
    PCM Polarization Energy =               0.0000000000000000
    EFP Energy =                            0.0000000000000000
    Total Energy =                       -246.9726940760454568

  Mulliken Charges: (a.u.)
   Center  Symbol    Alpha    Beta     Spin     Total
       1     H     0.30689  0.30689  0.00000  0.38622
       2     N     3.89704  3.89704  0.00000 -0.79408
       3     C     3.13543  3.13543  0.00000 -0.27087
       4     C     2.65794  2.65794  0.00000  0.68413
       5     H     0.40914  0.40914  0.00000  0.18172
       6     H     0.41268  0.41268  0.00000  0.17464
       7     H     0.41827  0.41827  0.00000  0.16346
       8     C     3.28241  3.28241  0.00000 -0.56483
       9     O     4.26350  4.26350  0.00000 -0.52700
      10     H     0.40643  0.40643  0.00000  0.18715
      11     H     0.39920  0.39920  0.00000  0.20161
      12     H     0.41108  0.41108  0.00000  0.17784

   Total alpha = 20.00000, Total beta = 20.00000, Total charge =  0.00000
