                              Psi4 1.0.54 Driver

  ==> Input File <==

--------------------------------------------------------------------------
set {
	reference rhf
	basis cc-pvtz
}

set_num_threads( 4 )
memory 2 gb

molecule MOL {
0 1

H	 -1.838548	 0.067684	 -1.061074
C	 -1.046105	 -0.484944	 -0.603724
C	 -1.039524	 -1.865044	 -0.599956
C	 0.000000	 0.179985	 0.000046
H	 -1.843877	 -2.400779	 -1.064195
C	 0.000002	 -2.552036	 -0.000013
N	 0.000000	 1.644631	 0.000076
C	 1.046105	 -0.484969	 0.603790
H	 0.000000	 -3.625035	 -0.000032
C	 1.039525	 -1.865069	 0.599962
O	 1.050559	 2.194174	 -0.000073
O	 -1.050559	 2.194174	 -0.000074
H	 1.838552	 0.067641	 1.061155
H	 1.843877	 -2.400822	 1.064183

	symmetry c1
}
set optking {
	frozen_dihedral = ("
		2 4 7 11
	")
}

ee,wfn = optimize('scf', return_wfn=True)
oeprop( wfn, 'DIPOLE', 'QUADRUPOLE', 'MULLIKEN_CHARGES')
f=open( 'psi4out.xyz', 'w' )
f.write( "14  " )
f.write( str(ee) + "\n" )
f.write( MOL.save_string_xyz() )
f.close()
--------------------------------------------------------------------------

    Molecular point group: c1
  Charge       = 0
  Multiplicity = 1
  Basis Set: CC-PVTZ
  Basis Set:
  @DF-RHF Final Energy:  -434.32830400362269
    Total Energy =                       -434.3283040036228613
    Molecular point group: c1
  Basis Set: CC-PVTZ
  Basis Set:
  Basis Set: CC-PVTZ
  Basis Set:
  @DF-RHF Final Energy:  -434.32056285896385
    Total Energy =                       -434.3205628589633989
  Basis Set: CC-PVTZ
  Basis Set:
  Basis Set: CC-PVTZ
  Basis Set:
  @DF-RHF Final Energy:  -434.32743895731932
    Total Energy =                       -434.3274389573193730
  Basis Set: CC-PVTZ
  Basis Set:
  Basis Set: CC-PVTZ
  Basis Set:
  @DF-RHF Final Energy:  -434.32846978519450
    Total Energy =                       -434.3284697851942155
  Basis Set: CC-PVTZ
  Basis Set:
  Basis Set: CC-PVTZ
  Basis Set:
  @DF-RHF Final Energy:  -434.32847485179377
    Total Energy =                       -434.3284748517938851
  Basis Set: CC-PVTZ
  Basis Set:
  Basis Set: CC-PVTZ
  Basis Set:
  @DF-RHF Final Energy:  -434.32850537061927
    Total Energy =                       -434.3285053706192684
  Basis Set: CC-PVTZ
  Basis Set:
  Charge       = 0
  Multiplicity = 1
  Basis Set: CC-PVTZ
  Basis Set:

    Orbital Energies (a.u.)
    -----------------------

    Doubly Occupied:

       1A    -20.593154     2A    -20.592944     3A    -15.847518
       4A    -11.303362     5A    -11.267694     6A    -11.267552
       7A    -11.263768     8A    -11.258877     9A    -11.258699
      10A     -1.641638    11A     -1.424424    12A     -1.205293
      13A     -1.096308    14A     -1.055725    15A     -0.959529
      16A     -0.869308    17A     -0.829367    18A     -0.788225
      19A     -0.740472    20A     -0.735550    21A     -0.713495
      22A     -0.657962    23A     -0.651722    24A     -0.626406
      25A     -0.557195    26A     -0.543790    27A     -0.532136
      28A     -0.494520    29A     -0.490803    30A     -0.456998
      31A     -0.376179    32A     -0.369822

  @DF-RHF Final Energy:  -434.32850607351514

   => Energetics <=

    Nuclear Repulsion Energy =            418.1814523644686119
    One-Electron Energy =               -1420.0790439054530907
    Two-Electron Energy =                 567.5690854674694492
    DFT Exchange-Correlation Energy =       0.0000000000000000
    Empirical Dispersion Energy =           0.0000000000000000
    PCM Polarization Energy =               0.0000000000000000
    EFP Energy =                            0.0000000000000000
    Total Energy =                       -434.3285060735149727
    Molecular point group: c1
  Basis Set: CC-PVTZ
  Basis Set:

  -Total Gradient:
     Atom            X                  Y                   Z
    ------   -----------------  -----------------  -----------------
       1        0.000005522391    -0.000004614367     0.000004899114
       2        0.001528835148    -0.000116593439    -0.002525050630
       3       -0.000023771251     0.000023172214     0.000014545662
       4       -0.002102751180     0.000134261639     0.002337758346
       5       -0.000001425163     0.000003389002     0.000003703748
       6        0.000010349810     0.000002868634     0.000024613359
       7        0.000534892522     0.000282889389     0.003515361899
       8       -0.000014439495     0.000027421222     0.000001046505
       9        0.000002230824     0.000000607217    -0.000004990868
      10        0.000009967286    -0.000010729350    -0.000022489759
      11        0.000204856672    -0.000301517859    -0.003341238375
      12       -0.000156186092    -0.000050500167    -0.000015534568
      13        0.000001524330     0.000003773384     0.000004960774
      14        0.000000394201     0.000005572486     0.000002414793

  **** Optimization is complete! (in 7 steps) ****
    Final optimized geometry and variables:
    Molecular point group: c1

    Geometry (in Angstrom), charge = 0, multiplicity = 1:

    H           -1.831312037496     0.073277917577    -1.069623520088
    C           -1.047277175788    -0.480958476038    -0.598039804515
    C           -1.044922313209    -1.861410247915    -0.586662109732
    C           -0.009436264290     0.180613700326     0.019908998593
    H           -1.838617840668    -2.397710198667    -1.068287801788
    C           -0.023491957595    -2.547729340810     0.043999702315
    N            0.016572989155     1.641767458730    -0.026706603661
    C            1.030661502324    -0.481047917403     0.634489692293
    H           -0.030256575862    -3.620544148753     0.055565970758
    C            1.009153880802    -1.860847743011     0.656268065232
    O            1.078318125613     2.169333520531    -0.008661629471
    O           -1.024310173382     2.204574362002    -0.104485194899
    H            1.828675185419     0.073014521952     1.082333669309
    H            1.799894228996    -2.396848445882     1.143066089007

  Mulliken Charges: (a.u.)
   Center  Symbol    Alpha    Beta     Spin     Total
       1     H     0.40270  0.40270  0.00000  0.19459
       2     C     3.08222  3.08222  0.00000 -0.16444
       3     C     3.07142  3.07142  0.00000 -0.14285
       4     C     2.95904  2.95904  0.00000  0.08193
       5     H     0.41699  0.41699  0.00000  0.16601
       6     C     3.06635  3.06635  0.00000 -0.13271
       7     N     3.26428  3.26428  0.00000  0.47144
       8     C     3.08077  3.08077  0.00000 -0.16153
       9     H     0.41723  0.41723  0.00000  0.16554
      10     C     3.07115  3.07115  0.00000 -0.14231
      11     O     4.17305  4.17305  0.00000 -0.34610
      12     O     4.17415  4.17415  0.00000 -0.34830
      13     H     0.40360  0.40360  0.00000  0.19281
      14     H     0.41704  0.41704  0.00000  0.16592

   Total alpha = 32.00000, Total beta = 32.00000, Total charge = -0.00000

*** Psi4 exiting successfully. Buy a developer a beer!
