  ==> Input File <==

--------------------------------------------------------------------------
set {
	reference rhf
	basis 6-31G*
}

set_num_threads( 4 )
memory 2 gb

molecule MOL {
0 1

H	 2.332609	 0.878551	 -1.051851
C	 2.357710	 0.000000	 -0.417167
C	 1.175432	 0.000000	 0.532082
H	 3.291263	 0.000000	 0.136880
H	 2.332609	 -0.878551	 -1.051851
O	 0.000000	 0.000000	 -0.221444
H	 1.206604	 0.877321	 1.177902
H	 1.206604	 -0.877321	 1.177902
C	 -1.175432	 0.000000	 0.532082
C	 -0.857882	 0.514735	 1.922429
H	 -1.586856	 -1.007822	 0.584744
H	 -1.926010	 0.630424	 0.055694
H	 -0.119501	 -0.119022	 2.400396
H	 -1.752410	 0.528128	 2.537350
H	 -0.459131	 1.521521	 1.870604

	symmetry c1
}
set optking {
	frozen_dihedral = ("
		11 9 6 3
	")
}

ee = optimize('scf')
oeprop('DIPOLE', 'QUADRUPOLE', 'MULLIKEN_CHARGES')
f=open( 'psi4out.xyz', 'w' )
f.write( "15  " )
f.write( str(ee) + "\n" )
f.write( MOL.save_string_xyz() )
f.close()
--------------------------------------------------------------------------

    Molecular point group: c1
  Charge       = 0
  Multiplicity = 1
  Basis Set: 6-31G*
  Basis Set:
  @DF-RHF Final Energy:  -232.12137635250198
    Total Energy =                       -232.1213763525018976
    Molecular point group: c1
  Basis Set: 6-31G*
  Basis Set:
  Basis Set: 6-31G*
  Basis Set:
  @DF-RHF Final Energy:  -232.12375237069818
    Total Energy =                       -232.1237523706981847
  Basis Set: 6-31G*
  Basis Set:
  Basis Set: 6-31G*
  Basis Set:
  @DF-RHF Final Energy:  -232.13147179081773
    Total Energy =                       -232.1314717908176704
  Basis Set: 6-31G*
  Basis Set:
  Basis Set: 6-31G*
  Basis Set:
  @DF-RHF Final Energy:  -232.13482191920235
    Total Energy =                       -232.1348219192024089
  Basis Set: 6-31G*
  Basis Set:
  @DF-RHF Final Energy:  -232.13544635082826
    Total Energy =                       -232.1354463508282038
  Basis Set: 6-31G*
  Basis Set:
  @DF-RHF Final Energy:  -232.13598163851859
    Total Energy =                       -232.1359816385185013
  Basis Set: 6-31G*
  Basis Set:
  Basis Set: 6-31G*
  Basis Set:
  @DF-RHF Final Energy:  -232.13608284460832
    Total Energy =                       -232.1360828446083246
  Basis Set: 6-31G*
  Basis Set:
  Basis Set: 6-31G*
  Basis Set:
  @DF-RHF Final Energy:  -232.13608438559362
    Total Energy =                       -232.1360843855936196
  Basis Set: 6-31G*
  Basis Set:
  Charge       = 0
  Multiplicity = 1
  Basis Set: 6-31G*
  Basis Set:

    Orbital Energies (a.u.)
    -----------------------

    Doubly Occupied:

       1A    -20.546135     2A    -11.268352     3A    -11.266905
       4A    -11.217459     5A    -11.206842     6A     -1.368522
       7A     -1.040156     8A     -0.991020     9A     -0.871534
      10A     -0.797667    11A     -0.673167    12A     -0.660406
      13A     -0.618972    14A     -0.597223    15A     -0.548325
      16A     -0.535345    17A     -0.523531    18A     -0.503318
      19A     -0.496788    20A     -0.450149    21A     -0.401117

  @DF-RHF Final Energy:  -232.13608431948393

   => Energetics <=

    Nuclear Repulsion Energy =            193.0936400984552961
    One-Electron Energy =                -697.2935852146925981
    Two-Electron Energy =                 272.0638607967534313
    DFT Exchange-Correlation Energy =       0.0000000000000000
    Empirical Dispersion Energy =           0.0000000000000000
    PCM Polarization Energy =               0.0000000000000000
    EFP Energy =                            0.0000000000000000
    Total Energy =                       -232.1360843194838708
    Molecular point group: c1
  Basis Set: 6-31G*
  Basis Set:

  -Total Gradient:
     Atom            X                  Y                   Z
    ------   -----------------  -----------------  -----------------
       1       -0.000001223882    -0.000000884840     0.000002229151
       2       -0.000004719085    -0.000006274725    -0.000002663388
       3        0.000013232492     0.004190497117     0.000205274717
       4       -0.000003249714     0.000000013202     0.000002160755
       5        0.000001380067    -0.000001691444    -0.000003668381
       6       -0.000759859104    -0.005914287773    -0.001390094075
       7       -0.000000883164     0.000007409326     0.000020302164
       8       -0.000003448932     0.000000823920    -0.000007304054
       9        0.003507401997     0.000579010896     0.005351927754
      10       -0.000046730232     0.000057860757    -0.000015359853
      11       -0.002690790062     0.001141653570    -0.004138800414
      12       -0.000008342990    -0.000052152540    -0.000024479884
      13        0.000005236961    -0.000002870296    -0.000009777936
      14       -0.000008578478     0.000002040972     0.000010036563
      15        0.000000574124    -0.000001148141     0.000000216880

  **** Optimization is complete! (in 9 steps) ****
    Final optimized geometry and variables:
    Molecular point group: c1

    Geometry (in Angstrom), charge = 0, multiplicity = 1:

    H            2.008113081804     0.747857620579    -1.654079307381
    C            2.071759456401    -0.139968023664    -1.035063676216
    C            0.984379062437    -0.123208585157     0.022415582424
    H            3.053443557960    -0.169856664214    -0.571854106516
    H            1.964049847311    -1.008229946776    -1.675114191133
    O           -0.246652727857    -0.077045695599    -0.638194215030
    H            1.111737147450     0.738495863273     0.671330605684
    H            1.057900827618    -1.014373318035     0.644809657513
    C           -1.439156117069    -0.100449100074     0.104695706250
    C           -1.377771088325     0.432855782100     1.529988284336
    H           -1.843734619894    -1.110669869433     0.089411174171
    H           -2.139105016761     0.505831569804    -0.459738025090
    H           -0.739243393047    -0.162291887676     2.172801297177
    H           -2.378329954064     0.412187154374     1.950811165406
    H           -1.028521824191     1.459509956534     1.553752190585

  Mulliken Charges: (a.u.)
   Center  Symbol    Alpha    Beta     Spin     Total
       1     H     0.41388  0.41388  0.00000  0.17225
       2     C     3.24238  3.24238  0.00000 -0.48475
       3     C     2.98729  2.98729  0.00000  0.02543
       4     H     0.42370  0.42370  0.00000  0.15261
       5     H     0.41385  0.41385  0.00000  0.17229
       6     O     4.31748  4.31748  0.00000 -0.63497
       7     H     0.43001  0.43001  0.00000  0.13997
       8     H     0.43346  0.43346  0.00000  0.13308
       9     C     2.97805  2.97805  0.00000  0.04391
      10     C     3.26711  3.26711  0.00000 -0.53422
      11     H     0.42864  0.42864  0.00000  0.14272
      12     H     0.41966  0.41966  0.00000  0.16068
      13     H     0.41592  0.41592  0.00000  0.16816
      14     H     0.41476  0.41476  0.00000  0.17048
      15     H     0.41382  0.41382  0.00000  0.17236

   Total alpha = 21.00000, Total beta = 21.00000, Total charge =  0.00000
