  ==> Input File <==

--------------------------------------------------------------------------
set {
	reference rhf
	basis 6-31G*
}

set_num_threads( 4 )
memory 2 gb

molecule MOL {
0 1

H	 -2.965677	 -0.281496	 -1.549769
O	 -3.452007	 0.283848	 -0.965577
C	 -3.181085	 -0.079926	 0.364119
C	 -1.765924	 0.277073	 0.805136
H	 -3.327791	 -1.152017	 0.410903
H	 -3.905698	 0.375695	 1.036898
C	 -0.677594	 -0.417312	 -0.014550
H	 -1.637766	 1.358238	 0.744969
H	 -1.659588	 0.017670	 1.857098
C	 0.738335	 -0.034840	 0.421385
H	 -0.814977	 -0.178223	 -1.064632
H	 -0.802730	 -1.495410	 0.071702
C	 1.822265	 -0.738362	 -0.399735
H	 0.853533	 1.043532	 0.342250
H	 0.871597	 -0.279636	 1.474438
C	 3.258060	 -0.455774	 0.057203
H	 1.718003	 -0.459167	 -1.447053
H	 1.651028	 -1.811884	 -0.354513
C	 3.709143	 0.994797	 -0.123830
H	 3.930637	 -1.101717	 -0.501982
H	 3.365259	 -0.739518	 1.102287
H	 3.601178	 1.310569	 -1.158127
H	 4.753787	 1.110486	 0.148516
H	 3.135362	 1.678896	 0.492569

	symmetry c1
}
set optking {
	frozen_dihedral = ("
		1 2 3 5
	")
}

ee = optimize('scf')
oeprop('DIPOLE', 'QUADRUPOLE', 'MULLIKEN_CHARGES')
f=open( 'psi4out.xyz', 'w' )
f.write( "24  " )
f.write( str(ee) + "\n" )
f.write( MOL.save_string_xyz() )
f.close()
--------------------------------------------------------------------------

    Molecular point group: c1
  Charge       = 0
  Multiplicity = 1
  Basis Set: 6-31G*
  Basis Set:
  @DF-RHF Final Energy:  -349.24520409089092
    Total Energy =                       -349.2452040908910931
    Molecular point group: c1
  Basis Set: 6-31G*
  Basis Set:
  Basis Set: 6-31G*
  Basis Set:
  @DF-RHF Final Energy:  -349.24665609442530
    Total Energy =                       -349.2466560944254752
  Basis Set: 6-31G*
  Basis Set:
  Basis Set: 6-31G*
  Basis Set:
  @DF-RHF Final Energy:  -349.24717424600203
    Total Energy =                       -349.2471742460015776
  Basis Set: 6-31G*
  Basis Set:
  Basis Set: 6-31G*
  Basis Set:
  @DF-RHF Final Energy:  -349.24717780819134
    Total Energy =                       -349.2471778081915659
  Basis Set: 6-31G*
  Basis Set:
  @DF-RHF Final Energy:  -349.24718083009941
    Total Energy =                       -349.2471808300993530
  Basis Set: 6-31G*
  Basis Set:
  @DF-RHF Final Energy:  -349.24718271569986
    Total Energy =                       -349.2471827156997506
  Basis Set: 6-31G*
  Basis Set:
  Basis Set: 6-31G*
  Basis Set:
  @DF-RHF Final Energy:  -349.24718044592089
    Total Energy =                       -349.2471804459206055
  Basis Set: 6-31G*
  Basis Set:
  Basis Set: 6-31G*
  Basis Set:
  @DF-RHF Final Energy:  -349.24718307131531
    Total Energy =                       -349.2471830713151348
  Basis Set: 6-31G*
  Basis Set:
  Charge       = 0
  Multiplicity = 1
  Basis Set: 6-31G*
  Basis Set:

    Orbital Energies (a.u.)
    -----------------------

    Doubly Occupied:

       1A    -20.552275     2A    -11.267164     3A    -11.220205
       4A    -11.216818     5A    -11.216583     6A    -11.215559
       7A    -11.215169     8A    -11.209085     9A     -1.359055
      10A     -1.092486    11A     -1.050394    12A     -0.987751
      13A     -0.918970    14A     -0.852909    15A     -0.796846
      16A     -0.780196    17A     -0.694946    18A     -0.651078
      19A     -0.628057    20A     -0.608539    21A     -0.603378
      22A     -0.586477    23A     -0.561981    24A     -0.537733
      25A     -0.523064    26A     -0.512164    27A     -0.494600
      28A     -0.480693    29A     -0.476002    30A     -0.462142
      31A     -0.457648    32A     -0.446311    33A     -0.422068

  @DF-RHF Final Energy:  -349.24718305610548

   => Energetics <=

    Nuclear Repulsion Energy =            384.4440521232575634
    One-Electron Energy =               -1235.1857776975364231
    Two-Electron Energy =                 501.4945425181736596
    DFT Exchange-Correlation Energy =       0.0000000000000000
    Empirical Dispersion Energy =           0.0000000000000000
    PCM Polarization Energy =               0.0000000000000000
    EFP Energy =                            0.0000000000000000
    Total Energy =                       -349.2471830561052570
    Molecular point group: c1
  Basis Set: 6-31G*
  Basis Set:

  -Total Gradient:
     Atom            X                  Y                   Z
    ------   -----------------  -----------------  -----------------
       1       -0.000109862665    -0.000092134848     0.000008142433
       2        0.000170915165     0.000106305468     0.000010431766
       3       -0.000172175338    -0.000010292104     0.000046949648
       4        0.000005206069     0.000020938359    -0.000019826704
       5        0.000112920466    -0.000023507800    -0.000047147072
       6       -0.000000846500     0.000002041432    -0.000006281819
       7       -0.000003951581     0.000003506393    -0.000005790967
       8        0.000008371733     0.000004390816    -0.000000271852
       9       -0.000005036906    -0.000002159632    -0.000004352110
      10        0.000000580242    -0.000004966472     0.000014655400
      11       -0.000004558929     0.000000025271     0.000000925886
      12        0.000000540800    -0.000001298749     0.000003427221
      13       -0.000000100725    -0.000001075825    -0.000003417564
      14        0.000003136319     0.000002604118     0.000003240259
      15        0.000000294274    -0.000002659645     0.000002492428
      16        0.000000120462     0.000004034853    -0.000005558760
      17       -0.000001878719    -0.000004694575    -0.000001477589
      18        0.000003954816    -0.000000054053     0.000003571055
      19       -0.000001288647    -0.000001383636     0.000000411469
      20        0.000000686997     0.000001009753    -0.000001100930
      21       -0.000002132948    -0.000000486511    -0.000001159450
      22       -0.000000916669    -0.000000548341     0.000000573255
      23        0.000000578895     0.000000118086    -0.000000271084
      24       -0.000004556598     0.000000287642     0.000001835082

  **** Optimization is complete! (in 9 steps) ****
    Final optimized geometry and variables:
    Molecular point group: c1

    Geometry (in Angstrom), charge = 0, multiplicity = 1:

    H           -3.070883408946    -0.298737302844    -1.541686246977
    O           -3.510457119262     0.276173606358    -0.932299594985
    C           -3.180461103440    -0.087901361991     0.383971017640
    C           -1.762489384791     0.310459185351     0.778087419700
    H           -3.323345182280    -1.157811883064     0.530793935752
    H           -3.893761425538     0.421983461304     1.018693579814
    C           -0.671857339288    -0.392763747086    -0.032788292922
    H           -1.663203199298     1.387079424189     0.667383916360
    H           -1.628236681615     0.086243729238     1.835060681197
    C            0.743560152412    -0.021981146425     0.415292866319
    H           -0.783078727660    -0.140951171352    -1.085568474592
    H           -0.801683507947    -1.471970086844     0.044898209413
    C            1.830707005669    -0.716001249123    -0.409465219486
    H            0.859797221265     1.056740940298     0.353224097896
    H            0.867202112604    -0.283973966182     1.464987118771
    C            3.263828515055    -0.443765069151     0.061927992103
    H            1.735119555209    -0.419790408415    -1.453030661331
    H            1.656938501649    -1.789936996764    -0.382025794982
    C            3.718587763853     1.008635422023    -0.092862641603
    H            3.938711595997    -1.082308565454    -0.502787811755
    H            3.362769703180    -0.744499856138     1.103005644171
    H            3.618611207032     1.341129730195    -1.122654732917
    H            4.761453264044     1.117597154520     0.188625534838
    H            3.141853356569     1.683958460155     0.530270762197

  Mulliken Charges: (a.u.)
   Center  Symbol    Alpha    Beta     Spin     Total
       1     H     0.27985  0.27985  0.00000  0.44030
       2     O     4.37089  4.37089  0.00000 -0.74178
       3     C     2.99777  2.99777  0.00000  0.00447
       4     C     3.16070  3.16070  0.00000 -0.32140
       5     H     0.43200  0.43200  0.00000  0.13600
       6     H     0.41442  0.41442  0.00000  0.17116
       7     C     3.16129  3.16129  0.00000 -0.32259
       8     H     0.41507  0.41507  0.00000  0.16985
       9     H     0.42433  0.42433  0.00000  0.15133
      10     C     3.15253  3.15253  0.00000 -0.30507
      11     H     0.42464  0.42464  0.00000  0.15073
      12     H     0.42517  0.42517  0.00000  0.14965
      13     C     3.15272  3.15272  0.00000 -0.30545
      14     H     0.41928  0.41928  0.00000  0.16143
      15     H     0.42361  0.42361  0.00000  0.15277
      16     C     3.15249  3.15249  0.00000 -0.30498
      17     H     0.42414  0.42414  0.00000  0.15171
      18     H     0.42286  0.42286  0.00000  0.15429
      19     C     3.24135  3.24135  0.00000 -0.48270
      20     H     0.42084  0.42084  0.00000  0.15831
      21     H     0.42326  0.42326  0.00000  0.15348
      22     H     0.42199  0.42199  0.00000  0.15601
      23     H     0.41902  0.41902  0.00000  0.16195
      24     H     0.41975  0.41975  0.00000  0.16050

   Total alpha = 33.00000, Total beta = 33.00000, Total charge =  0.00000
