  ==> Input File <==

--------------------------------------------------------------------------
set {
	reference rhf
	basis cc-pvtz
}

set_num_threads( 4 )
memory 2 gb

molecule MOL {
0 1

H	 0.624670	 1.327178	 -0.907570
O	 0.057669	 1.301365	 -0.158528
C	 0.004145	 -0.005141	 0.363049
C	 1.199168	 -0.827145	 -0.096690
C	 -1.316386	 -0.602081	 -0.083515
H	 0.012026	 0.043363	 1.450619
H	 1.216685	 -0.896776	 -1.178167
H	 2.129940	 -0.372354	 0.228035
H	 1.160783	 -1.829622	 0.314294
H	 -1.357882	 -0.655920	 -1.165207
H	 -2.140147	 0.011735	 0.257253
H	 -1.440790	 -1.601175	 0.317669

	symmetry c1
}
set optking {
	frozen_dihedral = ("
		1 2 3 4
	")
}

ee = optimize('scf')
oeprop('DIPOLE', 'QUADRUPOLE', 'MULLIKEN_CHARGES')
f=open( 'psi4out.xyz', 'w' )
f.write( "12  " )
f.write( str(ee) + "\n" )
f.write( MOL.save_string_xyz() )
f.close()
--------------------------------------------------------------------------

    Molecular point group: c1
  Charge       = 0
  Multiplicity = 1
  Basis Set: CC-PVTZ
  Basis Set:
  @DF-RHF Final Energy:  -193.19317165431875
    Total Energy =                       -193.1931716543186326
    Molecular point group: c1
  Basis Set: CC-PVTZ
  Basis Set:
  Basis Set: CC-PVTZ
  Basis Set:
  @DF-RHF Final Energy:  -193.19391044078444
    Total Energy =                       -193.1939104407843502
  Basis Set: CC-PVTZ
  Basis Set:
  Basis Set: CC-PVTZ
  Basis Set:
  @DF-RHF Final Energy:  -193.19416639457529
    Total Energy =                       -193.1941663945752339
  Basis Set: CC-PVTZ
  Basis Set:
  Basis Set: CC-PVTZ
  Basis Set:
  @DF-RHF Final Energy:  -193.19416769317823
    Total Energy =                       -193.1941676931782013
  Basis Set: CC-PVTZ
  Basis Set:
  Charge       = 0
  Multiplicity = 1
  Basis Set: CC-PVTZ
  Basis Set:

    Orbital Energies (a.u.)
    -----------------------

    Doubly Occupied:

       1A    -20.542407     2A    -11.274102     3A    -11.217215
       4A    -11.205510     5A     -1.363084     6A     -1.043877
       7A     -0.943006     8A     -0.817104     9A     -0.664992
      10A     -0.651296    11A     -0.607255    12A     -0.563778
      13A     -0.545889    14A     -0.517218    15A     -0.514626
      16A     -0.467384    17A     -0.431893

  @DF-RHF Final Energy:  -193.19416776904077

   => Energetics <=

    Nuclear Repulsion Energy =            135.6243783996445984
    One-Electron Energy =                -530.8958167962169910
    Two-Electron Energy =                 202.0772706275317319
    DFT Exchange-Correlation Energy =       0.0000000000000000
    Empirical Dispersion Energy =           0.0000000000000000
    PCM Polarization Energy =               0.0000000000000000
    EFP Energy =                            0.0000000000000000
    Total Energy =                       -193.1941677690406891
    Molecular point group: c1
  Basis Set: CC-PVTZ
  Basis Set:

  -Total Gradient:
     Atom            X                  Y                   Z
    ------   -----------------  -----------------  -----------------
       1        0.000920351949     0.000208550491     0.000754158904
       2       -0.001285527683    -0.000334827113    -0.001173199929
       3        0.000729681731     0.000316867445     0.001033934585
       4       -0.000369200839    -0.000186400584    -0.000618846646
       5       -0.000003405662     0.000006742654    -0.000001143639
       6        0.000002145539    -0.000004083096    -0.000002118986
       7       -0.000001183837     0.000000757660     0.000007968258
       8        0.000000740266    -0.000001402700    -0.000006118235
       9       -0.000000871609    -0.000006161190     0.000002950517
      10        0.000002675776     0.000001932408     0.000003148847
      11        0.000004242290     0.000000517786    -0.000001885761
      12        0.000000352079    -0.000002493758     0.000001152084

  **** Optimization is complete! (in 5 steps) ****
    Final optimized geometry and variables:
    Molecular point group: c1

    Geometry (in Angstrom), charge = 0, multiplicity = 1:

    H            0.668433607839     1.379204808285    -0.846850823835
    O            0.082191320842     1.326905285042    -0.115319912041
    C           -0.000031227700     0.001799564996     0.359724988856
    C            1.195101113693    -0.822662693636    -0.091261110275
    C           -1.322085261781    -0.616138604406    -0.068075276380
    H            0.015323171071     0.071006586577     1.441984660770
    H            1.214885267316    -0.909284569499    -1.174383352707
    H            2.122045424405    -0.363949721366     0.233435397092
    H            1.151602343957    -1.823901859389     0.319673693926
    H           -1.368259190990    -0.712185971528    -1.147949714005
    H           -2.145292890491     0.010899334849     0.249399529787
    H           -1.450823319954    -1.600604939445     0.368908542090

  Mulliken Charges: (a.u.)
   Center  Symbol    Alpha    Beta     Spin     Total
       1     H     0.39286  0.39286  0.00000  0.21427
       2     O     4.21086  4.21086  0.00000 -0.42173
       3     C     2.92225  2.92225  0.00000  0.15551
       4     C     3.15766  3.15766  0.00000 -0.31532
       5     C     3.13803  3.13803  0.00000 -0.27606
       6     H     0.45683  0.45683  0.00000  0.08634
       7     H     0.45808  0.45808  0.00000  0.08383
       8     H     0.44518  0.44518  0.00000  0.10964
       9     H     0.45161  0.45161  0.00000  0.09678
      10     H     0.46052  0.46052  0.00000  0.07897
      11     H     0.44651  0.44651  0.00000  0.10697
      12     H     0.45960  0.45960  0.00000  0.08079

   Total alpha = 17.00000, Total beta = 17.00000, Total charge =  0.00000
