  ==> Input File <==

--------------------------------------------------------------------------
set {
	reference rhf
	basis cc-pvtz
}

set_num_threads( 4 )
memory 2 gb

molecule MOL {
0 1

H	 -3.436473	 1.252944	 -1.023892
O	 -3.458596	 0.315260	 -0.960865
C	 -3.176635	 -0.080824	 0.355601
C	 -1.763371	 0.265266	 0.799691
H	 -3.321825	 -1.153438	 0.379502
H	 -3.895468	 0.357385	 1.043382
C	 -0.673390	 -0.426948	 -0.013392
H	 -1.631049	 1.344913	 0.747560
H	 -1.664587	 -0.001624	 1.849167
C	 0.737842	 -0.043159	 0.423759
H	 -0.806103	 -0.190518	 -1.063345
H	 -0.797221	 -1.503753	 0.074146
C	 1.824000	 -0.743224	 -0.390623
H	 0.850588	 1.033777	 0.343840
H	 0.868587	 -0.286314	 1.476203
C	 3.255957	 -0.453067	 0.062319
H	 1.718250	 -0.470599	 -1.438164
H	 1.658105	 -1.815850	 -0.339904
C	 3.787982	 -1.395130	 1.139636
H	 3.296627	 0.564061	 0.439907
H	 3.917359	 -0.481866	 -0.799735
H	 3.142887	 -1.391777	 2.012515
H	 4.777941	 -1.091721	 1.460830
H	 3.860295	 -2.416574	 0.786044

	symmetry c1
}
set optking {
	frozen_dihedral = ("
		20 16 13 17
	")
}

ee = optimize('scf')
oeprop('DIPOLE', 'QUADRUPOLE', 'MULLIKEN_CHARGES')
f=open( 'psi4out.xyz', 'w' )
f.write( "24  " )
f.write( str(ee) + "\n" )
f.write( MOL.save_string_xyz() )
f.close()
--------------------------------------------------------------------------

    Molecular point group: c1
  Charge       = 0
  Multiplicity = 1
  Basis Set: CC-PVTZ
  Basis Set:
  @DF-RHF Final Energy:  -349.37864684632740
    Total Energy =                       -349.3786468463275696
    Molecular point group: c1
  Basis Set: CC-PVTZ
  Basis Set:
  Basis Set: CC-PVTZ
  Basis Set:
  @DF-RHF Final Energy:  -349.37892916616647
    Total Energy =                       -349.3789291661665288
  Basis Set: CC-PVTZ
  Basis Set:
  Basis Set: CC-PVTZ
  Basis Set:
  @DF-RHF Final Energy:  -349.37895116826724
    Total Energy =                       -349.3789511682665534
  Basis Set: CC-PVTZ
  Basis Set:
  Basis Set: CC-PVTZ
  Basis Set:
  @DF-RHF Final Energy:  -349.37895240729955
    Total Energy =                       -349.3789524073000621
  Basis Set: CC-PVTZ
  Basis Set:
  Basis Set: CC-PVTZ
  Basis Set:
  @DF-RHF Final Energy:  -349.37895380874807
    Total Energy =                       -349.3789538087480651
  Basis Set: CC-PVTZ
  Basis Set:
  Charge       = 0
  Multiplicity = 1
  Basis Set: CC-PVTZ
  Basis Set:

    Orbital Energies (a.u.)
    -----------------------

    Doubly Occupied:

       1A    -20.546347     2A    -11.265601     3A    -11.215323
       4A    -11.211794     5A    -11.210912     6A    -11.209150
       7A    -11.209031     8A    -11.205423     9A     -1.364207
      10A     -1.089676    11A     -1.049332    12A     -0.987484
      13A     -0.914997    14A     -0.847821    15A     -0.800502
      16A     -0.782628    17A     -0.681779    18A     -0.655092
      19A     -0.625826    20A     -0.619055    21A     -0.600108
      22A     -0.585197    23A     -0.559053    24A     -0.537939
      25A     -0.517878    26A     -0.514281    27A     -0.494684
      28A     -0.472279    29A     -0.468489    30A     -0.461101
      31A     -0.457757    32A     -0.451544    33A     -0.421023

  @DF-RHF Final Energy:  -349.37895381698348

   => Energetics <=

    Nuclear Repulsion Energy =            383.7236379859221529
    One-Electron Energy =               -1234.1385594719122309
    Two-Electron Energy =                 501.0359676690069364
    DFT Exchange-Correlation Energy =       0.0000000000000000
    Empirical Dispersion Energy =           0.0000000000000000
    PCM Polarization Energy =               0.0000000000000000
    EFP Energy =                            0.0000000000000000
    Total Energy =                       -349.3789538169831985
    Molecular point group: c1
  Basis Set: CC-PVTZ
  Basis Set:

  -Total Gradient:
     Atom            X                  Y                   Z
    ------   -----------------  -----------------  -----------------
       1        0.000000257649     0.000000076796    -0.000000328543
       2        0.000000906286     0.000000156260    -0.000000407149
       3       -0.000000666604     0.000000072076     0.000000295590
       4        0.000001272348    -0.000001361085     0.000000301691
       5        0.000000243259     0.000000053210     0.000000593127
       6       -0.000000230622     0.000000443636    -0.000000330439
       7       -0.000001147261    -0.000001224157     0.000001632077
       8       -0.000000415090    -0.000000279884     0.000000128912
       9       -0.000000079399     0.000000029521     0.000000415867
      10       -0.000000045360     0.000000680851    -0.000002172571
      11        0.000001516129     0.000000457859    -0.000000356348
      12       -0.000000760034    -0.000000175310    -0.000000116473
      13       -0.001251056741     0.003243073107     0.001669127839
      14        0.000001871875     0.000000259825     0.000001166825
      15       -0.000002789839    -0.000001060933     0.000001057187
      16        0.001055637676     0.000581877357    -0.003644732335
      17        0.000880299573    -0.002814809460    -0.000817112892
      18       -0.000004223860     0.000002112577    -0.000000404324
      19       -0.000006167922     0.000008810768    -0.000000869309
      20       -0.000674402795    -0.001024981215     0.002796795508
      21        0.000001667308     0.000000805242    -0.000003203009
      22       -0.000003141059    -0.000002389476     0.000003136068
      23       -0.000001854177     0.000003543305    -0.000001048535
      24        0.000003308655     0.000003829130    -0.000003568764

  **** Optimization is complete! (in 6 steps) ****
    Final optimized geometry and variables:
    Molecular point group: c1

    Geometry (in Angstrom), charge = 0, multiplicity = 1:

    H           -3.441069264760     1.562811244249    -1.179771315695
    O           -3.466954849218     0.625233414659    -1.116839054530
    C           -3.182225061656     0.227875497628     0.198540906596
    C           -1.765829216220     0.567601304534     0.637611435159
    H           -3.332134224414    -0.844089916630     0.222561133557
    H           -3.896749204656     0.669063271215     0.888908824295
    C           -0.681795388689    -0.127327286556    -0.181131891616
    H           -1.629354654415     1.646785920304     0.586883835294
    H           -1.663971647474     0.298435129087     1.686215150885
    C            0.732274444867     0.247953294002     0.252452863523
    H           -0.816609298478     0.112697707536    -1.230024319179
    H           -0.810296248106    -1.203791952409    -0.096202339009
    C            1.817873628042    -0.439434835489    -0.571488712385
    H            0.857805850002     1.325313940117     0.174297788941
    H            0.862729415586     0.003399336294     1.303794648063
    C            3.247751329217    -0.127464341567    -0.108781737538
    H            1.704961040033    -0.171283930845    -1.617662375869
    H            1.663561459282    -1.515514949870    -0.535999851460
    C            3.751194002270    -1.070007014315     0.983297001707
    H            3.288269996186     0.888780019619     0.273083161002
    H            3.926324739511    -0.174238227093    -0.953278820630
    H            3.102268359053    -1.054561350884     1.852307691034
    H            4.745961493036    -0.791586040287     1.312677766477
    H            3.795627797842    -2.092645830468     0.624040768326

  Mulliken Charges: (a.u.)
   Center  Symbol    Alpha    Beta     Spin     Total
       1     H     0.39531  0.39531  0.00000  0.20937
       2     O     4.20368  4.20368  0.00000 -0.40736
       3     C     2.97768  2.97768  0.00000  0.04464
       4     C     3.10196  3.10196  0.00000 -0.20392
       5     H     0.45886  0.45886  0.00000  0.08229
       6     H     0.46027  0.46027  0.00000  0.07946
       7     C     3.08813  3.08813  0.00000 -0.17626
       8     H     0.45909  0.45909  0.00000  0.08182
       9     H     0.45341  0.45341  0.00000  0.09319
      10     C     3.08958  3.08958  0.00000 -0.17916
      11     H     0.44620  0.44620  0.00000  0.10760
      12     H     0.45488  0.45488  0.00000  0.09025
      13     C     3.09428  3.09428  0.00000 -0.18856
      14     H     0.45482  0.45482  0.00000  0.09035
      15     H     0.45527  0.45527  0.00000  0.08947
      16     C     3.09071  3.09071  0.00000 -0.18143
      17     H     0.44776  0.44776  0.00000  0.10449
      18     H     0.45642  0.45642  0.00000  0.08715
      19     C     3.14800  3.14800  0.00000 -0.29600
      20     H     0.45650  0.45650  0.00000  0.08701
      21     H     0.44758  0.44758  0.00000  0.10484
      22     H     0.45573  0.45573  0.00000  0.08853
      23     H     0.44869  0.44869  0.00000  0.10262
      24     H     0.45520  0.45520  0.00000  0.08961

   Total alpha = 33.00000, Total beta = 33.00000, Total charge = -0.00000
