  ==> Input File <==

--------------------------------------------------------------------------
set {
	reference rhf
	basis cc-pvtz
}

set_num_threads( 4 )
memory 2 gb

molecule MOL {
0 1

H	 2.739147	 0.852510	 -2.257342
O	 1.817102	 0.710121	 -2.371291
C	 1.186133	 0.612682	 -1.184762
C	 1.859568	 0.716679	 0.022860
C	 -0.177506	 0.402098	 -1.197529
H	 2.921854	 0.880725	 0.030962
C	 1.169093	 0.610050	 1.213167
H	 -0.700480	 0.321336	 -2.128560
C	 -0.861704	 0.296439	 0.000000
H	 1.700650	 0.692137	 2.141354
C	 -0.195100	 0.399381	 1.209076
C	 -2.330689	 0.069587	 0.000000
H	 -0.734706	 0.316051	 2.133073
O	 -2.848621	 -0.993976	 0.000000
H	 -2.934306	 0.982410	 0.000000

	symmetry c1
}
set optking {
	frozen_dihedral = ("
		11 9 12 14
	")
}

ee = optimize('scf')
oeprop('DIPOLE', 'QUADRUPOLE', 'MULLIKEN_CHARGES')
f=open( 'psi4out.xyz', 'w' )
f.write( "15  " )
f.write( str(ee) + "\n" )
f.write( MOL.save_string_xyz() )
f.close()
--------------------------------------------------------------------------

    Molecular point group: c1
  Charge       = 0
  Multiplicity = 1
  Basis Set: CC-PVTZ
  Basis Set:
  @DF-RHF Final Energy:  -418.42689375919809
    Total Energy =                       -418.4268937591981512
    Molecular point group: c1
  Basis Set: CC-PVTZ
  Basis Set:
  Basis Set: CC-PVTZ
  Basis Set:
  @DF-RHF Final Energy:  -418.42710647096851
    Total Energy =                       -418.4271064709680559
  Basis Set: CC-PVTZ
  Basis Set:
  Basis Set: CC-PVTZ
  Basis Set:
  @DF-RHF Final Energy:  -418.42630751409297
    Total Energy =                       -418.4263075140929686
  Basis Set: CC-PVTZ
  Basis Set:
  Basis Set: CC-PVTZ
  Basis Set:
  @DF-RHF Final Energy:  -418.42723906389136
    Total Energy =                       -418.4272390638916477
  Basis Set: CC-PVTZ
  Basis Set:
  Basis Set: CC-PVTZ
  Basis Set:
  @DF-RHF Final Energy:  -418.42724334711494
    Total Energy =                       -418.4272433471148815
  Basis Set: CC-PVTZ
  Basis Set:
  Charge       = 0
  Multiplicity = 1
  Basis Set: CC-PVTZ
  Basis Set:

    Orbital Energies (a.u.)
    -----------------------

    Doubly Occupied:

       1A    -20.596678     2A    -20.564323     3A    -11.333376
       4A    -11.312410     5A    -11.256548     6A    -11.249484
       7A    -11.238583     8A    -11.237222     9A    -11.235984
      10A     -1.428600    11A     -1.418775    12A     -1.172027
      13A     -1.050999    14A     -1.026905    15A     -0.901670
      16A     -0.845482    17A     -0.821288    18A     -0.742889
      19A     -0.703281    20A     -0.679956    21A     -0.669323
      22A     -0.643662    23A     -0.616264    24A     -0.607571
      25A     -0.587149    26A     -0.546439    27A     -0.534692
      28A     -0.515431    29A     -0.498555    30A     -0.426690
      31A     -0.357492    32A     -0.328517

  @DF-RHF Final Energy:  -418.42724393238660

   => Energetics <=

    Nuclear Repulsion Energy =            402.8256524313118803
    One-Electron Energy =               -1368.2092602716822967
    Two-Electron Energy =                 546.9563639079835866
    DFT Exchange-Correlation Energy =       0.0000000000000000
    Empirical Dispersion Energy =           0.0000000000000000
    PCM Polarization Energy =               0.0000000000000000
    EFP Energy =                            0.0000000000000000
    Total Energy =                       -418.4272439323867729
    Molecular point group: c1
  Basis Set: CC-PVTZ
  Basis Set:

  -Total Gradient:
     Atom            X                  Y                   Z
    ------   -----------------  -----------------  -----------------
       1       -0.000004754342     0.000012025440     0.000001612150
       2        0.000008996000     0.000026896306     0.000013907358
       3       -0.000094690809    -0.000123808443    -0.000077918350
       4        0.000005395209     0.000017383098     0.000141958649
       5        0.000064509181     0.000029396835    -0.000052078332
       6       -0.000002486312     0.000005072097    -0.000011630432
       7        0.000134946344     0.000026762965    -0.000093116123
       8        0.000006335499     0.000007052136    -0.000000487873
       9        0.000074700668    -0.000215102431     0.000057383704
      10       -0.000010316326    -0.000001380622     0.000008504120
      11       -0.000175989597     0.000151608802    -0.000080207401
      12       -0.000087989666     0.000019293587     0.000334866964
      13        0.000011278009     0.000004265190     0.000002350278
      14        0.000037876102     0.000038213973    -0.000240415818
      15        0.000032190045     0.000002321068    -0.000004728895

  **** Optimization is complete! (in 6 steps) ****
    Final optimized geometry and variables:
    Molecular point group: c1

    Geometry (in Angstrom), charge = 0, multiplicity = 1:

    H            2.780270453168     0.540010587843    -1.959239759604
    O            1.855195589729     0.410861347556    -2.066627132514
    C            1.237099410953     0.312903006672    -0.874942216351
    C            1.915357108172     0.418468967946     0.325387945202
    C           -0.130979310993     0.099467847472    -0.883388439294
    H            2.977009488872     0.584767721292     0.331871328145
    C            1.220678192678     0.307817812721     1.514558722071
    H           -0.637886030399     0.015506942189    -1.825004640051
    C           -0.810419860983    -0.014351588773     0.311542611457
    H            1.752107460402     0.387491919425     2.443458183060
    C           -0.142115227798     0.094522114015     1.520143924459
    C           -2.295755093644    -0.229420780370     0.296813265610
    H           -0.673992763348     0.003342518052     2.447158407843
    O           -2.808321892830    -1.292513783716     0.300096447131
    H           -2.904485401770     0.680640104200     0.282410039020

  Mulliken Charges: (a.u.)
   Center  Symbol    Alpha    Beta     Spin     Total
       1     H     0.38624  0.38624  0.00000  0.22751
       2     O     4.17142  4.17142  0.00000 -0.34283
       3     C     2.83588  2.83588  0.00000  0.32824
       4     C     3.14191  3.14191  0.00000 -0.28381
       5     C     3.13573  3.13573  0.00000 -0.27147
       6     H     0.43267  0.43267  0.00000  0.13467
       7     C     3.05278  3.05278  0.00000 -0.10556
       8     H     0.41834  0.41834  0.00000  0.16332
       9     C     2.91821  2.91821  0.00000  0.16357
      10     H     0.41973  0.41973  0.00000  0.16054
      11     C     3.12061  3.12061  0.00000 -0.24122
      12     C     2.93069  2.93069  0.00000  0.13862
      13     H     0.42327  0.42327  0.00000  0.15346
      14     O     4.15474  4.15474  0.00000 -0.30947
      15     H     0.45779  0.45779  0.00000  0.08443

   Total alpha = 32.00000, Total beta = 32.00000, Total charge = -0.00000
