                              Psi4 1.0.54 Driver

  ==> Input File <==

--------------------------------------------------------------------------
set {
	reference rhf
	basis cc-pvtz
}

set_num_threads( 4 )
memory 2 gb

molecule MOL {
0 1

H	 -3.293883	 0.569065	 -0.092876
C	 -2.245682	 0.343163	 -0.073952
C	 -1.809116	 -0.973849	 -0.047090
C	 -1.312019	 1.353186	 -0.075897
H	 -2.523207	 -1.775474	 -0.045150
C	 -0.467090	 -1.267783	 -0.022789
H	 -1.630578	 2.378264	 -0.096492
C	 0.047345	 1.073996	 -0.051570
H	 -0.119358	 -2.281843	 -0.001935
C	 0.471955	 -0.241707	 -0.024903
H	 0.748557	 1.882549	 -0.053806
O	 1.760432	 -0.625184	 0.000000
C	 2.773565	 0.334879	 0.000000
H	 2.728295	 0.960928	 -0.884150
H	 3.706387	 -0.206610	 0.000000
H	 2.728295	 0.960928	 0.884150

	symmetry c1
}
set optking {
	frozen_dihedral = ("
		10 12 13 14
	")
}

ee,wfn = optimize('scf', return_wfn=True)
oeprop( wfn, 'DIPOLE', 'QUADRUPOLE', 'MULLIKEN_CHARGES')
f=open( 'psi4out.xyz', 'w' )
f.write( "16  " )
f.write( str(ee) + "\n" )
f.write( MOL.save_string_xyz() )
f.close()
--------------------------------------------------------------------------

    Molecular point group: c1
  Charge       = 0
  Multiplicity = 1
  Basis Set: CC-PVTZ
  Basis Set:
  @DF-RHF Final Energy:  -344.70375104459720
    Total Energy =                       -344.7037510445973112
    Molecular point group: c1
  Basis Set: CC-PVTZ
  Basis Set:
  Basis Set: CC-PVTZ
  Basis Set:
  @DF-RHF Final Energy:  -344.70375386176141
    Total Energy =                       -344.7037538617615837
  Basis Set: CC-PVTZ
  Basis Set:
  Charge       = 0
  Multiplicity = 1
  Basis Set: CC-PVTZ
  Basis Set:

    Orbital Energies (a.u.)
    -----------------------

    Doubly Occupied:

       1A    -20.580697     2A    -11.293790     3A    -11.278597
       4A    -11.231227     5A    -11.229987     6A    -11.221802
       7A    -11.217963     8A    -11.216840     9A     -1.420194
      10A     -1.150943    11A     -1.025820    12A     -1.016632
      13A     -0.944436    14A     -0.834520    15A     -0.808294
      16A     -0.726442    17A     -0.667844    18A     -0.666355
      19A     -0.661199    20A     -0.619493    21A     -0.590118
      22A     -0.579375    23A     -0.528270    24A     -0.523845
      25A     -0.512491    26A     -0.478740    27A     -0.467921
      28A     -0.339782    29A     -0.309948

  @DF-RHF Final Energy:  -344.70375429279949

   => Energetics <=

    Nuclear Repulsion Energy =            348.9189657843476766
    One-Electron Energy =               -1158.9583137317154069
    Two-Electron Energy =                 465.3355936545681288
    DFT Exchange-Correlation Energy =       0.0000000000000000
    Empirical Dispersion Energy =           0.0000000000000000
    PCM Polarization Energy =               0.0000000000000000
    EFP Energy =                            0.0000000000000000
    Total Energy =                       -344.7037542927996583
    Molecular point group: c1
  Basis Set: CC-PVTZ
  Basis Set:

  -Total Gradient:
     Atom            X                  Y                   Z
    ------   -----------------  -----------------  -----------------
       1       -0.000000619609     0.000000742197    -0.000004796430
       2       -0.000000342005    -0.000017844085     0.000001542483
       3       -0.000009543501     0.000015118461     0.000006188262
       4        0.000019400612     0.000000806074     0.000003580929
       5        0.000000979878    -0.000001955292     0.000000058084
       6        0.000016125336     0.000004297387    -0.000006738266
       7        0.000000514493     0.000000073915    -0.000001718495
       8       -0.000011166481     0.000003545796    -0.000014974628
       9       -0.000001317856    -0.000000674697     0.000004513381
      10        0.000009961228    -0.000009843403    -0.000141057658
      11        0.000005539722     0.000002918716     0.000011592220
      12       -0.000035852439     0.000018968899     0.000232628589
      13        0.000147987000    -0.000166194491    -0.000195758973
      14       -0.000111884055     0.000125067574     0.000102948464
      15       -0.000022626785    -0.000015383489    -0.000004348612
      16       -0.000007155532     0.000040356438     0.000006340649

  **** Optimization is complete! (in 3 steps) ****
    Final optimized geometry and variables:
    Molecular point group: c1

    Geometry (in Angstrom), charge = 0, multiplicity = 1:

    H           -3.293954431999     0.569894384546    -0.066839538275
    C           -2.245825313631     0.343949386954    -0.044083206987
    C           -1.809460077409    -0.973163961386    -0.018219677458
    C           -1.312140841136     1.353834527555    -0.039911408076
    H           -2.523635377186    -1.774722259889    -0.020885156899
    C           -0.467621982706    -1.267251986463     0.010627142923
    H           -1.630501687671     2.379002717776    -0.059226420141
    C            0.047118894271     1.074485339688    -0.010675198306
    H           -0.119987962667    -2.281369937465     0.030662788488
    C            0.471552572049    -0.241255021203     0.014321699971
    H            0.748258817819     1.883088705484    -0.007135015685
    O            1.759821908661    -0.625283096017     0.044390601700
    C            2.773858392826     0.333863142170     0.031820225602
    H            2.729313104121     0.948265597049    -0.860416305437
    H            3.706236325095    -0.208248044697     0.040445869722
    H            2.727950937661     0.972430093127     0.907098970130

  Mulliken Charges: (a.u.)
   Center  Symbol    Alpha    Beta     Spin     Total
       1     H     0.42442  0.42442  0.00000  0.15116
       2     C     3.10099  3.10099  0.00000 -0.20199
       3     C     3.05793  3.05793  0.00000 -0.11586
       4     C     3.06155  3.06155  0.00000 -0.12310
       5     H     0.42300  0.42300  0.00000  0.15399
       6     C     3.11174  3.11174  0.00000 -0.22348
       7     H     0.42366  0.42366  0.00000  0.15268
       8     C     3.14417  3.14417  0.00000 -0.28833
       9     H     0.42101  0.42101  0.00000  0.15798
      10     C     2.84992  2.84992  0.00000  0.30017
      11     H     0.42255  0.42255  0.00000  0.15491
      12     O     4.15066  4.15066  0.00000 -0.30132
      13     C     3.04489  3.04489  0.00000 -0.08977
      14     H     0.46250  0.46250  0.00000  0.07500
      15     H     0.43871  0.43871  0.00000  0.12258
      16     H     0.46231  0.46231  0.00000  0.07537

   Total alpha = 29.00000, Total beta = 29.00000, Total charge =  0.00000

*** Psi4 exiting successfully. Buy a developer a beer!
