  ==> Input File <==

--------------------------------------------------------------------------
set {
	reference rhf
	basis cc-pvtz
}

set_num_threads( 4 )
memory 2 gb

molecule MOL {
0 1

H	 5.269878	 0.195679	 1.068175
C	 4.673900	 -0.208485	 0.258034
C	 3.190199	 -0.204714	 0.610086
H	 4.865136	 0.391893	 -0.624684
H	 5.027838	 -1.214511	 0.056939
C	 2.319208	 -0.778154	 -0.505491
H	 2.876954	 0.809861	 0.827925
H	 3.035335	 -0.782733	 1.518235
C	 2.684815	 -2.205201	 -0.901415
H	 1.279539	 -0.751434	 -0.203493
H	 2.409318	 -0.146979	 -1.384856
C	 2.309738	 -3.263498	 0.122210
H	 2.169227	 -2.476707	 -1.819140
H	 3.744547	 -2.287515	 -1.124372
C	 2.974065	 -4.621098	 -0.000112
O	 1.511316	 -3.050026	 0.976743
C	 2.627529	 -5.363332	 -1.295243
H	 2.665185	 -5.203443	 0.857389
H	 4.050446	 -4.482871	 0.059001
C	 3.233860	 -6.763211	 -1.343921
H	 1.547277	 -5.436806	 -1.386091
H	 2.973632	 -4.797009	 -2.154016
C	 2.890439	 -7.515916	 -2.624789
H	 2.887910	 -7.332421	 -0.486372
H	 4.313490	 -6.689445	 -1.246294
H	 1.817565	 -7.632789	 -2.734160
H	 3.255943	 -6.988647	 -3.499691
H	 3.332428	 -8.505337	 -2.626996

	symmetry c1
}
set optking {
	frozen_dihedral = ("
		10 6 3 2
	")
}

ee = optimize('scf')
oeprop('DIPOLE', 'QUADRUPOLE', 'MULLIKEN_CHARGES')
f=open( 'psi4out.xyz', 'w' )
f.write( "28  " )
f.write( str(ee) + "\n" )
f.write( MOL.save_string_xyz() )
f.close()
--------------------------------------------------------------------------

    Molecular point group: c1
  Charge       = 0
  Multiplicity = 1
  Basis Set: CC-PVTZ
  Basis Set:
  @DF-RHF Final Energy:  -426.31657671093694
    Total Energy =                       -426.3165767109364879
    Molecular point group: c1
  Basis Set: CC-PVTZ
  Basis Set:
  Basis Set: CC-PVTZ
  Basis Set:
  @DF-RHF Final Energy:  -426.31731983791303
    Total Energy =                       -426.3173198379129190
  Basis Set: CC-PVTZ
  Basis Set:
  Basis Set: CC-PVTZ
  Basis Set:
  @DF-RHF Final Energy:  -426.31774337451418
    Total Energy =                       -426.3177433745133840
  Basis Set: CC-PVTZ
  Basis Set:
  Basis Set: CC-PVTZ
  Basis Set:
  @DF-RHF Final Energy:  -426.31647222443780
    Total Energy =                       -426.3164722244378027
  Basis Set: CC-PVTZ
  Basis Set:
  Basis Set: CC-PVTZ
  Basis Set:
  @DF-RHF Final Energy:  -426.31777516225623
    Total Energy =                       -426.3177751622557707
  Basis Set: CC-PVTZ
  Basis Set:
  Basis Set: CC-PVTZ
  Basis Set:
  @DF-RHF Final Energy:  -426.31781415289231
    Total Energy =                       -426.3178141528918559
  Basis Set: CC-PVTZ
  Basis Set:
  Charge       = 0
  Multiplicity = 1
  Basis Set: CC-PVTZ
  Basis Set:

    Orbital Energies (a.u.)
    -----------------------

    Doubly Occupied:

       1A    -20.536525     2A    -11.316394     3A    -11.229759
       4A    -11.227424     5A    -11.226864     6A    -11.223768
       7A    -11.215568     8A    -11.214194     9A    -11.210600
      10A    -11.208073    11A     -1.396386    12A     -1.096148
      13A     -1.078611    14A     -1.022646    15A     -0.990031
      16A     -0.912141    17A     -0.881234    18A     -0.809081
      19A     -0.795050    20A     -0.720162    21A     -0.667682
      22A     -0.653882    23A     -0.639690    24A     -0.622138
      25A     -0.609419    26A     -0.598056    27A     -0.577676
      28A     -0.560213    29A     -0.543613    30A     -0.540047
      31A     -0.529059    32A     -0.509876    33A     -0.502221
      34A     -0.485780    35A     -0.479516    36A     -0.476586
      37A     -0.468130    38A     -0.463691    39A     -0.458837
      40A     -0.393388

  @DF-RHF Final Energy:  -426.31781325993904

   => Energetics <=

    Nuclear Repulsion Energy =            538.7175635322242897
    One-Electron Energy =               -1645.8904340845328989
    Two-Electron Energy =                 680.8550572923705886
    DFT Exchange-Correlation Energy =       0.0000000000000000
    Empirical Dispersion Energy =           0.0000000000000000
    PCM Polarization Energy =               0.0000000000000000
    EFP Energy =                            0.0000000000000000
    Total Energy =                       -426.3178132599381343
    Molecular point group: c1
  Basis Set: CC-PVTZ
  Basis Set:

  -Total Gradient:
     Atom            X                  Y                   Z
    ------   -----------------  -----------------  -----------------
       1       -0.000016074091     0.000003549314     0.000004723258
       2        0.000057827093    -0.000918677510     0.000397597200
       3       -0.000099890526     0.001028157855    -0.000460945597
       4       -0.000005858877    -0.000001374710    -0.000000910478
       5       -0.000009315133    -0.000007502652    -0.000003813517
       6       -0.000068024590     0.001134234101    -0.000538412717
       7        0.000006212702     0.000002184323    -0.000003624748
       8        0.000014325420    -0.000007324546     0.000011964327
       9        0.000067460571    -0.000008774291     0.000058136538
      10        0.000131718403    -0.001220637572     0.000570754339
      11       -0.000009253093     0.000014445359    -0.000012394969
      12       -0.000053801972    -0.000011504084    -0.000098993501
      13       -0.000012444757    -0.000030239168    -0.000014739410
      14        0.000001700662     0.000014557759    -0.000003552914
      15        0.000086779160     0.000019931409     0.000032336048
      16        0.000036372790    -0.000037293125     0.000023976181
      17       -0.000091348339     0.000014389336     0.000027431362
      18       -0.000036225960     0.000016629434    -0.000003089457
      19        0.000009796904    -0.000021067518     0.000043006464
      20        0.000017391662     0.000001458337     0.000006879604
      21       -0.000017020518    -0.000066417167    -0.000009935722
      22       -0.000034743557     0.000049111929    -0.000005353203
      23        0.000020778982     0.000019195302    -0.000018255406
      24       -0.000010542306     0.000014815695    -0.000013545007
      25        0.000009953922    -0.000004084518     0.000010691095
      26        0.000002579037     0.000002158807     0.000007957361
      27       -0.000003020513    -0.000003736404    -0.000008390198
      28        0.000004666920     0.000003814312     0.000000503069

  **** Optimization is complete! (in 7 steps) ****
    Final optimized geometry and variables:
    Molecular point group: c1

    Geometry (in Angstrom), charge = 0, multiplicity = 1:

    H            2.335802520671     3.757268468183     1.629120545903
    C            1.825087324931     3.239406567586     0.825636321718
    C            0.319347891796     3.209090447040     1.078093222866
    H            2.061358493428     3.754738266961    -0.100404219706
    H            2.249444138651     2.243671733589     0.766478461972
    C           -0.515078933387     2.620581094787    -0.062734123609
    H           -0.026634106683     4.222981142607     1.252090399111
    H            0.117378536322     2.660015732619     1.990138035351
    C           -0.173947167754     1.185300863193    -0.460602607582
    H           -1.558576447768     2.649151779279     0.223269133287
    H           -0.406066852495     3.247236944344    -0.943221325213
    C           -0.511477437971     0.137599192067     0.586286507157
    H           -0.744366361736     0.917202347442    -1.346583256523
    H            0.866754463063     1.082857858908    -0.745721111786
    C            0.150203957837    -1.220404298046     0.455459789775
    O           -1.282205033182     0.358120266398     1.464279599603
    C           -0.246829070412    -1.977223891419    -0.816557237874
    H           -0.124072744815    -1.793093868861     1.331041400867
    H            1.227943410368    -1.080944822564     0.470079777373
    C            0.376302502980    -3.368820105035    -0.884554326893
    H           -1.328994722587    -2.066206420215    -0.855235935109
    H            0.049974020964    -1.412400783546    -1.694580569691
    C           -0.011661856673    -4.133037277486    -2.145681544994
    H            0.075795312828    -3.938033614191    -0.010052345686
    H            1.457999626150    -3.279635487260    -0.834303282442
    H           -1.086388666609    -4.266647000905    -2.207002025712
    H            0.306782357546    -3.604712946828    -3.038157275444
    H            0.444943553379    -5.115639820940    -2.163025148966

  Mulliken Charges: (a.u.)
   Center  Symbol    Alpha    Beta     Spin     Total
       1     H     0.44438  0.44438  0.00000  0.11124
       2     C     3.15429  3.15429  0.00000 -0.30857
       3     C     3.09702  3.09702  0.00000 -0.19404
       4     H     0.45502  0.45502  0.00000  0.08997
       5     H     0.45807  0.45807  0.00000  0.08387
       6     C     3.09353  3.09353  0.00000 -0.18706
       7     H     0.44723  0.44723  0.00000  0.10555
       8     H     0.44164  0.44164  0.00000  0.11673
       9     C     3.13834  3.13834  0.00000 -0.27667
      10     H     0.44050  0.44050  0.00000  0.11899
      11     H     0.44657  0.44657  0.00000  0.10686
      12     C     2.86220  2.86220  0.00000  0.27560
      13     H     0.43138  0.43138  0.00000  0.13723
      14     H     0.43883  0.43883  0.00000  0.12234
      15     C     3.09397  3.09397  0.00000 -0.18793
      16     O     4.17853  4.17853  0.00000 -0.35706
      17     C     3.10033  3.10033  0.00000 -0.20066
      18     H     0.43792  0.43792  0.00000  0.12416
      19     H     0.44891  0.44891  0.00000  0.10217
      20     C     3.08732  3.08732  0.00000 -0.17463
      21     H     0.44555  0.44555  0.00000  0.10891
      22     H     0.45041  0.45041  0.00000  0.09919
      23     C     3.14920  3.14920  0.00000 -0.29840
      24     H     0.44981  0.44981  0.00000  0.10037
      25     H     0.45366  0.45366  0.00000  0.09269
      26     H     0.45342  0.45342  0.00000  0.09316
      27     H     0.45518  0.45518  0.00000  0.08963
      28     H     0.44681  0.44681  0.00000  0.10639

   Total alpha = 40.00000, Total beta = 40.00000, Total charge = -0.00000
