  ==> Input File <==

--------------------------------------------------------------------------
set {
	reference rhf
	basis 6-31G*
}

set_num_threads( 4 )
memory 2 gb

molecule MOL {
0 1

H	 -6.149177	 -2.810436	 0.826246
O	 -6.278545	 -3.213058	 1.672550
C	 -5.245738	 -4.132228	 1.922529
C	 -3.910411	 -3.465767	 2.234714
H	 -5.570904	 -4.715836	 2.774199
H	 -5.135156	 -4.818555	 1.083776
C	 -3.335482	 -2.650201	 1.074035
H	 -4.039692	 -2.824392	 3.102638
H	 -3.201607	 -4.242495	 2.516952
C	 -1.969860	 -2.039010	 1.400135
H	 -4.033630	 -1.859857	 0.812669
H	 -3.240558	 -3.288215	 0.195247
C	 -1.309753	 -1.282496	 0.241564
H	 -2.070986	 -1.371890	 2.254284
H	 -1.300506	 -2.836283	 1.716395
C	 -2.037799	 -0.007733	 -0.193645
H	 -0.296805	 -1.018896	 0.538665
H	 -1.209398	 -1.950182	 -0.612814
C	 -3.489788	 0.042957	 0.286558
H	 -2.017067	 0.064384	 -1.280144
H	 -1.513726	 0.868678	 0.179924
C	 -4.216917	 1.317354	 -0.141063
H	 -4.025645	 -0.823308	 -0.095450
H	 -3.513059	 -0.038752	 1.371301
H	 -4.239342	 1.411634	 -1.223113
H	 -5.243387	 1.322503	 0.212445
H	 -3.726170	 2.201406	 0.256408

	symmetry c1
}
set optking {
	frozen_dihedral = ("
		10 13 16 20
	")
}

ee = optimize('scf')
oeprop('DIPOLE', 'QUADRUPOLE', 'MULLIKEN_CHARGES')
f=open( 'psi4out.xyz', 'w' )
f.write( "27  " )
f.write( str(ee) + "\n" )
f.write( MOL.save_string_xyz() )
f.close()
--------------------------------------------------------------------------

    Molecular point group: c1
  Charge       = 0
  Multiplicity = 1
  Basis Set: 6-31G*
  Basis Set:
  @DF-RHF Final Energy:  -388.24362630002355
    Total Energy =                       -388.2436263000228109
    Molecular point group: c1
  Basis Set: 6-31G*
  Basis Set:
  Basis Set: 6-31G*
  Basis Set:
  @DF-RHF Final Energy:  -388.26352581918314
    Total Energy =                       -388.2635258191833145
  Basis Set: 6-31G*
  Basis Set:
  Basis Set: 6-31G*
  Basis Set:
  @DF-RHF Final Energy:  -388.26840781904292
    Total Energy =                       -388.2684078190425225
  Basis Set: 6-31G*
  Basis Set:
  Basis Set: 6-31G*
  Basis Set:
  @DF-RHF Final Energy:  -388.26978303990830
    Total Energy =                       -388.2697830399081340
  Basis Set: 6-31G*
  Basis Set:
  @DF-RHF Final Energy:  -388.27027526188613
    Total Energy =                       -388.2702752618856721
  @DF-RHF Final Energy:  -388.27019390789491
    Total Energy =                       -388.2701939078949636
  @DF-RHF Final Energy:  -388.27041277675994
    Total Energy =                       -388.2704127767600539
  Basis Set: 6-31G*
  Basis Set:
  @DF-RHF Final Energy:  -388.27041174950369
    Total Energy =                       -388.2704117495042055
  Basis Set: 6-31G*
  Basis Set:
  Basis Set: 6-31G*
  Basis Set:
  @DF-RHF Final Energy:  -388.27042042628688
    Total Energy =                       -388.2704204262872736
  Basis Set: 6-31G*
  Basis Set:
  Basis Set: 6-31G*
  Basis Set:
  @DF-RHF Final Energy:  -388.27042202410814
    Total Energy =                       -388.2704220241083704
  Basis Set: 6-31G*
  Basis Set:
  Charge       = 0
  Multiplicity = 1
  Basis Set: 6-31G*
  Basis Set:

    Orbital Energies (a.u.)
    -----------------------

    Doubly Occupied:

       1A    -20.552269     2A    -11.266958     3A    -11.218861
       4A    -11.217351     5A    -11.216478     6A    -11.215799
       7A    -11.215164     8A    -11.214862     9A    -11.208986
      10A     -1.359001    11A     -1.092070    12A     -1.058962
      13A     -1.009487    14A     -0.949584    15A     -0.887223
      16A     -0.833330    17A     -0.796792    18A     -0.767889
      19A     -0.693855    20A     -0.650330    21A     -0.636537
      22A     -0.616385    23A     -0.600290    24A     -0.584278
      25A     -0.573105    26A     -0.568016    27A     -0.536150
      28A     -0.513766    29A     -0.509447    30A     -0.500012
      31A     -0.487289    32A     -0.482378    33A     -0.468371
      34A     -0.448356    35A     -0.444349    36A     -0.443655
      37A     -0.422547

  @DF-RHF Final Energy:  -388.27042213925404

   => Energetics <=

    Nuclear Repulsion Energy =            470.1811856323716938
    One-Electron Energy =               -1458.3828486510133189
    Two-Electron Energy =                 599.9312408793887244
    DFT Exchange-Correlation Energy =       0.0000000000000000
    Empirical Dispersion Energy =           0.0000000000000000
    PCM Polarization Energy =               0.0000000000000000
    EFP Energy =                            0.0000000000000000
    Total Energy =                       -388.2704221392529007
    Molecular point group: c1
  Basis Set: 6-31G*
  Basis Set:

  -Total Gradient:
     Atom            X                  Y                   Z
    ------   -----------------  -----------------  -----------------
       1        0.000005491283    -0.000003112166     0.000003157993
       2        0.000010837106    -0.000001028601     0.000017123154
       3        0.000007082816    -0.000009402228    -0.000024212867
       4       -0.000002733149     0.000020006664    -0.000004050003
       5       -0.000002621063     0.000007456123    -0.000001229240
       6       -0.000000463026    -0.000003726906    -0.000000746395
       7       -0.000019366684     0.000009446331    -0.000014025046
       8        0.000001776719     0.000004553482     0.000001579067
       9       -0.000006725677    -0.000005769133     0.000002706950
      10       -0.002202936288    -0.001593143653    -0.002060795873
      11        0.000001059393     0.000001905098    -0.000010682378
      12       -0.000003575022     0.000002616716     0.000005155162
      13        0.002383801325     0.001991006424     0.003069372926
      14       -0.000002203349     0.000002274023    -0.000004035292
      15        0.000020053282     0.000011763738    -0.000012229958
      16        0.003920235533     0.001317235784    -0.001076689229
      17        0.000002566807    -0.000007330085     0.000009929693
      18       -0.000008036899    -0.000000744858     0.000004770715
      19       -0.000014447329    -0.000005159888    -0.000000079294
      20       -0.004087435766    -0.001726186609     0.000075998659
      21        0.000016781127    -0.000007203047     0.000000092879
      22       -0.000004392115    -0.000002221129     0.000009086113
      23       -0.000003506525    -0.000007074778     0.000010506767
      24       -0.000014811782     0.000007908432    -0.000001856976
      25       -0.000005500289    -0.000004885629     0.000001780022
      26        0.000004245813     0.000002188464     0.000002873096
      27        0.000004823770    -0.000001372560    -0.000003500646

  **** Optimization is complete! (in 11 steps) ****
    Final optimized geometry and variables:
    Molecular point group: c1

    Geometry (in Angstrom), charge = 0, multiplicity = 1:

    H           -2.517323348746    -1.752169600241    -0.215747772819
    O           -2.653791287428    -2.038856467705     0.675481826596
    C           -1.517912112321    -2.730322155890     1.129070625639
    C           -0.328956894452    -1.816696383852     1.405374016916
    H           -1.820056631293    -3.224122748869     2.043675131306
    H           -1.236575867609    -3.507804531745     0.419748161656
    C            0.205010555738    -1.098883068272     0.163363129640
    H           -0.623230382992    -1.083997008644     2.152315539387
    H            0.464957560982    -2.417562689288     1.846066454247
    C            1.450742408982    -0.257988614056     0.459717619443
    H           -0.577305932776    -0.473581659950    -0.252440995488
    H            0.454508831484    -1.835552023058    -0.600176458471
    C            2.067120173859     0.457398341029    -0.755935219890
    H            1.233952095987     0.453030243238     1.252678287733
    H            2.207385608898    -0.926064642212     0.865539186944
    C            1.487476683250     1.829022492919    -1.201113777507
    H            3.125554652965     0.600162232778    -0.560939829079
    H            2.022004085871    -0.232028019135    -1.596017643182
    C            0.082853495263     2.219921126382    -0.723620636075
    H            1.460089790997     1.847916699140    -2.287555538193
    H            2.172422936650     2.614882729292    -0.894008304113
    C           -0.292485412357     3.633170586076    -1.171835472290
    H           -0.651692780884     1.523344346987    -1.116075424960
    H            0.015676842208     2.164334117906     0.358591508054
    H           -0.266083787721     3.722629722016    -2.254305890604
    H           -1.293130562274     3.895917913398    -0.842833998331
    H            0.394101906340     4.369624605233    -0.763894792523

  Mulliken Charges: (a.u.)
   Center  Symbol    Alpha    Beta     Spin     Total
       1     H     0.27985  0.27985  0.00000  0.44031
       2     O     4.37093  4.37093  0.00000 -0.74186
       3     C     2.99743  2.99743  0.00000  0.00513
       4     C     3.16139  3.16139  0.00000 -0.32278
       5     H     0.41448  0.41448  0.00000  0.17104
       6     H     0.43199  0.43199  0.00000  0.13602
       7     C     3.16335  3.16335  0.00000 -0.32669
       8     H     0.41521  0.41521  0.00000  0.16958
       9     H     0.42441  0.42441  0.00000  0.15118
      10     C     3.15576  3.15576  0.00000 -0.31152
      11     H     0.42110  0.42110  0.00000  0.15779
      12     H     0.42562  0.42562  0.00000  0.14877
      13     C     3.15808  3.15808  0.00000 -0.31616
      14     H     0.41971  0.41971  0.00000  0.16057
      15     H     0.42127  0.42127  0.00000  0.15745
      16     C     3.15356  3.15356  0.00000 -0.30711
      17     H     0.41838  0.41838  0.00000  0.16324
      18     H     0.42296  0.42296  0.00000  0.15408
      19     C     3.15512  3.15512  0.00000 -0.31024
      20     H     0.42178  0.42178  0.00000  0.15644
      21     H     0.42190  0.42190  0.00000  0.15619
      22     C     3.23923  3.23923  0.00000 -0.47847
      23     H     0.42359  0.42359  0.00000  0.15282
      24     H     0.42051  0.42051  0.00000  0.15899
      25     H     0.42223  0.42223  0.00000  0.15554
      26     H     0.41849  0.41849  0.00000  0.16302
      27     H     0.42166  0.42166  0.00000  0.15668

   Total alpha = 37.00000, Total beta = 37.00000, Total charge =  0.00000
