                              Psi4 1.0.54 Driver

  ==> Input File <==

--------------------------------------------------------------------------
set {
	reference rhf
	basis cc-pvtz
}

set_num_threads( 4 )
memory 2 gb

molecule MOL {
0 1

H	 0.990288	 -0.890891	 -1.044646
O	 1.675515	 -0.612943	 -0.465627
C	 1.135873	 0.113391	 0.608264
C	 0.027642	 1.012027	 0.090274
H	 1.902972	 0.727968	 1.072615
H	 0.756163	 -0.561896	 1.370018
C	 -1.138737	 0.285728	 -0.581921
H	 0.464661	 1.708096	 -0.618252
H	 -0.340737	 1.603071	 0.925246
C	 -1.933983	 -0.631436	 0.343653
H	 -0.763151	 -0.285569	 -1.422081
H	 -1.808359	 1.035291	 -0.992333
H	 -2.789188	 -1.049673	 -0.174718
H	 -1.335629	 -1.461368	 0.700418
H	 -2.305435	 -0.092167	 1.209725

	symmetry c1
}
set optking {
	frozen_dihedral = ("
		1 2 3 4
	")
}

ee,wfn = optimize('scf', return_wfn=True)
oeprop( wfn, 'DIPOLE', 'QUADRUPOLE', 'MULLIKEN_CHARGES')
f=open( 'psi4out.xyz', 'w' )
f.write( "15  " )
f.write( str(ee) + "\n" )
f.write( MOL.save_string_xyz() )
f.close()
--------------------------------------------------------------------------

    Molecular point group: c1
  Charge       = 0
  Multiplicity = 1
  Basis Set: CC-PVTZ
  Basis Set:
  @DF-RHF Final Energy:  -232.23327340012025
    Total Energy =                       -232.2332734001204244
    Molecular point group: c1
  Basis Set: CC-PVTZ
  Basis Set:
  Basis Set: CC-PVTZ
  Basis Set:
  @DF-RHF Final Energy:  -232.18445792884603
    Total Energy =                       -232.1844579288460864
  Basis Set: CC-PVTZ
  Basis Set:
  Basis Set: CC-PVTZ
  Basis Set:
  @DF-RHF Final Energy:  -232.23285083709254
    Total Energy =                       -232.2328508370925420
  Basis Set: CC-PVTZ
  Basis Set:
  Basis Set: CC-PVTZ
  Basis Set:
  @DF-RHF Final Energy:  -232.23558191721852
    Total Energy =                       -232.2355819172183828
  Basis Set: CC-PVTZ
  Basis Set:
  Basis Set: CC-PVTZ
  Basis Set:
  @DF-RHF Final Energy:  -232.23565291246717
    Total Energy =                       -232.2356529124671738
  Basis Set: CC-PVTZ
  Basis Set:
  Basis Set: CC-PVTZ
  Basis Set:
  @DF-RHF Final Energy:  -232.23568634535965
    Total Energy =                       -232.2356863453595679
  Basis Set: CC-PVTZ
  Basis Set:
  Basis Set: CC-PVTZ
  Basis Set:
  @DF-RHF Final Energy:  -232.23570583415795
    Total Energy =                       -232.2357058341580114
  Basis Set: CC-PVTZ
  Basis Set:
  Charge       = 0
  Multiplicity = 1
  Basis Set: CC-PVTZ
  Basis Set:

    Orbital Energies (a.u.)
    -----------------------

    Doubly Occupied:

       1A    -20.543907     2A    -11.264168     3A    -11.225597
       4A    -11.219209     5A    -11.214688     6A     -1.362354
       7A     -1.074873     8A     -0.977926     9A     -0.883680
      10A     -0.791796    11A     -0.687608    12A     -0.647301
      13A     -0.623903    14A     -0.588245    15A     -0.578793
      16A     -0.548914    17A     -0.507065    18A     -0.488967
      19A     -0.481391    20A     -0.460894    21A     -0.430653

  @DF-RHF Final Energy:  -232.23570598775248

   => Energetics <=

    Nuclear Repulsion Energy =            191.6494301102280531
    One-Electron Energy =                -694.5664084005838959
    Two-Electron Energy =                 270.6812723026033609
    DFT Exchange-Correlation Energy =       0.0000000000000000
    Empirical Dispersion Energy =           0.0000000000000000
    PCM Polarization Energy =               0.0000000000000000
    EFP Energy =                            0.0000000000000000
    Total Energy =                       -232.2357059877524534
    Molecular point group: c1
  Basis Set: CC-PVTZ
  Basis Set:

  -Total Gradient:
     Atom            X                  Y                   Z
    ------   -----------------  -----------------  -----------------
       1        0.000414743451     0.001133446316    -0.001301690192
       2       -0.000787084242    -0.001784459826     0.001700028037
       3        0.001043653234     0.001502461274    -0.000605334390
       4       -0.000662247903    -0.000890699069     0.000182738686
       5       -0.000003255987     0.000003422302    -0.000004931914
       6       -0.000002552735     0.000001025223     0.000006660731
       7        0.000001736693     0.000020532311    -0.000002092726
       8       -0.000000607575     0.000006970790    -0.000005335703
       9       -0.000012311605    -0.000008236489    -0.000005991071
      10       -0.000014652560    -0.000006023718     0.000021878350
      11        0.000009027032     0.000012693881     0.000006277225
      12        0.000014265303     0.000014061381    -0.000002611581
      13        0.000001282792    -0.000001938603    -0.000003148042
      14        0.000002465482    -0.000002028069     0.000009930167
      15       -0.000004461376    -0.000001227703     0.000003622424

  **** Optimization is complete! (in 8 steps) ****
    Final optimized geometry and variables:
    Molecular point group: c1

    Geometry (in Angstrom), charge = 0, multiplicity = 1:

    H            1.524763009084    -0.974269844991    -0.229803199950
    O            1.860217705274    -0.365424544165     0.401024736661
    C            0.847301647654     0.506136058282     0.829460868490
    C           -0.082631680626     0.965688260306    -0.285233112010
    H            1.349437299447     1.366266355733     1.251626605251
    H            0.276527729924     0.045034875521     1.630878354257
    C           -0.908901043682    -0.132193548633    -0.961923301189
    H            0.511480162091     1.474791162590    -1.037885599011
    H           -0.758779049950     1.706871177558     0.132863875565
    C           -1.893468171666    -0.850208106640    -0.042092457664
    H           -0.253520458503    -0.863489736216    -1.429554978402
    H           -1.458092452274     0.320677474620    -1.780600750534
    H           -2.495968133679    -1.555758697173    -0.602068728585
    H           -1.389371089913    -1.403304135395     0.741440563121
    H           -2.566946067015    -0.144737740289     0.433167246064

  Mulliken Charges: (a.u.)
   Center  Symbol    Alpha    Beta     Spin     Total
       1     H     0.39141  0.39141  0.00000  0.21718
       2     O     4.20737  4.20737  0.00000 -0.41474
       3     C     2.96837  2.96837  0.00000  0.06326
       4     C     3.10578  3.10578  0.00000 -0.21156
       5     H     0.45157  0.45157  0.00000  0.09687
       6     H     0.47259  0.47259  0.00000  0.05482
       7     C     3.09776  3.09776  0.00000 -0.19553
       8     H     0.44466  0.44466  0.00000  0.11067
       9     H     0.45464  0.45464  0.00000  0.09072
      10     C     3.15128  3.15128  0.00000 -0.30257
      11     H     0.46072  0.46072  0.00000  0.07856
      12     H     0.44380  0.44380  0.00000  0.11241
      13     H     0.44509  0.44509  0.00000  0.10981
      14     H     0.45193  0.45193  0.00000  0.09614
      15     H     0.45302  0.45302  0.00000  0.09397

   Total alpha = 21.00000, Total beta = 21.00000, Total charge = -0.00000

*** Psi4 exiting successfully. Buy a developer a beer!
