  ==> Input File <==

--------------------------------------------------------------------------
set {
	reference rhf
	basis cc-pvtz
}

set_num_threads( 4 )
memory 2 gb

molecule MOL {
0 1

H	 0.911117	 -2.696219	 0.198463
C	 0.617637	 -2.244118	 1.155087
C	 -0.641974	 -1.424075	 1.113773
O	 1.280553	 -2.416536	 2.118647
C	 -0.554654	 -0.292621	 0.086567
H	 -0.834343	 -1.040646	 2.107157
H	 -1.457138	 -2.092959	 0.845482
C	 -1.846385	 0.513195	 -0.016346
H	 0.263641	 0.369818	 0.353973
H	 -0.310596	 -0.705596	 -0.888912
C	 -3.089953	 -0.365049	 -0.098564
H	 -1.798267	 1.154820	 -0.891143
H	 -1.925398	 1.173265	 0.842889
H	 -3.055079	 -1.012299	 -0.968245
H	 -3.988403	 0.236438	 -0.170014
H	 -3.183055	 -0.995885	 0.779079

	symmetry c1
}
set optking {
	frozen_dihedral = ("
		9 5 8 12
	")
}

ee = optimize('scf')
oeprop('DIPOLE', 'QUADRUPOLE', 'MULLIKEN_CHARGES')
f=open( 'psi4out.xyz', 'w' )
f.write( "16  " )
f.write( str(ee) + "\n" )
f.write( MOL.save_string_xyz() )
f.close()
--------------------------------------------------------------------------

    Molecular point group: c1
  Charge       = 0
  Multiplicity = 1
  Basis Set: CC-PVTZ
  Basis Set:
  @DF-RHF Final Energy:  -270.11459756078523
    Total Energy =                       -270.1145975607853984
    Molecular point group: c1
  Basis Set: CC-PVTZ
  Basis Set:
  Basis Set: CC-PVTZ
  Basis Set:
  @DF-RHF Final Energy:  -270.11533862065551
    Total Energy =                       -270.1153386206552796
  Basis Set: CC-PVTZ
  Basis Set:
  Basis Set: CC-PVTZ
  Basis Set:
  @DF-RHF Final Energy:  -270.11627944406303
    Total Energy =                       -270.1162794440630250
  Basis Set: CC-PVTZ
  Basis Set:
  Basis Set: CC-PVTZ
  Basis Set:
  @DF-RHF Final Energy:  -270.11610816834536
    Total Energy =                       -270.1161081683454199
  Basis Set: CC-PVTZ
  Basis Set:
  Basis Set: CC-PVTZ
  Basis Set:
  @DF-RHF Final Energy:  -270.11635396929739
    Total Energy =                       -270.1163539692973927
  Basis Set: CC-PVTZ
  Basis Set:
  Basis Set: CC-PVTZ
  Basis Set:
  @DF-RHF Final Energy:  -270.11638361396945
    Total Energy =                       -270.1163836139695604
  Basis Set: CC-PVTZ
  Basis Set:
  Charge       = 0
  Multiplicity = 1
  Basis Set: CC-PVTZ
  Basis Set:

    Orbital Energies (a.u.)
    -----------------------

    Doubly Occupied:

       1A    -20.551523     2A    -11.320895     3A    -11.235180
       4A    -11.233177     5A    -11.228028     6A    -11.217655
       7A     -1.406327     8A     -1.097382     9A     -1.016311
      10A     -0.915729    11A     -0.809324    12A     -0.789356
      13A     -0.678504    14A     -0.651798    15A     -0.640472
      16A     -0.592922    17A     -0.577704    18A     -0.570448
      19A     -0.524884    20A     -0.520763    21A     -0.488523
      22A     -0.479893    23A     -0.471806    24A     -0.411712

  @DF-RHF Final Energy:  -270.11638393131540

   => Energetics <=

    Nuclear Repulsion Energy =            232.6059208765943822
    One-Electron Energy =                -826.5839734829530698
    Two-Electron Energy =                 323.8616686750434042
    DFT Exchange-Correlation Energy =       0.0000000000000000
    Empirical Dispersion Energy =           0.0000000000000000
    PCM Polarization Energy =               0.0000000000000000
    EFP Energy =                            0.0000000000000000
    Total Energy =                       -270.1163839313152835
    Molecular point group: c1
  Basis Set: CC-PVTZ
  Basis Set:

  -Total Gradient:
     Atom            X                  Y                   Z
    ------   -----------------  -----------------  -----------------
       1        0.000007891803     0.000018344428    -0.000000743619
       2       -0.000015294146    -0.000024182945     0.000002977082
       3        0.000011069626     0.000016068423    -0.000028787886
       4        0.000008852892    -0.000007157094     0.000010018124
       5        0.000400944006     0.000264131611    -0.005052356532
       6        0.000009208231     0.000000384584    -0.000003837901
       7       -0.000000298904    -0.000001701736     0.000010639219
       8        0.001919848638     0.003152356143     0.003451896624
       9       -0.000651215553    -0.000701032658     0.003761549064
      10        0.000003869301    -0.000002397867     0.000006667617
      11        0.000006108892     0.000004293937     0.000007991320
      12       -0.001693837598    -0.002722582249    -0.002165543455
      13       -0.000004571986     0.000000065907    -0.000003494975
      14        0.000002392029     0.000004083194     0.000000136437
      15       -0.000001893205     0.000004483481     0.000002269427
      16       -0.000003074026    -0.000005157162     0.000000619459

  **** Optimization is complete! (in 7 steps) ****
    Final optimized geometry and variables:
    Molecular point group: c1

    Geometry (in Angstrom), charge = 0, multiplicity = 1:

    H            1.726383780124    -1.614386432888    -0.514306237024
    C            1.391321775352    -1.174888894449     0.434612962707
    C            0.078148983165    -0.446002485965     0.371239166431
    O            2.054582996045    -1.291019844026     1.406501254292
    C            0.118451287008     0.685003040839    -0.664296476725
    H           -0.151006972142    -0.067563629506     1.359353407254
    H           -0.680315064504    -1.175247756362     0.102136284763
    C           -1.157932158639     1.530150926138    -0.726324350600
    H            0.945862563725     1.336346966357    -0.400617092820
    H            0.330688954589     0.269338461253    -1.644841017512
    C           -2.454611746645     0.732238670746    -0.852138428967
    H           -1.085882018827     2.176131465559    -1.595161144464
    H           -1.211492595611     2.170825881508     0.147562911165
    H           -2.417983614259     0.053477838721    -1.698613201913
    H           -3.294732627741     1.399521532633    -1.003645070656
    H           -2.662419893306     0.146554247952     0.034942580180

  Mulliken Charges: (a.u.)
   Center  Symbol    Alpha    Beta     Spin     Total
       1     H     0.46606  0.46606  0.00000  0.06788
       2     C     2.91042  2.91042  0.00000  0.17916
       3     C     3.07941  3.07941  0.00000 -0.15881
       4     O     4.16397  4.16397  0.00000 -0.32795
       5     C     3.10950  3.10950  0.00000 -0.21900
       6     H     0.44245  0.44245  0.00000  0.11509
       7     H     0.44813  0.44813  0.00000  0.10373
       8     C     3.08904  3.08904  0.00000 -0.17809
       9     H     0.44177  0.44177  0.00000  0.11646
      10     H     0.44891  0.44891  0.00000  0.10217
      11     C     3.15734  3.15734  0.00000 -0.31468
      12     H     0.44691  0.44691  0.00000  0.10617
      13     H     0.44824  0.44824  0.00000  0.10353
      14     H     0.45347  0.45347  0.00000  0.09305
      15     H     0.44307  0.44307  0.00000  0.11386
      16     H     0.45130  0.45130  0.00000  0.09740

   Total alpha = 24.00000, Total beta = 24.00000, Total charge =  0.00000
