  ==> Input File <==

--------------------------------------------------------------------------
set {
	reference rhf
	basis cc-pvtz
}

set_num_threads( 4 )
memory 2 gb

molecule MOL {
0 1

H	 0.591283	 -2.074710	 -0.887224
C	 -0.163867	 -1.316308	 -1.101756
N	 -0.537714	 -0.645117	 0.000000
O	 -0.579563	 -1.139509	 -2.202963
C	 -1.522613	 0.412524	 0.000000
H	 -0.107284	 -0.898056	 0.854831
H	 -2.150256	 0.356137	 -0.880771
H	 -1.005621	 1.357208	 0.000000
H	 -2.150256	 0.356137	 0.880771

	symmetry c1
}
set optking {
	frozen_dihedral = ("
		6 3 5 7
	")
}

ee = optimize('scf')
oeprop('DIPOLE', 'QUADRUPOLE', 'MULLIKEN_CHARGES')
f=open( 'psi4out.xyz', 'w' )
f.write( "9  " )
f.write( str(ee) + "\n" )
f.write( MOL.save_string_xyz() )
f.close()
--------------------------------------------------------------------------

    Molecular point group: c1
  Charge       = 0
  Multiplicity = 1
  Basis Set: CC-PVTZ
  Basis Set:
  @DF-RHF Final Energy:  -208.04292777878254
    Total Energy =                       -208.0429277787824560
    Molecular point group: c1
  Basis Set: CC-PVTZ
  Basis Set:
  Basis Set: CC-PVTZ
  Basis Set:
  @DF-RHF Final Energy:  -208.04348494349526
    Total Energy =                       -208.0434849434952014
  Basis Set: CC-PVTZ
  Basis Set:
  Basis Set: CC-PVTZ
  Basis Set:
  @DF-RHF Final Energy:  -208.04357802636343
    Total Energy =                       -208.0435780263634058
  Basis Set: CC-PVTZ
  Basis Set:
  Basis Set: CC-PVTZ
  Basis Set:
  @DF-RHF Final Energy:  -208.04350876689955
    Total Energy =                       -208.0435087668994356
  Basis Set: CC-PVTZ
  Basis Set:
  Basis Set: CC-PVTZ
  Basis Set:
  @DF-RHF Final Energy:  -208.04360858635644
    Total Energy =                       -208.0436085863563562
  Basis Set: CC-PVTZ
  Basis Set:
  Basis Set: CC-PVTZ
  Basis Set:
  @DF-RHF Final Energy:  -208.04362255952691
    Total Energy =                       -208.0436225595269093
  Basis Set: CC-PVTZ
  Basis Set:
  Basis Set: CC-PVTZ
  Basis Set:
  @DF-RHF Final Energy:  -208.04363930890133
    Total Energy =                       -208.0436393089012483
  Basis Set: CC-PVTZ
  Basis Set:
  Charge       = 0
  Multiplicity = 1
  Basis Set: CC-PVTZ
  Basis Set:

    Orbital Energies (a.u.)
    -----------------------

    Doubly Occupied:

       1A    -20.516611     2A    -15.584815     3A    -11.337130
       4A    -11.259614     5A     -1.393993     6A     -1.239721
       7A     -0.970075     8A     -0.808403     9A     -0.748781
      10A     -0.646338    11A     -0.629592    12A     -0.596529
      13A     -0.556741    14A     -0.540417    15A     -0.428589
      16A     -0.396375

  @DF-RHF Final Energy:  -208.04363956439516

   => Energetics <=

    Nuclear Repulsion Energy =            122.7796918602566478
    One-Electron Energy =                -526.3392186332895335
    Two-Electron Energy =                 195.5158872086377642
    DFT Exchange-Correlation Energy =       0.0000000000000000
    Empirical Dispersion Energy =           0.0000000000000000
    PCM Polarization Energy =               0.0000000000000000
    EFP Energy =                            0.0000000000000000
    Total Energy =                       -208.0436395643951073
    Molecular point group: c1
  Basis Set: CC-PVTZ
  Basis Set:

  -Total Gradient:
     Atom            X                  Y                   Z
    ------   -----------------  -----------------  -----------------
       1        0.000009026943    -0.000011919156    -0.000008247591
       2        0.000031069313    -0.000028000543     0.000063216809
       3       -0.000142078197    -0.000109616493    -0.000004333606
       4       -0.000022999010     0.000025948757     0.000001586461
       5       -0.000087031374    -0.000068686016     0.000071330416
       6        0.000134940701     0.000087114052    -0.000042733331
       7        0.000075693401     0.000091372959    -0.000079995626
       8       -0.000001859550     0.000010966004     0.000002263265
       9        0.000003237773     0.000002820437    -0.000003086803

  **** Optimization is complete! (in 8 steps) ****
    Final optimized geometry and variables:
    Molecular point group: c1

    Geometry (in Angstrom), charge = 0, multiplicity = 1:

    H            1.290547881467    -1.427187745233    -0.076743376941
    C            0.547236237131    -0.654520947942    -0.282411369717
    N            0.128641559965    -0.034261124899     0.833282576635
    O            0.165747309814    -0.425671503476    -1.386241968751
    C           -0.809523552519     1.065393835462     0.818409065031
    H            0.586711511968    -0.261409303083     1.680982448454
    H           -1.457918190650     0.960364986353    -0.036059644689
    H           -0.307761348391     2.024144351207     0.752798284803
    H           -1.406490703994     1.043646360591     1.719735578233

  Mulliken Charges: (a.u.)
   Center  Symbol    Alpha    Beta     Spin     Total
       1     H     0.46338  0.46338  0.00000  0.07323
       2     C     2.88083  2.88083  0.00000  0.23834
       3     N     3.60694  3.60694  0.00000 -0.21388
       4     O     4.21424  4.21424  0.00000 -0.42848
       5     C     3.07925  3.07925  0.00000 -0.15849
       6     H     0.41031  0.41031  0.00000  0.17938
       7     H     0.43586  0.43586  0.00000  0.12828
       8     H     0.45545  0.45545  0.00000  0.08911
       9     H     0.45375  0.45375  0.00000  0.09251

   Total alpha = 16.00000, Total beta = 16.00000, Total charge = -0.00000
