                              Psi4 1.0.54 Driver

  ==> Input File <==

--------------------------------------------------------------------------
set {
	reference rhf
	basis cc-pvtz
}

set_num_threads( 4 )
memory 2 gb

molecule MOL {
0 1

O	 -2.081319	 -0.951530	 -0.502732
N	 -1.613558	 0.006676	 0.014756
C	 -0.329345	 -0.171618	 0.743966
O	 -2.068523	 1.100482	 -0.024385
C	 0.825141	 -0.183167	 -0.250075
H	 -0.413034	 -1.107032	 1.271617
H	 -0.258689	 0.654995	 1.430952
C	 2.166057	 -0.362712	 0.456943
H	 0.669983	 -0.986951	 -0.960297
H	 0.820665	 0.747670	 -0.805287
C	 3.340193	 -0.370528	 -0.515591
H	 2.156138	 -1.291813	 1.019179
H	 2.301921	 0.435071	 1.181161
H	 3.248840	 -1.179347	 -1.231946
H	 3.394294	 0.559531	 -1.070370
H	 4.278118	 -0.497903	 0.010939

	symmetry c1
}
set optking {
	frozen_dihedral = ("
		5 3 2 1
	")
}

ee,wfn = optimize('scf', return_wfn=True)
oeprop( wfn, 'DIPOLE', 'QUADRUPOLE', 'MULLIKEN_CHARGES')
f=open( 'psi4out.xyz', 'w' )
f.write( "16  " )
f.write( str(ee) + "\n" )
f.write( MOL.save_string_xyz() )
f.close()
--------------------------------------------------------------------------

    Molecular point group: c1
  Charge       = 0
  Multiplicity = 1
  Basis Set: CC-PVTZ
  Basis Set:
  @DF-RHF Final Energy:  -360.90949137561557
    Total Energy =                       -360.9094913756157439
    Molecular point group: c1
  Basis Set: CC-PVTZ
  Basis Set:
  Basis Set: CC-PVTZ
  Basis Set:
  @DF-RHF Final Energy:  -360.90942699317031
    Total Energy =                       -360.9094269931700865
  Basis Set: CC-PVTZ
  Basis Set:
  Basis Set: CC-PVTZ
  Basis Set:
  @DF-RHF Final Energy:  -360.90944136141991
    Total Energy =                       -360.9094413614200789
  Basis Set: CC-PVTZ
  Basis Set:
  Basis Set: CC-PVTZ
  Basis Set:
  @DF-RHF Final Energy:  -360.90950146041661
    Total Energy =                       -360.9095014604164362
  Basis Set: CC-PVTZ
  Basis Set:
  Charge       = 0
  Multiplicity = 1
  Basis Set: CC-PVTZ
  Basis Set:

    Orbital Energies (a.u.)
    -----------------------

    Doubly Occupied:

       1A    -20.590531     2A    -20.588864     3A    -15.836261
       4A    -11.296312     5A    -11.250463     6A    -11.241825
       7A    -11.225865     8A     -1.635249     9A     -1.419541
      10A     -1.136565    11A     -1.060132    12A     -0.948779
      13A     -0.843395    14A     -0.829059    15A     -0.757844
      16A     -0.738220    17A     -0.728098    18A     -0.679266
      19A     -0.615660    20A     -0.607824    21A     -0.567774
      22A     -0.541994    23A     -0.517354    24A     -0.504156
      25A     -0.496692    26A     -0.486185    27A     -0.469937
      28A     -0.452265

  @DF-RHF Final Energy:  -360.90950197433170

   => Energetics <=

    Nuclear Repulsion Energy =            312.9917013550252136
    One-Electron Energy =               -1111.6701896437155028
    Two-Electron Energy =                 437.7689863143586990
    DFT Exchange-Correlation Energy =       0.0000000000000000
    Empirical Dispersion Energy =           0.0000000000000000
    PCM Polarization Energy =               0.0000000000000000
    EFP Energy =                            0.0000000000000000
    Total Energy =                       -360.9095019743315333
    Molecular point group: c1
  Basis Set: CC-PVTZ
  Basis Set:

  -Total Gradient:
     Atom            X                  Y                   Z
    ------   -----------------  -----------------  -----------------
       1        0.000142733249     0.000129564061    -0.000126654772
       2       -0.000139461106    -0.000294362842     0.000189599375
       3        0.000042965819     0.000219192011    -0.000036660471
       4       -0.000037097286     0.000099438585    -0.000003956242
       5       -0.000008172235    -0.000151470481    -0.000016513676
       6        0.000006563980     0.000003385256     0.000002652084
       7       -0.000005869691    -0.000004027305    -0.000007713519
       8       -0.000003239037     0.000006700003    -0.000003785022
       9       -0.000002482588    -0.000001249263    -0.000001762617
      10        0.000001885712    -0.000002605774     0.000005173216
      11        0.000003460724    -0.000000764214     0.000000839931
      12        0.000000871156    -0.000000995252    -0.000003098622
      13       -0.000001427428    -0.000003739832     0.000000838891
      14       -0.000000103548     0.000000058279     0.000001212310
      15       -0.000002759837    -0.000000678163     0.000000756345
      16        0.000002132116     0.000001554932    -0.000000927211

  **** Optimization is complete! (in 5 steps) ****
    Final optimized geometry and variables:
    Molecular point group: c1

    Geometry (in Angstrom), charge = 0, multiplicity = 1:

    O           -2.075607380818    -0.821375472147    -0.481952573533
    N           -1.608125492306     0.137098494271     0.036060633609
    C           -0.322312988108    -0.044735871177     0.762047517545
    O           -2.066098594913     1.229519545832     0.000903856397
    C            0.832539341786    -0.055555790630    -0.231225791760
    H           -0.406769568934    -0.984519598520     1.283264070764
    H           -0.252015091648     0.775405110052     1.455940889699
    C            2.173221003791    -0.231543807789     0.477215101681
    H            0.678451473343    -0.858917954386    -0.941086102201
    H            0.828056689614     0.875602789689    -0.787075616041
    C            3.347707210676    -0.244185008192    -0.494887887676
    H            2.162686311442    -1.158319640137     1.043366204520
    H            2.309385794590     0.569094095536     1.198179952509
    H            3.255628622634    -1.055407696244    -1.208404346650
    H            3.403032601347     0.683842810898    -1.052972560256
    H            4.285357222179    -0.370639902458     0.032364147504

  Mulliken Charges: (a.u.)
   Center  Symbol    Alpha    Beta     Spin     Total
       1     O     4.17516  4.17516  0.00000 -0.35031
       2     N     3.27577  3.27577  0.00000  0.44846
       3     C     3.04029  3.04029  0.00000 -0.08058
       4     O     4.17251  4.17251  0.00000 -0.34503
       5     C     3.10129  3.10129  0.00000 -0.20258
       6     H     0.43460  0.43460  0.00000  0.13080
       7     H     0.43337  0.43337  0.00000  0.13326
       8     C     3.09353  3.09353  0.00000 -0.18705
       9     H     0.43606  0.43606  0.00000  0.12788
      10     H     0.43970  0.43970  0.00000  0.12060
      11     C     3.14825  3.14825  0.00000 -0.29650
      12     H     0.45049  0.45049  0.00000  0.09902
      13     H     0.45032  0.45032  0.00000  0.09935
      14     H     0.45162  0.45162  0.00000  0.09675
      15     H     0.45184  0.45184  0.00000  0.09633
      16     H     0.44520  0.44520  0.00000  0.10960

   Total alpha = 28.00000, Total beta = 28.00000, Total charge = -0.00000

*** Psi4 exiting successfully. Buy a developer a beer!
