                              Psi4 1.0.54 Driver

  ==> Input File <==

--------------------------------------------------------------------------
set {
	reference rhf
	basis cc-pvtz
}

set_num_threads( 4 )
memory 2 gb

molecule MOL {
0 1

H	 -2.816458	 -0.841657	 -0.064679
N	 -1.878861	 -0.711874	 0.250184
C	 -1.341419	 0.551458	 -0.220231
H	 -1.333674	 -1.468530	 -0.105118
C	 0.082190	 0.731516	 0.254705
H	 -1.357065	 0.652078	 -1.304747
H	 -1.939897	 1.357530	 0.189797
O	 0.881195	 -0.248324	 -0.336237
H	 0.440901	 1.722476	 -0.020063
H	 0.119896	 0.643586	 1.338114
C	 2.222034	 -0.191391	 0.021713
H	 2.737961	 -0.988305	 -0.494167
H	 2.670222	 0.757638	 -0.264935
H	 2.353833	 -0.324222	 1.092950

	symmetry c1
}
set optking {
	frozen_dihedral = ("
		11 8 5 3
	")
}

ee,wfn = optimize('scf', return_wfn=True)
oeprop( wfn, 'DIPOLE', 'QUADRUPOLE', 'MULLIKEN_CHARGES')
f=open( 'psi4out.xyz', 'w' )
f.write( "14  " )
f.write( str(ee) + "\n" )
f.write( MOL.save_string_xyz() )
f.close()
--------------------------------------------------------------------------

    Molecular point group: c1
  Charge       = 0
  Multiplicity = 1
  Basis Set: CC-PVTZ
  Basis Set:
  @DF-RHF Final Energy:  -248.22617140672514
    Total Energy =                       -248.2261714067251432
    Molecular point group: c1
  Basis Set: CC-PVTZ
  Basis Set:
  Charge       = 0
  Multiplicity = 1
  Basis Set: CC-PVTZ
  Basis Set:

    Orbital Energies (a.u.)
    -----------------------

    Doubly Occupied:

       1A    -20.550826     2A    -15.523488     3A    -11.263991
       4A    -11.263743     5A    -11.239946     6A     -1.384734
       7A     -1.175963     8A     -1.000609     9A     -0.907788
      10A     -0.815770    11A     -0.685289    12A     -0.676505
      13A     -0.647342    14A     -0.611809    15A     -0.608065
      16A     -0.542275    17A     -0.530434    18A     -0.498014
      19A     -0.474572    20A     -0.420232    21A     -0.383850

  @DF-RHF Final Energy:  -248.22617227405300

   => Energetics <=

    Nuclear Repulsion Energy =            194.6520026260707823
    One-Electron Energy =                -723.3458638844390407
    Two-Electron Energy =                 280.4676889843152594
    DFT Exchange-Correlation Energy =       0.0000000000000000
    Empirical Dispersion Energy =           0.0000000000000000
    PCM Polarization Energy =               0.0000000000000000
    EFP Energy =                            0.0000000000000000
    Total Energy =                       -248.2261722740530558
    Molecular point group: c1
  Basis Set: CC-PVTZ
  Basis Set:

  -Total Gradient:
     Atom            X                  Y                   Z
    ------   -----------------  -----------------  -----------------
       1       -0.000000034036     0.000004781543    -0.000001083253
       2        0.000042371559    -0.000031925137     0.000002882326
       3        0.000059384858     0.000282683298    -0.000270136304
       4       -0.000008716381    -0.000026457716     0.000000411669
       5       -0.000058155713    -0.000190267251     0.000266512216
       6       -0.000021871115    -0.000013939669    -0.000001473357
       7       -0.000004110035     0.000018356336    -0.000010463164
       8       -0.000061504946    -0.000218441281     0.000257451437
       9        0.000002157096    -0.000051078583    -0.000015850002
      10       -0.000013534979     0.000015535902     0.000034084435
      11        0.000073965983     0.000197800262    -0.000238606202
      12       -0.000000168100     0.000007134065    -0.000011714477
      13       -0.000021015777    -0.000000496846    -0.000011423766
      14        0.000011231588     0.000006315078    -0.000000591559

  **** Optimization is complete! (in 2 steps) ****
    Final optimized geometry and variables:
    Molecular point group: c1

    Geometry (in Angstrom), charge = 0, multiplicity = 1:

    H           -2.818510405265    -0.852388602841    -0.054771742026
    N           -1.881419876811    -0.721557552572     0.261119047085
    C           -1.344536958111     0.542232190399    -0.208843850433
    H           -1.335297431581    -1.478121352239    -0.092943824565
    C            0.079209963600     0.722760206262     0.265622390148
    H           -1.359896887173     0.643009147087    -1.293332522059
    H           -1.943374050474     1.348068901359     0.201233334062
    O            0.878065248785    -0.257379824304    -0.324888580206
    H            0.436612587786     1.713314012723    -0.012205498974
    H            0.119013070422     0.637437835299     1.349212319357
    C            2.218920833024    -0.200097266810     0.032643166727
    H            2.734418450076    -0.998641904381    -0.481098168412
    H            2.666824544418     0.748109480310    -0.256923138864
    H            2.351505728535    -0.329933432708     1.104238334037

  Mulliken Charges: (a.u.)
   Center  Symbol    Alpha    Beta     Spin     Total
       1     H     0.43027  0.43027  0.00000  0.13945
       2     N     3.69407  3.69407  0.00000 -0.38815
       3     C     3.02174  3.02174  0.00000 -0.04349
       4     H     0.42245  0.42245  0.00000  0.15510
       5     C     2.96917  2.96917  0.00000  0.06166
       6     H     0.46471  0.46471  0.00000  0.07058
       7     H     0.45880  0.45880  0.00000  0.08240
       8     O     4.17974  4.17974  0.00000 -0.35947
       9     H     0.47042  0.47042  0.00000  0.05917
      10     H     0.46818  0.46818  0.00000  0.06363
      11     C     3.03171  3.03171  0.00000 -0.06341
      12     H     0.44755  0.44755  0.00000  0.10489
      13     H     0.47115  0.47115  0.00000  0.05770
      14     H     0.47003  0.47003  0.00000  0.05994

   Total alpha = 21.00000, Total beta = 21.00000, Total charge = -0.00000

*** Psi4 exiting successfully. Buy a developer a beer!
