  ==> Input File <==

--------------------------------------------------------------------------
set {
	reference rhf
	basis 6-31G*
}

set_num_threads( 1 )
memory 2 gb

molecule MOL {
0 1

H	 1.136379	 0.211822	 1.465562
C	 1.135357	 0.094285	 0.374742
C	 0.065331	 0.871482	 -0.349150
O	 1.941633	 -0.601957	 -0.151457
C	 -0.616783	 0.044672	 -1.448507
H	 0.510966	 1.774214	 -0.750893
H	 -0.676906	 1.164812	 0.391932
C	 0.314684	 -0.300388	 -2.611145
H	 -1.468928	 0.604089	 -1.821215
H	 -1.019470	 -0.868929	 -1.016283
H	 0.700927	 0.599563	 -3.079580
H	 -0.209902	 -0.872396	 -3.369388
H	 1.166006	 -0.889913	 -2.283882

	symmetry c1
}
set optking {
	frozen_dihedral = ("
		6 3 5 9
	")
}

ee = energy('scf')
oeprop('DIPOLE', 'QUADRUPOLE', 'MULLIKEN_CHARGES')
f=open( 'psi4out.xyz', 'w' )
f.write( "13  " )
f.write( str(ee) + "\n" )
f.write( MOL.save_string_xyz() )
f.close()
--------------------------------------------------------------------------

    Molecular point group: c1

    Geometry (in Angstrom), charge = 0, multiplicity = 1:

       Center              X                  Y                   Z               Mass
    ------------   -----------------  -----------------  -----------------  -----------------
           H          0.553796012333     0.203091366396     2.317338362880     1.007825032070
           C          0.552774012333     0.085554366396     1.226518362880    12.000000000000
           C         -0.517251987667     0.862751366396     0.502626362880    12.000000000000
           O          1.359050012333    -0.610687633604     0.700319362880    15.994914619560
           C         -1.199365987667     0.035941366396    -0.596730637120    12.000000000000
           H         -0.071616987667     1.765483366396     0.100883362880     1.007825032070
           H         -1.259488987667     1.156081366396     1.243708362880     1.007825032070
           C         -0.267898987667    -0.309118633604    -1.759368637120    12.000000000000
           H         -2.051510987667     0.595358366396    -0.969438637120     1.007825032070
           H         -1.602052987667    -0.877659633604    -0.164506637120     1.007825032070
           H          0.118344012333     0.590832366396    -2.227803637120     1.007825032070
           H         -0.792484987667    -0.881126633604    -2.517611637120     1.007825032070
           H          0.583423012333    -0.898643633604    -1.432105637120     1.007825032070

  Charge       = 0
  Multiplicity = 1
  Basis Set: 6-31G*
  Basis Set:

    Orbital Energies (a.u.)
    -----------------------

    Doubly Occupied:

       1A    -20.565024     2A    -11.329744     3A    -11.236828
       4A    -11.229553     5A    -11.202062     6A     -1.406896
       7A     -1.077346     8A     -0.969495     9A     -0.842973
      10A     -0.775133    11A     -0.683487    12A     -0.651906
      13A     -0.601169    14A     -0.584849    15A     -0.566148
      16A     -0.520721    17A     -0.498870    18A     -0.483930
      19A     -0.480037    20A     -0.404890

  @DF-RHF Final Energy:  -230.98079247240460

   => Energetics <=

    Nuclear Repulsion Energy =            177.6099550179035020
    One-Electron Energy =                -664.9594110136698646
    Two-Electron Energy =                 256.3686635233622155
    DFT Exchange-Correlation Energy =       0.0000000000000000
    Empirical Dispersion Energy =           0.0000000000000000
    PCM Polarization Energy =               0.0000000000000000
    EFP Energy =                            0.0000000000000000
    Total Energy =                       -230.9807924724041186

  Mulliken Charges: (a.u.)
   Center  Symbol    Alpha    Beta     Spin     Total
       1     H     0.42712  0.42712  0.00000  0.14576
       2     C     2.84200  2.84200  0.00000  0.31601
       3     C     3.20621  3.20621  0.00000 -0.41241
       4     O     4.23520  4.23520  0.00000 -0.47041
       5     C     3.15540  3.15540  0.00000 -0.31081
       6     H     0.39978  0.39978  0.00000  0.20043
       7     H     0.41398  0.41398  0.00000  0.17204
       8     C     3.24651  3.24651  0.00000 -0.49303
       9     H     0.41624  0.41624  0.00000  0.16752
      10     H     0.41745  0.41745  0.00000  0.16510
      11     H     0.42519  0.42519  0.00000  0.14962
      12     H     0.42231  0.42231  0.00000  0.15538
      13     H     0.39260  0.39260  0.00000  0.21480

   Total alpha = 20.00000, Total beta = 20.00000, Total charge =  0.00000
