  ==> Input File <==

--------------------------------------------------------------------------
set {
	reference rhf
	basis 6-31G*
}

set_num_threads( 4 )
memory 2 gb

molecule MOL {
0 1

O	 2.077581	 -0.123320	 0.663087
C	 1.122059	 0.121804	 -0.000188
C	 -0.170150	 -0.657997	 -0.000612
O	 1.068730	 1.140797	 -0.848590
C	 -1.412532	 0.227344	 -0.000452
H	 -0.153702	 -1.313099	 -0.867402
H	 -0.153924	 -1.313811	 0.865644
C	 -2.706999	 -0.587347	 -0.000541
H	 -1.388000	 0.879466	 -0.868000
H	 -1.387972	 0.879138	 0.867341
C	 -3.956778	 0.291888	 0.000910
H	 -2.726114	 -1.239230	 -0.871609
H	 -2.725217	 -1.240844	 0.869333
H	 -3.985213	 0.933254	 -0.875158
H	 -4.860123	 -0.309979	 0.000519
H	 -3.984618	 0.931166	 0.878514
C	 2.221579	 1.957300	 -0.945557
H	 2.447120	 2.411221	 0.008683
H	 1.984853	 2.716789	 -1.674313
H	 3.072107	 1.376625	 -1.272552

	symmetry c1
}
set optking {
	frozen_dihedral = ("
		1 2 3 6
	")
}

ee = optimize('scf')
oeprop('DIPOLE', 'QUADRUPOLE', 'MULLIKEN_CHARGES')
f=open( 'psi4out.xyz', 'w' )
f.write( "20  " )
f.write( str(ee) + "\n" )
f.write( MOL.save_string_xyz() )
f.close()
--------------------------------------------------------------------------

    Molecular point group: c1
  Charge       = 0
  Multiplicity = 1
  Basis Set: 6-31G*
  Basis Set:
  @DF-RHF Final Energy:  -383.93945060861051
    Total Energy =                       -383.9394506086104002
    Molecular point group: c1
  Basis Set: 6-31G*
  Basis Set:
  Basis Set: 6-31G*
  Basis Set:
  @DF-RHF Final Energy:  -383.93811360135260
    Total Energy =                       -383.9381136013524838
  Basis Set: 6-31G*
  Basis Set:
  Basis Set: 6-31G*
  Basis Set:
  @DF-RHF Final Energy:  -383.93971261591776
    Total Energy =                       -383.9397126159178697
  Basis Set: 6-31G*
  Basis Set:
  Basis Set: 6-31G*
  Basis Set:
  @DF-RHF Final Energy:  -383.93992612641773
    Total Energy =                       -383.9399261264173902
  Basis Set: 6-31G*
  Basis Set:
  Basis Set: 6-31G*
  Basis Set:
  @DF-RHF Final Energy:  -383.93992841008190
    Total Energy =                       -383.9399284100820751
  Basis Set: 6-31G*
  Basis Set:
  Charge       = 0
  Multiplicity = 1
  Basis Set: 6-31G*
  Basis Set:

    Orbital Energies (a.u.)
    -----------------------

    Doubly Occupied:

       1A    -20.604939     2A    -20.543092     3A    -11.371658
       4A    -11.281255     5A    -11.235160     6A    -11.226301
       7A    -11.223320     8A    -11.213912     9A     -1.469458
      10A     -1.361367    11A     -1.092100    12A     -1.024603
      13A     -0.966470    14A     -0.892020    15A     -0.806730
      16A     -0.774373    17A     -0.693327    18A     -0.681532
      19A     -0.672518    20A     -0.647557    21A     -0.595379
      22A     -0.591723    23A     -0.579005    24A     -0.547241
      25A     -0.531650    26A     -0.523163    27A     -0.506772
      28A     -0.488785    29A     -0.480849    30A     -0.473154
      31A     -0.454825    32A     -0.428450

  @DF-RHF Final Energy:  -383.93992937016884

   => Energetics <=

    Nuclear Repulsion Energy =            383.5216051811334523
    One-Electron Energy =               -1282.9576919021801586
    Two-Electron Energy =                 515.4961573508777519
    DFT Exchange-Correlation Energy =       0.0000000000000000
    Empirical Dispersion Energy =           0.0000000000000000
    PCM Polarization Energy =               0.0000000000000000
    EFP Energy =                            0.0000000000000000
    Total Energy =                       -383.9399293701688975
    Molecular point group: c1
  Basis Set: 6-31G*
  Basis Set:

  -Total Gradient:
     Atom            X                  Y                   Z
    ------   -----------------  -----------------  -----------------
       1        0.000290975881    -0.000364937362    -0.000715416612
       2       -0.000358082726     0.000454472359     0.001046908519
       3       -0.000278381764     0.000499197072    -0.000841892407
       4        0.000056029753    -0.000006672294     0.000051765457
       5        0.000016228719    -0.000031112758     0.000004652226
       6        0.000342561872    -0.000615210143     0.000430986831
       7       -0.000012422129     0.000013959137    -0.000020626831
       8       -0.000011998186     0.000031286079     0.000061495845
       9        0.000005445237     0.000026958678     0.000016064840
      10       -0.000030656922    -0.000022477862    -0.000008087887
      11       -0.000027692034    -0.000012985943    -0.000036242394
      12        0.000027106107     0.000007113912     0.000016387797
      13       -0.000013152716     0.000005813674     0.000014547146
      14       -0.000000697893     0.000011857619     0.000003107696
      15       -0.000015270880     0.000006793720    -0.000014952092
      16        0.000003581932    -0.000015105714     0.000000340280
      17       -0.000024516242    -0.000004387459    -0.000009371004
      18        0.000003999777     0.000004892621     0.000003995320
      19        0.000019656325     0.000010376376    -0.000000438961
      20        0.000007285880     0.000000168290    -0.000003223769

  **** Optimization is complete! (in 6 steps) ****
    Final optimized geometry and variables:
    Molecular point group: c1

    Geometry (in Angstrom), charge = 0, multiplicity = 1:

    O            2.255656494702    -0.461590554551     0.802615958118
    C            1.309397795313    -0.173487192300     0.142587159473
    C            0.010681157907    -0.944017090800     0.128475394497
    O            1.301508914933     0.851470480666    -0.699377467278
    C           -1.253537924320    -0.079728471890     0.134632516193
    H            0.027439362550    -1.572586297781    -0.759293599112
    H            0.035586976525    -1.605913597844     0.984941426939
    C           -2.528407903183    -0.924302340498     0.168489644441
    H           -1.259872216089     0.559152240895    -0.741415800608
    H           -1.235707544264     0.579629370150     0.999628467211
    C           -3.798965355801    -0.075366322578     0.168331903505
    H           -2.540423277644    -1.592134279890    -0.690350049216
    H           -2.519049650656    -1.560638823214     1.050530284768
    H           -3.852949877678     0.549190083586    -0.718688336466
    H           -4.687020172457    -0.699057989442     0.188712257213
    H           -3.833656607763     0.578236317140     1.035188716703
    C            2.488302658408     1.619285833416    -0.787200852182
    H            2.732279191904     2.051888467436     0.172230366163
    H            2.284478570952     2.396229684640    -1.507465740451
    H            3.312962136494     1.005897279448    -1.120440241135

  Mulliken Charges: (a.u.)
   Center  Symbol    Alpha    Beta     Spin     Total
       1     O     4.28733  4.28733  0.00000 -0.57466
       2     C     2.60952  2.60952  0.00000  0.78097
       3     C     3.20376  3.20376  0.00000 -0.40753
       4     O     4.30266  4.30266  0.00000 -0.60533
       5     C     3.15817  3.15817  0.00000 -0.31634
       6     H     0.40257  0.40257  0.00000  0.19486
       7     H     0.39803  0.39803  0.00000  0.20393
       8     C     3.15395  3.15395  0.00000 -0.30791
       9     H     0.40790  0.40790  0.00000  0.18419
      10     H     0.41757  0.41757  0.00000  0.16487
      11     C     3.23977  3.23977  0.00000 -0.47955
      12     H     0.42159  0.42159  0.00000  0.15682
      13     H     0.42049  0.42049  0.00000  0.15901
      14     H     0.42037  0.42037  0.00000  0.15926
      15     H     0.41762  0.41762  0.00000  0.16476
      16     H     0.42031  0.42031  0.00000  0.15937
      17     C     3.09233  3.09233  0.00000 -0.18465
      18     H     0.40850  0.40850  0.00000  0.18300
      19     H     0.40881  0.40881  0.00000  0.18237
      20     H     0.40873  0.40873  0.00000  0.18254

   Total alpha = 32.00000, Total beta = 32.00000, Total charge =  0.00000
