  ==> Input File <==

--------------------------------------------------------------------------
set {
	reference rhf
	basis cc-pvtz
}

set_num_threads( 4 )
memory 2 gb

molecule MOL {
0 1

H	 -3.106823	 1.885621	 0.278971
O	 -2.548736	 1.970619	 1.031146
C	 -1.213191	 1.909666	 0.635885
C	 -0.793473	 0.591216	 0.050087
H	 -0.621798	 2.110889	 1.521360
H	 -0.983105	 2.699864	 -0.076398
C	 -1.534243	 -0.493009	 -0.013340
H	 0.210754	 0.572784	 -0.340343
H	 -1.101195	 -1.466332	 -0.144046
H	 -2.604242	 -0.437780	 0.050785

	symmetry c1
}
set optking {
	frozen_dihedral = ("
		3 4 7 9
	")
}

ee = optimize('scf')
oeprop('DIPOLE', 'QUADRUPOLE', 'MULLIKEN_CHARGES')
f=open( 'psi4out.xyz', 'w' )
f.write( "10  " )
f.write( str(ee) + "\n" )
f.write( MOL.save_string_xyz() )
f.close()
--------------------------------------------------------------------------

    Molecular point group: c1
  Charge       = 0
  Multiplicity = 1
  Basis Set: CC-PVTZ
  Basis Set:
  @DF-RHF Final Energy:  -191.98864000517614
    Total Energy =                       -191.9886400051761370
    Molecular point group: c1
  Basis Set: CC-PVTZ
  Basis Set:
  Basis Set: CC-PVTZ
  Basis Set:
  @DF-RHF Final Energy:  -191.99476712544288
    Total Energy =                       -191.9947671254428769
  Basis Set: CC-PVTZ
  Basis Set:
  Basis Set: CC-PVTZ
  Basis Set:
  @DF-RHF Final Energy:  -191.99490894359502
    Total Energy =                       -191.9949089435949929
  Basis Set: CC-PVTZ
  Basis Set:
  Basis Set: CC-PVTZ
  Basis Set:
  @DF-RHF Final Energy:  -191.99492987030493
    Total Energy =                       -191.9949298703049578
  Basis Set: CC-PVTZ
  Basis Set:
  Charge       = 0
  Multiplicity = 1
  Basis Set: CC-PVTZ
  Basis Set:

    Orbital Energies (a.u.)
    -----------------------

    Doubly Occupied:

       1A    -20.554788     2A    -11.279015     3A    -11.230166
       4A    -11.215980     5A     -1.374935     6A     -1.062153
       7A     -0.931931     8A     -0.771453     9A     -0.692029
      10A     -0.663955    11A     -0.621236    12A     -0.574564
      13A     -0.541469    14A     -0.494239    15A     -0.453490
      16A     -0.366605

  @DF-RHF Final Energy:  -191.99493025610712

   => Energetics <=

    Nuclear Repulsion Energy =            119.4323871698926354
    One-Electron Energy =                -497.1986216761131345
    Two-Electron Energy =                 185.7713042501132463
    DFT Exchange-Correlation Energy =       0.0000000000000000
    Empirical Dispersion Energy =           0.0000000000000000
    PCM Polarization Energy =               0.0000000000000000
    EFP Energy =                            0.0000000000000000
    Total Energy =                       -191.9949302561072386
    Molecular point group: c1
  Basis Set: CC-PVTZ
  Basis Set:

  -Total Gradient:
     Atom            X                  Y                   Z
    ------   -----------------  -----------------  -----------------
       1       -0.000013291405    -0.000001704357     0.000000197808
       2        0.000000197207    -0.000042223635    -0.000011166096
       3        0.003988908992    -0.002802904324     0.008339877489
       4       -0.005963885793     0.004118310871    -0.008534014481
       5        0.000019892658    -0.000005871131     0.000004243864
       6        0.000026175110    -0.000023607966    -0.000005079054
       7        0.000185809766     0.000251609934    -0.012449788991
       8        0.000015919983     0.000002525921    -0.000012234216
       9        0.001766393273    -0.001499810322     0.012655155971
      10       -0.000026119793     0.000003675007     0.000012807707

  **** Optimization is complete! (in 5 steps) ****
    Final optimized geometry and variables:
    Molecular point group: c1

    Geometry (in Angstrom), charge = 0, multiplicity = 1:

    H           -1.517211237843     0.927630325621    -0.208495618154
    O           -0.983240890663     0.926760207058     0.565537536570
    C            0.363222995681     0.849709016709     0.210236712740
    C            0.772247445560    -0.449672619350    -0.425050763739
    H            0.931157665145     0.958680653554     1.126288743337
    H            0.641994389405     1.684611875889    -0.429911735727
    C            0.056550143920    -1.552596762741    -0.455975875639
    H            1.805915796096    -0.483703727079    -0.730048067966
    H            0.510738830880    -2.508960241617    -0.633515315407
    H           -0.961033883477    -1.563277087477    -0.112828372689

  Mulliken Charges: (a.u.)
   Center  Symbol    Alpha    Beta     Spin     Total
       1     H     0.39103  0.39103  0.00000  0.21795
       2     O     4.19890  4.19890  0.00000 -0.39780
       3     C     2.95171  2.95171  0.00000  0.09658
       4     C     3.08716  3.08716  0.00000 -0.17432
       5     H     0.45261  0.45261  0.00000  0.09477
       6     H     0.46696  0.46696  0.00000  0.06609
       7     C     3.17312  3.17312  0.00000 -0.34625
       8     H     0.42482  0.42482  0.00000  0.15037
       9     H     0.42720  0.42720  0.00000  0.14560
      10     H     0.42649  0.42649  0.00000  0.14702

   Total alpha = 16.00000, Total beta = 16.00000, Total charge = -0.00000
