  ==> Input File <==

--------------------------------------------------------------------------
set {
	reference rhf
	basis cc-pvtz
}

set_num_threads( 4 )
memory 2 gb

molecule MOL {
0 1

H	 -3.941973	 0.934228	 -0.390224
C	 -3.240162	 0.342701	 0.161016
C	 -2.105997	 -0.000418	 -0.398703
H	 -3.485368	 0.047206	 1.162193
O	 -1.189946	 -0.765863	 0.237511
H	 -1.846458	 0.297311	 -1.398265
C	 0.026572	 -0.995256	 -0.379403
C	 1.057223	 0.049888	 -0.004615
H	 -0.054361	 -1.010670	 -1.459674
H	 0.397526	 -1.952058	 -0.044198
F	 1.531274	 0.610955	 -1.098946
F	 0.541138	 1.003022	 0.741507
F	 2.066942	 -0.467016	 0.652451

	symmetry c1
}
set optking {
	frozen_dihedral = ("
		11 8 7 9
	")
}

ee = optimize('scf')
oeprop('DIPOLE', 'QUADRUPOLE', 'MULLIKEN_CHARGES')
f=open( 'psi4out.xyz', 'w' )
f.write( "13  " )
f.write( str(ee) + "\n" )
f.write( MOL.save_string_xyz() )
f.close()
--------------------------------------------------------------------------

    Molecular point group: c1
  Charge       = 0
  Multiplicity = 1
  Basis Set: CC-PVTZ
  Basis Set:
  @DF-RHF Final Energy:  -527.73448021733634
    Total Energy =                       -527.7344802173365679
    Molecular point group: c1
  Basis Set: CC-PVTZ
  Basis Set:
  Basis Set: CC-PVTZ
  Basis Set:
  @DF-RHF Final Energy:  -527.73520232144881
    Total Energy =                       -527.7352023214489236
  Basis Set: CC-PVTZ
  Basis Set:
  Basis Set: CC-PVTZ
  Basis Set:
  @DF-RHF Final Energy:  -527.73544845899164
    Total Energy =                       -527.7354484589923231
  Basis Set: CC-PVTZ
  Basis Set:
  Basis Set: CC-PVTZ
  Basis Set:
  @DF-RHF Final Energy:  -527.73547430058647
    Total Energy =                       -527.7354743005864748
  Basis Set: CC-PVTZ
  Basis Set:
  Basis Set: CC-PVTZ
  Basis Set:
  @DF-RHF Final Energy:  -527.73548252207456
    Total Energy =                       -527.7354825220741077
  Basis Set: CC-PVTZ
  Basis Set:
  Basis Set: CC-PVTZ
  Basis Set:
  @DF-RHF Final Energy:  -527.73548666390900
    Total Energy =                       -527.7354866639086595
  Basis Set: CC-PVTZ
  Basis Set:
  Basis Set: CC-PVTZ
  Basis Set:
  @DF-RHF Final Energy:  -527.73548826529350
    Total Energy =                       -527.7354882652939523
  Basis Set: CC-PVTZ
  Basis Set:
  Charge       = 0
  Multiplicity = 1
  Basis Set: CC-PVTZ
  Basis Set:

    Orbital Energies (a.u.)
    -----------------------

    Doubly Occupied:

       1A    -26.339943     2A    -26.339456     3A    -26.338886
       4A    -20.603177     5A    -11.499684     6A    -11.319731
       7A    -11.298379     8A    -11.214590     9A     -1.750601
      10A     -1.646605    11A     -1.644279    12A     -1.444131
      13A     -1.083870    14A     -1.019090    15A     -0.932476
      16A     -0.843646    17A     -0.837894    18A     -0.827911
      19A     -0.796521    20A     -0.730782    21A     -0.723191
      22A     -0.701567    23A     -0.680175    24A     -0.668453
      25A     -0.661956    26A     -0.649756    27A     -0.634236
      28A     -0.587194    29A     -0.565111    30A     -0.528757
      31A     -0.516272    32A     -0.357210

  @DF-RHF Final Energy:  -527.73548882527530

   => Energetics <=

    Nuclear Repulsion Energy =            413.0457796102328416
    One-Electron Energy =               -1549.9914746165211454
    Two-Electron Energy =                 609.2102061810127225
    DFT Exchange-Correlation Energy =       0.0000000000000000
    Empirical Dispersion Energy =           0.0000000000000000
    PCM Polarization Energy =               0.0000000000000000
    EFP Energy =                            0.0000000000000000
    Total Energy =                       -527.7354888252756382
    Molecular point group: c1
  Basis Set: CC-PVTZ
  Basis Set:

  -Total Gradient:
     Atom            X                  Y                   Z
    ------   -----------------  -----------------  -----------------
       1       -0.000004045468    -0.000009126645    -0.000004693052
       2        0.000010850890     0.000010195828     0.000004610937
       3        0.000055052185     0.000018947859     0.000033064836
       4        0.000002380742     0.000002187059     0.000002567418
       5       -0.000092078952    -0.000051702547     0.000008390842
       6       -0.000003615688    -0.000012600274    -0.000016021940
       7       -0.000422520686     0.000517724425     0.000031575621
       8        0.000404084520    -0.000425953635    -0.000105139667
       9        0.000334211201    -0.000330650765    -0.000004168634
      10       -0.000023043100    -0.000012838535    -0.000006345238
      11       -0.000235333526     0.000286125724    -0.000034717495
      12        0.000002565335    -0.000010130907     0.000057585918
      13       -0.000028507461     0.000017822408     0.000033290450

  **** Optimization is complete! (in 8 steps) ****
    Final optimized geometry and variables:
    Molecular point group: c1

    Geometry (in Angstrom), charge = 0, multiplicity = 1:

    H           -3.899358142817     0.980140168226    -0.353687359764
    C           -3.240110841725     0.320250104330     0.171918660002
    C           -2.077474542377     0.017578328150    -0.351344451003
    H           -3.550070927360    -0.075231499010     1.119239166891
    O           -1.208739792813    -0.823840590180     0.253577071296
    H           -1.755592320160     0.414531977425    -1.297770371126
    C            0.019700014208    -1.030546443055    -0.344856296442
    C            1.054812965165     0.059970887418    -0.015806250238
    H           -0.062381702664    -1.095591926448    -1.422236918233
    H            0.403207971974    -1.965940684173     0.028790337538
    F            1.539894379817     0.596690188253    -1.120340703898
    F            0.551177711738     1.030003898299     0.703571785575
    F            2.076863257461    -0.441018164116     0.646569809064

  Mulliken Charges: (a.u.)
   Center  Symbol    Alpha    Beta     Spin     Total
       1     H     0.42543  0.42543  0.00000  0.14913
       2     C     3.19575  3.19575  0.00000 -0.39150
       3     C     2.95833  2.95833  0.00000  0.08335
       4     H     0.42495  0.42495  0.00000  0.15010
       5     O     4.13886  4.13886  0.00000 -0.27771
       6     H     0.43445  0.43445  0.00000  0.13110
       7     C     3.03502  3.03502  0.00000 -0.07004
       8     C     2.67221  2.67221  0.00000  0.65557
       9     H     0.45468  0.45468  0.00000  0.09064
      10     H     0.43465  0.43465  0.00000  0.13070
      11     F     4.61322  4.61322  0.00000 -0.22644
      12     F     4.60236  4.60236  0.00000 -0.20471
      13     F     4.61009  4.61009  0.00000 -0.22018

   Total alpha = 32.00000, Total beta = 32.00000, Total charge =  0.00000
