  ==> Input File <==

--------------------------------------------------------------------------
set {
	reference rhf
	basis 6-31G*
}

set_num_threads( 1 )
memory 2 gb

molecule MOL {
0 1

O	 -2.042549	 -1.228399	 -0.269030
C	 -1.653912	 -0.146171	 0.050137
C	 -0.332303	 0.024011	 0.778412
C	 -2.438579	 1.106236	 -0.272369
C	 0.728985	 -0.938534	 0.222494
H	 0.018792	 1.048899	 0.696436
H	 -0.504321	 -0.192175	 1.827028
C	 2.069149	 -0.821258	 0.949983
H	 0.879289	 -0.747498	 -0.838636
H	 0.352943	 -1.953828	 0.305632
C	 3.123750	 -1.783629	 0.405130
H	 2.435504	 0.199978	 0.870695
H	 1.918586	 -1.011633	 2.010009
H	 3.321305	 -1.595534	 -0.646366
H	 2.798967	 -2.815511	 0.500939
H	 4.061812	 -1.680565	 0.941268
H	 -3.277823	 0.863061	 -0.908988
H	 -1.806773	 1.843019	 -0.759671
H	 -2.802853	 1.554979	 0.648059

	symmetry c1
}
set optking {
	frozen_dihedral = ("
		11 8 5 9,
		9 5 3 2
	")
}

ee = energy('scf')
oeprop('DIPOLE', 'QUADRUPOLE', 'MULLIKEN_CHARGES')
f=open( 'psi4out.xyz', 'w' )
f.write( "19  " )
f.write( str(ee) + "\n" )
f.write( MOL.save_string_xyz() )
f.close()
--------------------------------------------------------------------------

    Molecular point group: c1

    Geometry (in Angstrom), charge = 0, multiplicity = 1:

       Center              X                  Y                   Z               Mass
    ------------   -----------------  -----------------  -----------------  -----------------
           O         -1.970093157660    -0.680064058300    -0.528650372036    15.994914619560
           C         -1.581456157660     0.402163941700    -0.209483372036    12.000000000000
           C         -0.259847157660     0.572345941700     0.518791627964    12.000000000000
           C         -2.366123157660     1.654570941700    -0.531989372036    12.000000000000
           C          0.801440842340    -0.390199058300    -0.037126372036    12.000000000000
           H          0.091247842340     1.597233941700     0.436815627964     1.007825032070
           H         -0.431865157660     0.356159941700     1.567407627964     1.007825032070
           C          2.141604842340    -0.272923058300     0.690362627964    12.000000000000
           H          0.951744842340    -0.199163058300    -1.098256372036     1.007825032070
           H          0.425398842340    -1.405493058300     0.046011627964     1.007825032070
           C          3.196205842340    -1.235294058300     0.145509627964    12.000000000000
           H          2.507959842340     0.748312941700     0.611074627964     1.007825032070
           H          1.991041842340    -0.463298058300     1.750388627964     1.007825032070
           H          3.393760842340    -1.047199058300    -0.905986372036     1.007825032070
           H          2.871422842340    -2.267176058300     0.241318627964     1.007825032070
           H          4.134267842340    -1.132230058300     0.681647627964     1.007825032070
           H         -3.205367157660     1.411395941700    -1.168608372036     1.007825032070
           H         -1.734317157660     2.391353941700    -1.019291372036     1.007825032070
           H         -2.730397157660     2.103313941700     0.388438627964     1.007825032070

  Charge       = 0
  Multiplicity = 1
  Basis Set: 6-31G*
  Basis Set:

    Orbital Energies (a.u.)
    -----------------------

    Doubly Occupied:

       1A    -20.548780     2A    -11.326028     3A    -11.230591
       4A    -11.228793     5A    -11.220623     6A    -11.219586
       7A    -11.210778     8A     -1.395026     9A     -1.085588
      10A     -1.028624    11A     -0.983994    12A     -0.886193
      13A     -0.800962    14A     -0.731822    15A     -0.660281
      16A     -0.648062    17A     -0.623162    18A     -0.611566
      19A     -0.580957    20A     -0.572447    21A     -0.552880
      22A     -0.532360    23A     -0.513259    24A     -0.490704
      25A     -0.475165    26A     -0.471263    27A     -0.466905
      28A     -0.398660

  @DF-RHF Final Energy:  -309.06508720982043

   => Energetics <=

    Nuclear Repulsion Energy =            301.3304093164137498
    One-Electron Energy =               -1015.8008088519230796
    Two-Electron Energy =                 405.4053123256895788
    DFT Exchange-Correlation Energy =       0.0000000000000000
    Empirical Dispersion Energy =           0.0000000000000000
    PCM Polarization Energy =               0.0000000000000000
    EFP Energy =                            0.0000000000000000
    Total Energy =                       -309.0650872098198079

  Mulliken Charges: (a.u.)
   Center  Symbol    Alpha    Beta     Spin     Total
       1     O     4.26313  4.26313  0.00000 -0.52625
       2     C     2.73532  2.73532  0.00000  0.52937
       3     C     3.20718  3.20718  0.00000 -0.41436
       4     C     3.28784  3.28784  0.00000 -0.57568
       5     C     3.15362  3.15362  0.00000 -0.30724
       6     H     0.41510  0.41510  0.00000  0.16979
       7     H     0.40271  0.40271  0.00000  0.19459
       8     C     3.15255  3.15255  0.00000 -0.30510
       9     H     0.42010  0.42010  0.00000  0.15980
      10     H     0.40336  0.40336  0.00000  0.19327
      11     C     3.23960  3.23960  0.00000 -0.47919
      12     H     0.42441  0.42441  0.00000  0.15118
      13     H     0.42259  0.42259  0.00000  0.15481
      14     H     0.42098  0.42098  0.00000  0.15805
      15     H     0.41914  0.41914  0.00000  0.16172
      16     H     0.41889  0.41889  0.00000  0.16221
      17     H     0.39704  0.39704  0.00000  0.20591
      18     H     0.40953  0.40953  0.00000  0.18094
      19     H     0.40691  0.40691  0.00000  0.18618

   Total alpha = 28.00000, Total beta = 28.00000, Total charge = -0.00000
