  ==> Input File <==

--------------------------------------------------------------------------
set {
	reference rhf
	basis 6-31G*
}

set_num_threads( 1 )
memory 2 gb

molecule MOL {
0 1

H	 2.591676	 2.013956	 0.335017
O	 3.341076	 1.666752	 -0.126416
C	 3.569581	 0.339145	 0.272707
C	 2.539767	 -0.640285	 -0.279495
H	 4.553106	 0.084646	 -0.100901
H	 3.608576	 0.269204	 1.359154
C	 1.115811	 -0.397273	 0.226630
H	 2.556196	 -0.582511	 -1.364741
H	 2.852081	 -1.648031	 -0.010655
C	 0.237144	 0.320470	 -0.801770
H	 1.156846	 0.188558	 1.140678
H	 0.655904	 -1.351062	 0.485692
C	 -1.223665	 0.512787	 -0.378223
H	 0.675398	 1.289698	 -1.032806
H	 0.254651	 -0.248370	 -1.729032
C	 -1.431682	 1.459276	 0.807258
H	 -1.778793	 0.898101	 -1.230972
H	 -1.661383	 -0.457065	 -0.146646
C	 -2.908861	 1.701410	 1.124671
H	 -0.950069	 2.412595	 0.594323
H	 -0.942713	 1.062151	 1.693544
C	 -3.119272	 2.640790	 2.311666
H	 -3.402750	 2.113103	 0.247135
H	 -3.393951	 0.748964	 1.328189
H	 -2.673315	 3.613767	 2.125483
H	 -4.175571	 2.793945	 2.510187
H	 -2.668209	 2.239188	 3.214783

	symmetry c1
}
set optking {
	frozen_dihedral = ("
		14 10 7 4,
		14 10 13 16,
		8 4 3 2,
		10 13 16 20,
		20 16 19 22,
		4 3 2 1
	")
}

ee = energy('scf')
oeprop('DIPOLE', 'QUADRUPOLE', 'MULLIKEN_CHARGES')
f=open( 'psi4out.xyz', 'w' )
f.write( "27  " )
f.write( str(ee) + "\n" )
f.write( MOL.save_string_xyz() )
f.close()
--------------------------------------------------------------------------

    Molecular point group: c1

    Geometry (in Angstrom), charge = 0, multiplicity = 1:

       Center              X                  Y                   Z               Mass
    ------------   -----------------  -----------------  -----------------  -----------------
           H          2.314870292045     1.142119900177    -0.025156441444     1.007825032070
           O          3.064270292045     0.794915900177    -0.486589441444    15.994914619560
           C          3.292775292045    -0.532691099823    -0.087466441444    12.000000000000
           C          2.262961292045    -1.512121099823    -0.639668441444    12.000000000000
           H          4.276300292045    -0.787190099823    -0.461074441444     1.007825032070
           H          3.331770292045    -0.602632099823     0.998980558556     1.007825032070
           C          0.839005292045    -1.269109099823    -0.133543441444    12.000000000000
           H          2.279390292045    -1.454347099823    -1.724914441444     1.007825032070
           H          2.575275292045    -2.519867099823    -0.370828441444     1.007825032070
           C         -0.039661707955    -0.551366099823    -1.161943441444    12.000000000000
           H          0.880040292045    -0.683278099823     0.780504558556     1.007825032070
           H          0.379098292045    -2.222898099823     0.125518558556     1.007825032070
           C         -1.500470707955    -0.359049099823    -0.738396441444    12.000000000000
           H          0.398592292045     0.417861900177    -1.392979441444     1.007825032070
           H         -0.022154707955    -1.120206099823    -2.089205441444     1.007825032070
           C         -1.708487707955     0.587439900177     0.447084558556    12.000000000000
           H         -2.055598707955     0.026264900177    -1.591145441444     1.007825032070
           H         -1.938188707955    -1.328901099823    -0.506819441444     1.007825032070
           C         -3.185666707955     0.829573900177     0.764497558556    12.000000000000
           H         -1.226874707955     1.540758900177     0.234149558556     1.007825032070
           H         -1.219518707955     0.190314900177     1.333370558556     1.007825032070
           C         -3.396077707955     1.768953900177     1.951492558556    12.000000000000
           H         -3.679555707955     1.241266900177    -0.113038441444     1.007825032070
           H         -3.670756707955    -0.122872099823     0.968015558556     1.007825032070
           H         -2.950120707955     2.741930900177     1.765309558556     1.007825032070
           H         -4.452376707955     1.922108900177     2.150013558556     1.007825032070
           H         -2.945014707955     1.367351900177     2.854609558556     1.007825032070

  Charge       = 0
  Multiplicity = 1
  Basis Set: 6-31G*
  Basis Set:

    Orbital Energies (a.u.)
    -----------------------

    Doubly Occupied:

       1A    -20.553197     2A    -11.267061     3A    -11.218833
       4A    -11.216843     5A    -11.215882     6A    -11.215673
       7A    -11.214775     8A    -11.213962     9A    -11.210154
      10A     -1.359898    11A     -1.095384    12A     -1.061957
      13A     -1.011518    14A     -0.948491    15A     -0.888408
      16A     -0.821179    17A     -0.802034    18A     -0.777307
      19A     -0.697060    20A     -0.649724    21A     -0.640876
      22A     -0.614131    23A     -0.594364    24A     -0.583613
      25A     -0.574673    26A     -0.557141    27A     -0.544067
      28A     -0.532635    29A     -0.512443    30A     -0.495825
      31A     -0.488942    32A     -0.472329    33A     -0.466904
      34A     -0.457427    35A     -0.450315    36A     -0.440281
      37A     -0.423077

  @DF-RHF Final Energy:  -388.27717108426003

   => Energetics <=

    Nuclear Repulsion Energy =            467.7021154709663620
    One-Electron Energy =               -1453.3818465012586785
    Two-Electron Energy =                 597.4025599460326248
    DFT Exchange-Correlation Energy =       0.0000000000000000
    Empirical Dispersion Energy =           0.0000000000000000
    PCM Polarization Energy =               0.0000000000000000
    EFP Energy =                            0.0000000000000000
    Total Energy =                       -388.2771710842596349

  Mulliken Charges: (a.u.)
   Center  Symbol    Alpha    Beta     Spin     Total
       1     H     0.27948  0.27948  0.00000  0.44103
       2     O     4.37051  4.37051  0.00000 -0.74101
       3     C     2.99937  2.99937  0.00000  0.00127
       4     C     3.16340  3.16340  0.00000 -0.32679
       5     H     0.41527  0.41527  0.00000  0.16946
       6     H     0.43147  0.43147  0.00000  0.13706
       7     C     3.16569  3.16569  0.00000 -0.33138
       8     H     0.41311  0.41311  0.00000  0.17379
       9     H     0.42149  0.42149  0.00000  0.15702
      10     C     3.15598  3.15598  0.00000 -0.31196
      11     H     0.42621  0.42621  0.00000  0.14759
      12     H     0.41804  0.41804  0.00000  0.16392
      13     C     3.15336  3.15336  0.00000 -0.30673
      14     H     0.42074  0.42074  0.00000  0.15851
      15     H     0.41932  0.41932  0.00000  0.16135
      16     C     3.15369  3.15369  0.00000 -0.30739
      17     H     0.42093  0.42093  0.00000  0.15814
      18     H     0.42393  0.42393  0.00000  0.15215
      19     C     3.15091  3.15091  0.00000 -0.30182
      20     H     0.42648  0.42648  0.00000  0.14703
      21     H     0.42323  0.42323  0.00000  0.15354
      22     C     3.23938  3.23938  0.00000 -0.47876
      23     H     0.42239  0.42239  0.00000  0.15522
      24     H     0.42265  0.42265  0.00000  0.15469
      25     H     0.42182  0.42182  0.00000  0.15636
      26     H     0.41888  0.41888  0.00000  0.16225
      27     H     0.42227  0.42227  0.00000  0.15547

   Total alpha = 37.00000, Total beta = 37.00000, Total charge = -0.00000
