                              Psi4 1.0.54 Driver

  ==> Input File <==

--------------------------------------------------------------------------
set {
	reference rhf
	basis cc-pvtz
}

set_num_threads( 4 )
memory 2 gb

molecule MOL {
0 1

H	 2.614283	 2.028610	 0.296620
O	 3.358864	 1.662087	 -0.142800
C	 3.565468	 0.338079	 0.273842
C	 2.533667	 -0.637565	 -0.272227
H	 4.548038	 0.064914	 -0.086598
H	 3.593945	 0.282242	 1.360360
C	 1.114816	 -0.402372	 0.240993
H	 2.544552	 -0.580764	 -1.356576
H	 2.850574	 -1.642962	 -0.005497
C	 0.113298	 -1.420414	 -0.302504
H	 0.796373	 0.598427	 -0.031033
H	 1.113377	 -0.446476	 1.328807
C	 -1.275998	 -0.859124	 -0.610831
H	 0.522026	 -1.879335	 -1.199476
H	 0.006439	 -2.221031	 0.424175
C	 -1.329291	 0.134474	 -1.769997
H	 -1.936876	 -1.690971	 -0.838423
H	 -1.679732	 -0.390051	 0.283665
C	 -2.748220	 0.588977	 -2.102377
H	 -0.884004	 -0.320578	 -2.652106
H	 -0.726551	 1.008196	 -1.541266
C	 -2.804704	 1.583942	 -3.256824
H	 -3.355184	 -0.278850	 -2.345377
H	 -3.197532	 1.036215	 -1.219678
H	 -2.391642	 1.154927	 -4.163777
H	 -3.824892	 1.883427	 -3.468087
H	 -2.237664	 2.480638	 -3.029333

	symmetry c1
}
set optking {
	frozen_dihedral = ("
		14 10 7 4
	")
}

ee,wfn = optimize('scf', return_wfn=True)
oeprop( wfn, 'DIPOLE', 'QUADRUPOLE', 'MULLIKEN_CHARGES')
f=open( 'psi4out.xyz', 'w' )
f.write( "27  " )
f.write( str(ee) + "\n" )
f.write( MOL.save_string_xyz() )
f.close()
--------------------------------------------------------------------------

    Molecular point group: c1
  Charge       = 0
  Multiplicity = 1
  Basis Set: CC-PVTZ
  Basis Set:
  @DF-RHF Final Energy:  -388.42369833915336
    Total Energy =                       -388.4236983391534750
    Molecular point group: c1
  Basis Set: CC-PVTZ
  Basis Set:
  Basis Set: CC-PVTZ
  Basis Set:
  @DF-RHF Final Energy:  -388.42325962262930
    Total Energy =                       -388.4232596226291889
  Basis Set: CC-PVTZ
  Basis Set:
  Basis Set: CC-PVTZ
  Basis Set:
  @DF-RHF Final Energy:  -388.42407103034981
    Total Energy =                       -388.4240710303490687
  Basis Set: CC-PVTZ
  Basis Set:
  Basis Set: CC-PVTZ
  Basis Set:
  @DF-RHF Final Energy:  -388.42416424505336
    Total Energy =                       -388.4241642450527934
  Basis Set: CC-PVTZ
  Basis Set:
  Basis Set: CC-PVTZ
  Basis Set:
  @DF-RHF Final Energy:  -388.42422597937036
    Total Energy =                       -388.4242259793701351
  Basis Set: CC-PVTZ
  Basis Set:
  Basis Set: CC-PVTZ
  Basis Set:
  @DF-RHF Final Energy:  -388.42422802092881
    Total Energy =                       -388.4242280209284672
  Basis Set: CC-PVTZ
  Basis Set:
  Basis Set: CC-PVTZ
  Basis Set:
  @DF-RHF Final Energy:  -388.42423017019678
    Total Energy =                       -388.4242301701964379
  Basis Set: CC-PVTZ
  Basis Set:
  Charge       = 0
  Multiplicity = 1
  Basis Set: CC-PVTZ
  Basis Set:

    Orbital Energies (a.u.)
    -----------------------

    Doubly Occupied:

       1A    -20.545437     2A    -11.264875     3A    -11.216658
       4A    -11.214283     5A    -11.213586     6A    -11.213130
       7A    -11.213050     8A    -11.210878     9A    -11.206183
      10A     -1.363288    11A     -1.094962    12A     -1.061400
      13A     -1.012086    14A     -0.948672    15A     -0.888128
      16A     -0.821436    17A     -0.798592    18A     -0.780949
      19A     -0.697331    20A     -0.646926    21A     -0.637672
      22A     -0.616366    23A     -0.607707    24A     -0.583556
      25A     -0.576629    26A     -0.554362    27A     -0.542133
      28A     -0.526755    29A     -0.506199    30A     -0.498839
      31A     -0.482404    32A     -0.473311    33A     -0.469815
      34A     -0.459986    35A     -0.451811    36A     -0.440853
      37A     -0.425547

  @DF-RHF Final Energy:  -388.42423025867566

   => Energetics <=

    Nuclear Repulsion Energy =            463.1228522648868307
    One-Electron Energy =               -1444.5625780816885708
    Two-Electron Energy =                 593.0154955581267586
    DFT Exchange-Correlation Energy =       0.0000000000000000
    Empirical Dispersion Energy =           0.0000000000000000
    PCM Polarization Energy =               0.0000000000000000
    EFP Energy =                            0.0000000000000000
    Total Energy =                       -388.4242302586749247
    Molecular point group: c1
  Basis Set: CC-PVTZ
  Basis Set:

  -Total Gradient:
     Atom            X                  Y                   Z
    ------   -----------------  -----------------  -----------------
       1        0.000005323160    -0.000006895333    -0.000000101341
       2        0.000010098719    -0.000001815523    -0.000008171894
       3       -0.000019841065    -0.000003440293     0.000020165019
       4       -0.000443498706     0.001643154862    -0.002006568306
       5       -0.000007963717     0.000007048934    -0.000002538698
       6        0.000002476216    -0.000001718949    -0.000006313425
       7        0.000996147370    -0.002906752512     0.003254421400
       8       -0.000000033209     0.000000202752     0.000008062585
       9       -0.000004813105     0.000007690290    -0.000003162352
      10       -0.002027847822     0.003899873079    -0.003187369343
      11        0.000003586866    -0.000004540578    -0.000001280198
      12        0.000002806542     0.000008214919    -0.000001845169
      13       -0.000006333011    -0.000012386638    -0.000005707450
      14        0.001489082838    -0.002641496240     0.001937877912
      15       -0.000002461072     0.000001965188    -0.000008170114
      16        0.000006503822     0.000004550476     0.000010146635
      17       -0.000000336499     0.000002387691     0.000003062600
      18        0.000000720017     0.000001549713    -0.000008063172
      19        0.000000594091     0.000004136084     0.000002065862
      20       -0.000002469208     0.000006171037     0.000008564873
      21       -0.000004714373    -0.000003682170     0.000000762766
      22       -0.000001845277    -0.000004561522    -0.000005129114
      23        0.000005147635     0.000007708678     0.000002669247
      24        0.000005115489    -0.000001944359    -0.000008908265
      25        0.000000135541     0.000004581075     0.000006243775
      26        0.000001368117    -0.000001134790    -0.000002833489
      27       -0.000006949353    -0.000008865875     0.000002119658

  **** Optimization is complete! (in 8 steps) ****
    Final optimized geometry and variables:
    Molecular point group: c1

    Geometry (in Angstrom), charge = 0, multiplicity = 1:

    H            2.309742768415     1.836028821713     1.412499800551
    O            3.056078973098     1.509992824278     0.945230255485
    C            3.255794789559     0.151756917602     1.236648603952
    C            2.226683906344    -0.763841491598     0.591604595983
    H            4.241188956769    -0.089379247587     0.861344835081
    H            3.273469609188    -0.006493108674     2.313168855080
    C            0.798399105440    -0.553520537014     1.089803990935
    H            2.256579952654    -0.619404844067    -0.483863670032
    H            2.529786873072    -1.791497858813     0.780323200692
    C           -0.207410320159    -1.556551141636     0.498689518497
    H            0.490956137751     0.455709583586     0.836621450215
    H            0.773728043831    -0.615383012163     2.174608165745
    C           -1.600678359434    -0.988400628508     0.226248750198
    H            0.199983624293    -1.991855197239    -0.409518016969
    H           -0.302730104812    -2.390582276686     1.187581917107
    C           -1.679673974563    -0.067994349511    -0.990286579292
    H           -2.292551694175    -1.812975400460     0.080048910103
    H           -1.948757358207    -0.456100363901     1.108838788962
    C           -3.075660789556     0.504252198625    -1.221700882090
    H           -1.370243803861    -0.622946004719    -1.872865534422
    H           -0.975099422061     0.752184895984    -0.887399828522
    C           -3.159235546610     1.403929956808    -2.450256688838
    H           -3.785681909519    -0.311876323931    -1.324524434496
    H           -3.383351419186     1.065304494827    -0.343387163367
    H           -2.891447288641     0.861857320112    -3.351105505565
    H           -4.161895577739     1.793300027470    -2.584887060890
    H           -2.485169448772     2.249590752542    -2.362955254816

  Mulliken Charges: (a.u.)
   Center  Symbol    Alpha    Beta     Spin     Total
       1     H     0.39216  0.39216  0.00000  0.21568
       2     O     4.20584  4.20584  0.00000 -0.41168
       3     C     2.97989  2.97989  0.00000  0.04022
       4     C     3.08827  3.08827  0.00000 -0.17655
       5     H     0.44891  0.44891  0.00000  0.10217
       6     H     0.46951  0.46951  0.00000  0.06099
       7     C     3.10936  3.10936  0.00000 -0.21873
       8     H     0.45074  0.45074  0.00000  0.09851
       9     H     0.45510  0.45510  0.00000  0.08981
      10     C     3.10252  3.10252  0.00000 -0.20504
      11     H     0.45612  0.45612  0.00000  0.08776
      12     H     0.44716  0.44716  0.00000  0.10569
      13     C     3.09731  3.09731  0.00000 -0.19461
      14     H     0.45263  0.45263  0.00000  0.09473
      15     H     0.44647  0.44647  0.00000  0.10706
      16     C     3.08810  3.08810  0.00000 -0.17620
      17     H     0.44753  0.44753  0.00000  0.10494
      18     H     0.45427  0.45427  0.00000  0.09145
      19     C     3.08462  3.08462  0.00000 -0.16924
      20     H     0.45406  0.45406  0.00000  0.09188
      21     H     0.45234  0.45234  0.00000  0.09532
      22     C     3.14964  3.14964  0.00000 -0.29928
      23     H     0.45412  0.45412  0.00000  0.09175
      24     H     0.45485  0.45485  0.00000  0.09030
      25     H     0.45501  0.45501  0.00000  0.08997
      26     H     0.44857  0.44857  0.00000  0.10285
      27     H     0.45488  0.45488  0.00000  0.09025

   Total alpha = 37.00000, Total beta = 37.00000, Total charge = -0.00000

*** Psi4 exiting successfully. Buy a developer a beer!
