                              Psi4 1.0.54 Driver

  ==> Input File <==

--------------------------------------------------------------------------
set {
	reference rhf
	basis cc-pvtz
}

set_num_threads( 4 )
memory 2 gb

molecule MOL {
0 1

O	 1.219389	 1.299310	 0.111865
C	 1.121787	 0.124983	 0.000110
C	 -0.170912	 -0.649867	 -0.000147
O	 2.163486	 -0.678035	 -0.142732
C	 -1.413045	 0.229353	 0.001137
H	 -0.152877	 -1.303435	 -0.866175
H	 -0.152278	 -1.305116	 0.864586
C	 -2.702562	 -0.586401	 0.000228
H	 -1.390744	 0.882001	 -0.864365
H	 -1.390549	 0.879837	 0.868264
C	 -3.953810	 0.284959	 -0.000782
H	 -2.717793	 -1.238567	 -0.869075
H	 -2.719108	 -1.238472	 0.869576
H	 -3.983727	 0.924403	 -0.876454
H	 -4.852989	 -0.320147	 -0.001515
H	 -3.985140	 0.924399	 0.874841
C	 3.444789	 -0.081971	 -0.159737
H	 3.530393	 0.614767	 -0.980381
H	 4.147369	 -0.890106	 -0.282891
H	 3.635082	 0.439560	 0.766555

	symmetry c1
}
set optking {
	frozen_dihedral = ("
		1 2 3 6
	")
}

ee,wfn = optimize('scf', return_wfn=True)
oeprop( wfn, 'DIPOLE', 'QUADRUPOLE', 'MULLIKEN_CHARGES')
f=open( 'psi4out.xyz', 'w' )
f.write( "20  " )
f.write( str(ee) + "\n" )
f.write( MOL.save_string_xyz() )
f.close()
--------------------------------------------------------------------------

    Molecular point group: c1
  Charge       = 0
  Multiplicity = 1
  Basis Set: CC-PVTZ
  Basis Set:
  @DF-RHF Final Energy:  -384.08322898602682
    Total Energy =                       -384.0832289860269384
    Molecular point group: c1
  Basis Set: CC-PVTZ
  Basis Set:
  Basis Set: CC-PVTZ
  Basis Set:
  @DF-RHF Final Energy:  -384.08304959197773
    Total Energy =                       -384.0830495919772147
  Basis Set: CC-PVTZ
  Basis Set:
  Basis Set: CC-PVTZ
  Basis Set:
  @DF-RHF Final Energy:  -384.08324496663778
    Total Energy =                       -384.0832449666377215
  Basis Set: CC-PVTZ
  Basis Set:
  Basis Set: CC-PVTZ
  Basis Set:
  @DF-RHF Final Energy:  -384.08324997236105
    Total Energy =                       -384.0832499723612727
  Basis Set: CC-PVTZ
  Basis Set:
  Charge       = 0
  Multiplicity = 1
  Basis Set: CC-PVTZ
  Basis Set:

    Orbital Energies (a.u.)
    -----------------------

    Doubly Occupied:

       1A    -20.596477     2A    -20.534181     3A    -11.364722
       4A    -11.278559     5A    -11.233949     6A    -11.218485
       7A    -11.217395     8A    -11.208789     9A     -1.472335
      10A     -1.365895    11A     -1.090041    12A     -1.025541
      13A     -0.969980    14A     -0.886490    15A     -0.804634
      16A     -0.769651    17A     -0.699091    18A     -0.686836
      19A     -0.675899    20A     -0.647111    21A     -0.599017
      22A     -0.592538    23A     -0.580175    24A     -0.541052
      25A     -0.538205    26A     -0.524226    27A     -0.501179
      28A     -0.479016    29A     -0.475102    30A     -0.471591
      31A     -0.459445    32A     -0.440094

  @DF-RHF Final Energy:  -384.08325006829546

   => Energetics <=

    Nuclear Repulsion Energy =            381.7171614524079359
    One-Electron Energy =               -1279.7054140513478160
    Two-Electron Energy =                 513.9050025306443104
    DFT Exchange-Correlation Energy =       0.0000000000000000
    Empirical Dispersion Energy =           0.0000000000000000
    PCM Polarization Energy =               0.0000000000000000
    EFP Energy =                            0.0000000000000000
    Total Energy =                       -384.0832500682955697
    Molecular point group: c1
  Basis Set: CC-PVTZ
  Basis Set:

  -Total Gradient:
     Atom            X                  Y                   Z
    ------   -----------------  -----------------  -----------------
       1        0.000022006191    -0.000077863621     0.000271075470
       2       -0.000044425488     0.000068262299    -0.000381352600
       3       -0.000121347776     0.000213749625    -0.000016790758
       4        0.000028590924    -0.000001674678    -0.000024206306
       5       -0.000003051262    -0.000004275856    -0.000014489694
       6        0.000117532009    -0.000172727787     0.000144041733
       7       -0.000006344642    -0.000007469102    -0.000001135512
       8       -0.000001943861     0.000002717707    -0.000004727007
       9       -0.000000013749    -0.000005146227     0.000005324324
      10        0.000000232502     0.000000828140     0.000000494657
      11       -0.000002633138    -0.000000351177     0.000002612333
      12        0.000000540099     0.000001099579     0.000000443323
      13        0.000000800611     0.000001734448    -0.000002733002
      14        0.000000930135    -0.000002562872     0.000001824031
      15       -0.000000860089     0.000000895585     0.000001031209
      16       -0.000000328710     0.000000534659    -0.000001548631
      17        0.000017182053    -0.000021361560     0.000040014232
      18       -0.000017728831    -0.000010731421     0.000007627221
      19        0.000005464868     0.000017549143    -0.000004427251
      20        0.000005398154    -0.000003206881    -0.000023077772

  **** Optimization is complete! (in 5 steps) ****
    Final optimized geometry and variables:
    Molecular point group: c1

    Geometry (in Angstrom), charge = 0, multiplicity = 1:

    O            1.219820253554     1.298335014415     0.120557854084
    C            1.122279237939     0.123713104552     0.012090726437
    C           -0.170921249568    -0.650314600237     0.009433365105
    O            2.164938706332    -0.681254755754    -0.111849490904
    C           -1.412693716055     0.229403786366     0.017527624544
    H           -0.156294570651    -1.308575471739    -0.852227546502
    H           -0.148996580818    -1.301628842296     0.877934695174
    C           -2.702600035196    -0.585695034105     0.026970416750
    H           -1.396621400136     0.879843568686    -0.850252208525
    H           -1.383285375232     0.881954722184     0.882422839404
    C           -3.953432304640     0.286264255815     0.034100285733
    H           -2.724719273756    -1.239314973588    -0.841066166942
    H           -2.712787550206    -1.236301854671     0.897518036295
    H           -3.990005276764     0.924037709284    -0.842551568084
    H           -4.852869849788    -0.318402037386     0.041545101749
    H           -3.977574020286     0.927405451724     0.908684046242
    C            3.447442077295    -0.087679287157    -0.104214800169
    H            3.549789179030     0.609121002516    -0.922826241665
    H            4.150799840396    -0.897006621973    -0.214309531866
    H            3.621163973208     0.433291279268     0.825647788165

  Mulliken Charges: (a.u.)
   Center  Symbol    Alpha    Beta     Spin     Total
       1     O     4.19693  4.19693  0.00000 -0.39387
       2     C     2.80696  2.80696  0.00000  0.38608
       3     C     3.09979  3.09979  0.00000 -0.19957
       4     O     4.14649  4.14649  0.00000 -0.29297
       5     C     3.08137  3.08137  0.00000 -0.16275
       6     H     0.43953  0.43953  0.00000  0.12093
       7     H     0.44109  0.44109  0.00000  0.11781
       8     C     3.08692  3.08692  0.00000 -0.17383
       9     H     0.44805  0.44805  0.00000  0.10389
      10     H     0.44547  0.44547  0.00000  0.10907
      11     C     3.14922  3.14922  0.00000 -0.29843
      12     H     0.45530  0.45530  0.00000  0.08940
      13     H     0.45516  0.45516  0.00000  0.08969
      14     H     0.45398  0.45398  0.00000  0.09205
      15     H     0.44837  0.44837  0.00000  0.10326
      16     H     0.45376  0.45376  0.00000  0.09249
      17     C     3.03759  3.03759  0.00000 -0.07519
      18     H     0.45432  0.45432  0.00000  0.09136
      19     H     0.44533  0.44533  0.00000  0.10935
      20     H     0.45438  0.45438  0.00000  0.09125

   Total alpha = 32.00000, Total beta = 32.00000, Total charge = -0.00000

*** Psi4 exiting successfully. Buy a developer a beer!
