  ==> Input File <==

--------------------------------------------------------------------------
set {
	reference rhf
	basis cc-pvtz
}

set_num_threads( 4 )
memory 2 gb

molecule MOL {
0 1

O	 1.287795	 0.249054	 -0.943022
C	 0.576499	 0.134701	 -0.003900
C	 -0.765656	 -0.550508	 -0.002152
O	 0.872724	 0.614070	 1.192941
C	 -1.945526	 0.411052	 0.000603
H	 -0.794329	 -1.203792	 -0.868145
H	 -0.791555	 -1.205429	 0.862701
C	 -3.282915	 -0.321280	 0.002596
H	 -1.880300	 1.059126	 -0.864925
H	 -1.877207	 1.057892	 0.866807
H	 -3.388495	 -0.952755	 -0.873419
H	 -4.107811	 0.380864	 0.004116
H	 -3.385717	 -0.953283	 0.878571
C	 2.106730	 1.288739	 1.334576
H	 2.929942	 0.630734	 1.099188
H	 2.159802	 1.597357	 2.365899
H	 2.146883	 2.150253	 0.684788

	symmetry c1
}
set optking {
	frozen_dihedral = ("
		1 2 3 6
	")
}

ee = optimize('scf')
oeprop('DIPOLE', 'QUADRUPOLE', 'MULLIKEN_CHARGES')
f=open( 'psi4out.xyz', 'w' )
f.write( "17  " )
f.write( str(ee) + "\n" )
f.write( MOL.save_string_xyz() )
f.close()
--------------------------------------------------------------------------

    Molecular point group: c1
  Charge       = 0
  Multiplicity = 1
  Basis Set: CC-PVTZ
  Basis Set:
  @DF-RHF Final Energy:  -345.03374006084567
    Total Energy =                       -345.0337400608453322
    Molecular point group: c1
  Basis Set: CC-PVTZ
  Basis Set:
  Basis Set: CC-PVTZ
  Basis Set:
  @DF-RHF Final Energy:  -345.03407039317074
    Total Energy =                       -345.0340703931714188
  Basis Set: CC-PVTZ
  Basis Set:
  Basis Set: CC-PVTZ
  Basis Set:
  @DF-RHF Final Energy:  -345.03311384329970
    Total Energy =                       -345.0331138432993612
  Basis Set: CC-PVTZ
  Basis Set:
  Basis Set: CC-PVTZ
  Basis Set:
  @DF-RHF Final Energy:  -345.03424804917472
    Total Energy =                       -345.0342480491744936
  Basis Set: CC-PVTZ
  Basis Set:
  Basis Set: CC-PVTZ
  Basis Set:
  @DF-RHF Final Energy:  -345.03425582147759
    Total Energy =                       -345.0342558214778705
  Basis Set: CC-PVTZ
  Basis Set:
  Charge       = 0
  Multiplicity = 1
  Basis Set: CC-PVTZ
  Basis Set:

    Orbital Energies (a.u.)
    -----------------------

    Doubly Occupied:

       1A    -20.597439     2A    -20.532736     3A    -11.363602
       4A    -11.278700     5A    -11.232732     6A    -11.230495
       7A    -11.216937     8A     -1.472057     9A     -1.364791
      10A     -1.085679    11A     -1.000531    12A     -0.942415
      13A     -0.831211    14A     -0.776166    15A     -0.699624
      16A     -0.683264    17A     -0.676377    18A     -0.638171
      19A     -0.596980    20A     -0.582181    21A     -0.551970
      22A     -0.546154    23A     -0.527605    24A     -0.509217
      25A     -0.489507    26A     -0.485197    27A     -0.458346
      28A     -0.435293

  @DF-RHF Final Energy:  -345.03425602909289

   => Energetics <=

    Nuclear Repulsion Energy =            314.6060198241793273
    One-Electron Energy =               -1093.6698064656284259
    Two-Electron Energy =                 434.0295306123557566
    DFT Exchange-Correlation Energy =       0.0000000000000000
    Empirical Dispersion Energy =           0.0000000000000000
    PCM Polarization Energy =               0.0000000000000000
    EFP Energy =                            0.0000000000000000
    Total Energy =                       -345.0342560290932852
    Molecular point group: c1
  Basis Set: CC-PVTZ
  Basis Set:

  -Total Gradient:
     Atom            X                  Y                   Z
    ------   -----------------  -----------------  -----------------
       1       -0.000013183012     0.000016294888     0.000034834239
       2        0.000029438924    -0.000037116656    -0.000078492212
       3       -0.000025973139     0.000036899371    -0.000002840231
       4        0.000014498162     0.000012635383     0.000035842685
       5        0.000022991427    -0.000016239023     0.000013643161
       6        0.000013251869    -0.000003562190     0.000018179225
       7       -0.000005590882    -0.000001219841     0.000000745214
       8       -0.000017572426    -0.000002225497    -0.000007153344
       9       -0.000005030776     0.000002673516    -0.000000514201
      10       -0.000002756005    -0.000003570877     0.000003134102
      11        0.000004389730    -0.000002615005     0.000002800947
      12       -0.000003110022     0.000001235990    -0.000004295148
      13        0.000004688925     0.000006283628    -0.000000582889
      14       -0.000022678135    -0.000007210988    -0.000017665579
      15        0.000007135432    -0.000001894642     0.000000099116
      16       -0.000002885369    -0.000002589368     0.000000423773
      17        0.000002385301     0.000002221312     0.000001841144

  **** Optimization is complete! (in 6 steps) ****
    Final optimized geometry and variables:
    Molecular point group: c1

    Geometry (in Angstrom), charge = 0, multiplicity = 1:

    O            1.393436897097    -0.002490986912    -1.185030852129
    C            0.710981554946    -0.151572574596    -0.228820597674
    C           -0.618667874721    -0.858328196393    -0.225069652063
    O            1.029401607510     0.314294149131     0.967866692022
    C           -1.787100395944     0.133817406415    -0.228076139839
    H           -0.654486434471    -1.482252419138    -1.106866352806
    H           -0.676901676432    -1.490347817141     0.652689117211
    C           -3.138377399396    -0.570976019303    -0.253247894400
    H           -1.698447909021     0.782178209950    -1.093437066134
    H           -1.721104253954     0.767127160959     0.649072164387
    H           -3.239104062320    -1.193419071435    -1.135566247772
    H           -3.949059423890     0.147728039751    -0.260186328727
    H           -3.264953596726    -1.205685982345     0.617168728917
    C            2.240477467711     1.033844611522     1.082316485041
    H            3.079747721670     0.412456051417     0.807466570817
    H            2.316577738422     1.326269300638     2.117030896770
    H            2.226202359167     1.907481576958     0.447660623310

  Mulliken Charges: (a.u.)
   Center  Symbol    Alpha    Beta     Spin     Total
       1     O     4.20170  4.20170  0.00000 -0.40341
       2     C     2.80614  2.80614  0.00000  0.38773
       3     C     3.07781  3.07781  0.00000 -0.15563
       4     O     4.15038  4.15038  0.00000 -0.30077
       5     C     3.09348  3.09348  0.00000 -0.18697
       6     H     0.43873  0.43873  0.00000  0.12254
       7     H     0.44593  0.44593  0.00000  0.10814
       8     C     3.15115  3.15115  0.00000 -0.30229
       9     H     0.44578  0.44578  0.00000  0.10844
      10     H     0.44582  0.44582  0.00000  0.10837
      11     H     0.45284  0.45284  0.00000  0.09433
      12     H     0.44615  0.44615  0.00000  0.10771
      13     H     0.45416  0.45416  0.00000  0.09169
      14     C     3.03715  3.03715  0.00000 -0.07429
      15     H     0.45275  0.45275  0.00000  0.09450
      16     H     0.44550  0.44550  0.00000  0.10900
      17     H     0.45454  0.45454  0.00000  0.09093

   Total alpha = 28.00000, Total beta = 28.00000, Total charge = -0.00000
