  ==> Input File <==

--------------------------------------------------------------------------
set {
	reference rhf
	basis 6-31G*
}

set_num_threads( 4 )
memory 2 gb

molecule MOL {
0 1

H	 -2.798360	 -0.862255	 -0.071053
N	 -1.863561	 -0.715187	 0.256814
C	 -1.344686	 0.554728	 -0.219830
H	 -1.300452	 -1.461917	 -0.101532
C	 0.081427	 0.741154	 0.254071
H	 -1.362155	 0.656231	 -1.305829
H	 -1.952773	 1.354456	 0.191809
O	 0.056867	 1.492828	 1.433677
H	 0.547177	 -0.227011	 0.436750
H	 0.656359	 1.258295	 -0.510947
C	 1.314582	 1.813388	 1.936636
H	 1.169420	 2.388263	 2.841148
H	 1.886933	 0.919128	 2.176833
H	 1.886228	 2.408943	 1.227874

	symmetry c1
}
set optking {
	frozen_dihedral = ("
		8 5 3 6
	")
}

ee = optimize('scf')
oeprop('DIPOLE', 'QUADRUPOLE', 'MULLIKEN_CHARGES')
f=open( 'psi4out.xyz', 'w' )
f.write( "14  " )
f.write( str(ee) + "\n" )
f.write( MOL.save_string_xyz() )
f.close()
--------------------------------------------------------------------------

    Molecular point group: c1
  Charge       = 0
  Multiplicity = 1
  Basis Set: 6-31G*
  Basis Set:
  @DF-RHF Final Energy:  -248.11644731053997
    Total Energy =                       -248.1164473105401385
    Molecular point group: c1
  Basis Set: 6-31G*
  Basis Set:
  Basis Set: 6-31G*
  Basis Set:
  @DF-RHF Final Energy:  -248.11738512974793
    Total Energy =                       -248.1173851297479587
  Basis Set: 6-31G*
  Basis Set:
  Basis Set: 6-31G*
  Basis Set:
  @DF-RHF Final Energy:  -248.11766054509170
    Total Energy =                       -248.1176605450916668
  Basis Set: 6-31G*
  Basis Set:
  Basis Set: 6-31G*
  Basis Set:
  @DF-RHF Final Energy:  -248.11771719558320
    Total Energy =                       -248.1177171955831682
  Basis Set: 6-31G*
  Basis Set:
  Basis Set: 6-31G*
  Basis Set:
  @DF-RHF Final Energy:  -248.11772484263511
    Total Energy =                       -248.1177248426350843
  Basis Set: 6-31G*
  Basis Set:
  Basis Set: 6-31G*
  Basis Set:
  @DF-RHF Final Energy:  -248.11772922137774
    Total Energy =                       -248.1177292213778287
  Basis Set: 6-31G*
  Basis Set:
  Basis Set: 6-31G*
  Basis Set:
  @DF-RHF Final Energy:  -248.11773099807954
    Total Energy =                       -248.1177309980795371
  Basis Set: 6-31G*
  Basis Set:
  Charge       = 0
  Multiplicity = 1
  Basis Set: 6-31G*
  Basis Set:

    Orbital Energies (a.u.)
    -----------------------

    Doubly Occupied:

       1A    -20.550343     2A    -15.534972     3A    -11.264794
       4A    -11.260948     5A    -11.241827     6A     -1.375794
       7A     -1.177336     8A     -0.996965     9A     -0.900436
      10A     -0.821335    11A     -0.678498    12A     -0.668526
      13A     -0.643174    14A     -0.618263    15A     -0.604663
      16A     -0.534905    17A     -0.524697    18A     -0.501623
      19A     -0.465688    20A     -0.411012    21A     -0.383473

  @DF-RHF Final Energy:  -248.11773105847539

   => Energetics <=

    Nuclear Repulsion Energy =            192.1718896353152104
    One-Electron Energy =                -718.2606992976126321
    Two-Electron Energy =                 277.9710786038218089
    DFT Exchange-Correlation Energy =       0.0000000000000000
    Empirical Dispersion Energy =           0.0000000000000000
    PCM Polarization Energy =               0.0000000000000000
    EFP Energy =                            0.0000000000000000
    Total Energy =                       -248.1177310584756128
    Molecular point group: c1
  Basis Set: 6-31G*
  Basis Set:

  -Total Gradient:
     Atom            X                  Y                   Z
    ------   -----------------  -----------------  -----------------
       1        0.000000864145     0.000001188334    -0.000000151750
       2        0.000004784688     0.000006488030    -0.000004626081
       3        0.000960095083    -0.003496095457    -0.000815897933
       4        0.000000434038     0.000000298151     0.000000554811
       5       -0.000222178703    -0.002179728074     0.001999555040
       6       -0.000774717485     0.003378332915     0.000293957912
       7        0.000000748344    -0.000001065331     0.000000354527
       8        0.000037881455     0.002291869308    -0.001469646209
       9       -0.000000579206    -0.000002275759    -0.000004052198
      10       -0.000003271117    -0.000001171237     0.000000273544
      11       -0.000000655013     0.000003335114     0.000001181177
      12       -0.000000687750     0.000000397199     0.000000341559
      13       -0.000002078883    -0.000001949078    -0.000000819477
      14       -0.000000639598     0.000000375880    -0.000001024923

  **** Optimization is complete! (in 8 steps) ****
    Final optimized geometry and variables:
    Molecular point group: c1

    Geometry (in Angstrom), charge = 0, multiplicity = 1:

    H           -2.473986143677    -1.603633415579    -0.582532991713
    N           -1.484357471869    -1.525969891390    -0.452188087972
    C           -0.992635538646    -0.259097133478    -0.968713290896
    H           -1.064461022217    -2.296606884139    -0.935702194187
    C            0.431332833759     0.024474702379    -0.501674661728
    H           -1.040248840354    -0.174661319031    -2.056115195269
    H           -1.618666595736     0.532046569297    -0.575134589682
    O            0.389680038109     0.784118969761     0.668286002156
    H            0.962589433799    -0.910835660136    -0.331543345679
    H            0.975535894905     0.575215844716    -1.269582989074
    C            1.636117941331     1.020781213809     1.237375422528
    H            1.482672546134     1.624011701803     2.121739007135
    H            2.126227387207     0.092629759710     1.525466414219
    H            2.292374101902     1.558998558128     0.554522025303

  Mulliken Charges: (a.u.)
   Center  Symbol    Alpha    Beta     Spin     Total
       1     H     0.33081  0.33081  0.00000  0.33837
       2     N     3.91954  3.91954  0.00000 -0.83908
       3     C     3.07768  3.07768  0.00000 -0.15536
       4     H     0.33561  0.33561  0.00000  0.32878
       5     C     2.98143  2.98143  0.00000  0.03713
       6     H     0.43216  0.43216  0.00000  0.13567
       7     H     0.40418  0.40418  0.00000  0.19164
       8     O     4.30210  4.30210  0.00000 -0.60421
       9     H     0.42985  0.42985  0.00000  0.14030
      10     H     0.43377  0.43377  0.00000  0.13246
      11     C     3.07922  3.07922  0.00000 -0.15845
      12     H     0.41218  0.41218  0.00000  0.17564
      13     H     0.42904  0.42904  0.00000  0.14193
      14     H     0.43241  0.43241  0.00000  0.13517

   Total alpha = 21.00000, Total beta = 21.00000, Total charge =  0.00000
