                              Psi4 1.0.54 Driver

  ==> Input File <==

--------------------------------------------------------------------------
set {
	reference rhf
	basis cc-pvtz
}

set_num_threads( 4 )
memory 2 gb

molecule MOL {
0 1

O	 0.608743	 -0.174146	 -0.338887
C	 1.704209	 0.119472	 -0.000093
C	 2.136790	 1.481016	 0.480234
O	 2.715427	 -0.733672	 0.000025
C	 1.014586	 2.508873	 0.502381
H	 2.569807	 1.350519	 1.466599
H	 2.951996	 1.802799	 -0.159560
C	 1.487385	 3.874084	 0.992972
H	 0.211849	 2.147870	 1.135281
H	 0.594304	 2.600483	 -0.492737
C	 0.375469	 4.918733	 1.021666
H	 1.910006	 3.774772	 1.990358
H	 2.294531	 4.228946	 0.355927
C	 0.847833	 6.283073	 1.512440
H	 -0.430826	 4.565765	 1.658423
H	 -0.046277	 5.019935	 0.025650
H	 1.243957	 6.221104	 2.520647
H	 0.035050	 7.000045	 1.520661
H	 1.631271	 6.679050	 0.874739
C	 4.020999	 -0.192556	 0.000019
H	 4.182809	 0.412891	 -0.879449
H	 4.692590	 -1.035653	 0.000152
H	 4.182726	 0.413087	 0.879368

	symmetry c1
}
set optking {
	frozen_dihedral = ("
		1 2 4 20
	")
}

ee,wfn = optimize('scf', return_wfn=True)
oeprop( wfn, 'DIPOLE', 'QUADRUPOLE', 'MULLIKEN_CHARGES')
f=open( 'psi4out.xyz', 'w' )
f.write( "23  " )
f.write( str(ee) + "\n" )
f.write( MOL.save_string_xyz() )
f.close()
--------------------------------------------------------------------------

    Molecular point group: c1
  Charge       = 0
  Multiplicity = 1
  Basis Set: CC-PVTZ
  Basis Set:
  @DF-RHF Final Energy:  -423.10644990050218
    Total Energy =                       -423.1064499005022981
    Molecular point group: c1
  Basis Set: CC-PVTZ
  Basis Set:
  Basis Set: CC-PVTZ
  Basis Set:
  @DF-RHF Final Energy:  -423.01125526436044
    Total Energy =                       -423.0112552643602157
  Basis Set: CC-PVTZ
  Basis Set:
  Basis Set: CC-PVTZ
  Basis Set:
  @DF-RHF Final Energy:  -423.09616702803464
    Total Energy =                       -423.0961670280347562
  Basis Set: CC-PVTZ
  Basis Set:
  Basis Set: CC-PVTZ
  Basis Set:
  @DF-RHF Final Energy:  -423.11422590661243
    Total Energy =                       -423.1142259066122051
  Basis Set: CC-PVTZ
  Basis Set:
  @DF-RHF Final Energy:  -423.11523122111589
    Total Energy =                       -423.1152312211156641
  @DF-RHF Final Energy:  -423.08807022609147
    Total Energy =                       -423.0880702260915314
  @DF-RHF Final Energy:  -423.11516808106524
    Total Energy =                       -423.1151680810652351
  @DF-RHF Final Energy:  -423.11578377423587
    Total Energy =                       -423.1157837742352967
  Basis Set: CC-PVTZ
  Basis Set:
  @DF-RHF Final Energy:  -423.11616722710454
    Total Energy =                       -423.1161672271043699
  Basis Set: CC-PVTZ
  Basis Set:
  Basis Set: CC-PVTZ
  Basis Set:
  @DF-RHF Final Energy:  -423.11618786002526
    Total Energy =                       -423.1161878600250930
  Basis Set: CC-PVTZ
  Basis Set:
  Basis Set: CC-PVTZ
  Basis Set:
  @DF-RHF Final Energy:  -423.11618925032207
    Total Energy =                       -423.1161892503220088
  Basis Set: CC-PVTZ
  Basis Set:
  Charge       = 0
  Multiplicity = 1
  Basis Set: CC-PVTZ
  Basis Set:

    Orbital Energies (a.u.)
    -----------------------

    Doubly Occupied:

       1A    -20.593061     2A    -20.529358     3A    -11.366092
       4A    -11.292979     5A    -11.243073     6A    -11.221165
       7A    -11.219744     8A    -11.217288     9A    -11.210256
      10A     -1.465168    11A     -1.367705    12A     -1.097627
      13A     -1.042802    14A     -0.986657    15A     -0.953138
      16A     -0.854934    17A     -0.799723    18A     -0.767357
      19A     -0.701975    20A     -0.690960    21A     -0.675428
      22A     -0.656105    23A     -0.614167    24A     -0.605016
      25A     -0.580629    26A     -0.568390    27A     -0.562926
      28A     -0.538509    29A     -0.519797    30A     -0.510844
      31A     -0.490069    32A     -0.473101    33A     -0.469719
      34A     -0.466554    35A     -0.451043    36A     -0.432558

  @DF-RHF Final Energy:  -423.11618939370328

   => Energetics <=

    Nuclear Repulsion Energy =            455.5862040774820798
    One-Electron Energy =               -1478.9329564280292288
    Two-Electron Energy =                 600.2305629568442100
    DFT Exchange-Correlation Energy =       0.0000000000000000
    Empirical Dispersion Energy =           0.0000000000000000
    PCM Polarization Energy =               0.0000000000000000
    EFP Energy =                            0.0000000000000000
    Total Energy =                       -423.1161893937029390
    Molecular point group: c1
  Basis Set: CC-PVTZ
  Basis Set:

  -Total Gradient:
     Atom            X                  Y                   Z
    ------   -----------------  -----------------  -----------------
       1        0.000890415038     0.001619267552    -0.001250966678
       2       -0.001054078126    -0.001669764597     0.000899662247
       3       -0.000000372178    -0.000007839368    -0.000005888449
       4       -0.000161543025    -0.001114407266     0.001848855653
       5        0.000005703083    -0.000002072756     0.000003458358
       6        0.000001471927     0.000000080753     0.000008158461
       7        0.000008182699    -0.000000113318    -0.000004442195
       8       -0.000005937715     0.000001973694    -0.000005119188
       9       -0.000001549452     0.000000384665    -0.000000994147
      10       -0.000001419152     0.000000403477    -0.000002189279
      11        0.000006036660    -0.000000577281     0.000007469069
      12        0.000001868694    -0.000000885857     0.000003691195
      13        0.000000894043     0.000000094183     0.000001555463
      14       -0.000010269956     0.000008725183     0.000000487600
      15       -0.000001470727    -0.000000019819    -0.000001378046
      16       -0.000001833714     0.000001670942    -0.000002988510
      17        0.000002370726    -0.000002327260     0.000003180870
      18       -0.000001348216     0.000003396802     0.000005693262
      19        0.000003295092     0.000000337037     0.000000581141
      20        0.000324358380     0.001150672002    -0.001500442986
      21       -0.000009466596     0.000025932317    -0.000010590930
      22       -0.000001197161    -0.000011336565    -0.000011940048
      23        0.000005889680    -0.000003594514     0.000014147131

  **** Optimization is complete! (in 12 steps) ****
    Final optimized geometry and variables:
    Molecular point group: c1

    Geometry (in Angstrom), charge = 0, multiplicity = 1:

    O           -0.783044038427    -1.079344964089    -2.047910678013
    C            0.222173300276    -1.168862039295    -1.439277493489
    C            0.500834411142    -0.394388418435    -0.169488122039
    O            1.164232027477    -2.010656971869    -1.866254349632
    C           -0.671504529041     0.471988005593     0.271151426814
    H            0.762037984079    -1.107265492925     0.606683906156
    H            1.383770476867     0.217617842205    -0.323405369982
    C           -0.373117893693     1.241645199584     1.554463959822
    H           -1.544193882330    -0.154928126416     0.410090184573
    H           -0.921811388820     1.162511522081    -0.525213582055
    C           -1.537992252019     2.114538842043     2.012485108238
    H           -0.118403777975     0.542060408229     2.347746695007
    H            0.505006094778     1.867120458306     1.408065784784
    C           -1.241359247464     2.884668114562     3.294751052149
    H           -2.415134142495     1.491198092793     2.160647973674
    H           -1.792812313531     2.814466574311     1.221851690770
    H           -1.016382648361     2.209810979167     4.114042745596
    H           -2.087811839688     3.493023958566     3.591374258093
    H           -0.389091571094     3.544057501979     3.167645753905
    C            2.511306400319    -1.903992629541    -1.481158376922
    H            2.925926281730    -0.944056562795    -1.761208046871
    H            3.034665114898    -2.679099487195    -2.016898783793
    H            2.645483949445    -2.060712927993    -0.419229554460

  Mulliken Charges: (a.u.)
   Center  Symbol    Alpha    Beta     Spin     Total
       1     O     4.17926  4.17926  0.00000 -0.35852
       2     C     2.80261  2.80261  0.00000  0.39479
       3     C     3.13859  3.13859  0.00000 -0.27718
       4     O     4.13118  4.13118  0.00000 -0.26236
       5     C     3.08268  3.08268  0.00000 -0.16535
       6     H     0.43869  0.43869  0.00000  0.12262
       7     H     0.44163  0.44163  0.00000  0.11673
       8     C     3.08774  3.08774  0.00000 -0.17547
       9     H     0.44349  0.44349  0.00000  0.11302
      10     H     0.44346  0.44346  0.00000  0.11309
      11     C     3.08524  3.08524  0.00000 -0.17048
      12     H     0.45630  0.45630  0.00000  0.08739
      13     H     0.45668  0.45668  0.00000  0.08664
      14     C     3.15019  3.15019  0.00000 -0.30037
      15     H     0.45235  0.45235  0.00000  0.09530
      16     H     0.45250  0.45250  0.00000  0.09501
      17     H     0.45538  0.45538  0.00000  0.08923
      18     H     0.44713  0.44713  0.00000  0.10574
      19     H     0.45551  0.45551  0.00000  0.08897
      20     C     3.04642  3.04642  0.00000 -0.09284
      21     H     0.45899  0.45899  0.00000  0.08202
      22     H     0.43304  0.43304  0.00000  0.13391
      23     H     0.46094  0.46094  0.00000  0.07811

   Total alpha = 36.00000, Total beta = 36.00000, Total charge = -0.00000

*** Psi4 exiting successfully. Buy a developer a beer!
