  ==> Input File <==

--------------------------------------------------------------------------
set {
	reference rhf
	basis 6-31G*
}

set_num_threads( 4 )
memory 2 gb

molecule MOL {
0 1

H	 -1.748661	 -2.220942	 -0.005015
C	 -1.343207	 -1.225221	 -0.013879
N	 -0.055091	 -1.100174	 -0.261126
C	 -2.150779	 -0.125890	 0.222726
C	 0.449969	 0.122615	 -0.277109
H	 -3.200618	 -0.238980	 0.422496
N	 -1.660212	 1.097703	 0.209594
C	 -0.371804	 1.219904	 -0.038265
C	 1.928147	 0.267347	 -0.541394
H	 0.029131	 2.217482	 -0.051283
C	 2.618003	 1.180737	 0.477345
H	 2.378694	 -0.718829	 -0.504956
H	 2.080597	 0.652839	 -1.544554
H	 3.682636	 1.241141	 0.275091
H	 2.483746	 0.799145	 1.482751
H	 2.211137	 2.186392	 0.439556

	symmetry c1
}
set optking {
	frozen_dihedral = ("
		12 9 5 3
	")
}

ee = optimize('scf')
oeprop('DIPOLE', 'QUADRUPOLE', 'MULLIKEN_CHARGES')
f=open( 'psi4out.xyz', 'w' )
f.write( "16  " )
f.write( str(ee) + "\n" )
f.write( MOL.save_string_xyz() )
f.close()
--------------------------------------------------------------------------

    Molecular point group: c1
  Charge       = 0
  Multiplicity = 1
  Basis Set: 6-31G*
  Basis Set:
  @DF-RHF Final Energy:  -340.75599781812912
    Total Energy =                       -340.7559978181290603
    Molecular point group: c1
  Basis Set: 6-31G*
  Basis Set:
  Basis Set: 6-31G*
  Basis Set:
  @DF-RHF Final Energy:  -340.75620346374006
    Total Energy =                       -340.7562034637402348
  Basis Set: 6-31G*
  Basis Set:
  Basis Set: 6-31G*
  Basis Set:
  @DF-RHF Final Energy:  -340.75649042973748
    Total Energy =                       -340.7564904297375392
  Basis Set: 6-31G*
  Basis Set:
  Basis Set: 6-31G*
  Basis Set:
  @DF-RHF Final Energy:  -340.75648049855323
    Total Energy =                       -340.7564804985530600
  Basis Set: 6-31G*
  Basis Set:
  Basis Set: 6-31G*
  Basis Set:
  @DF-RHF Final Energy:  -340.75651860553421
    Total Energy =                       -340.7565186055342679
  Basis Set: 6-31G*
  Basis Set:
  Basis Set: 6-31G*
  Basis Set:
  @DF-RHF Final Energy:  -340.75652092781007
    Total Energy =                       -340.7565209278100156
  Basis Set: 6-31G*
  Basis Set:
  Charge       = 0
  Multiplicity = 1
  Basis Set: 6-31G*
  Basis Set:

    Orbital Energies (a.u.)
    -----------------------

    Doubly Occupied:

       1A    -15.586478     2A    -15.581723     3A    -11.282017
       4A    -11.274830     5A    -11.272450     6A    -11.271126
       7A    -11.232801     8A    -11.223181     9A     -1.312792
      10A     -1.221221    11A     -1.084952    12A     -1.015074
      13A     -0.905206    14A     -0.893919    15A     -0.830057
      16A     -0.714352    17A     -0.709938    18A     -0.655748
      19A     -0.618893    20A     -0.607711    21A     -0.576172
      22A     -0.563509    23A     -0.521064    24A     -0.511022
      25A     -0.504651    26A     -0.480840    27A     -0.429119
      28A     -0.394714    29A     -0.344737

  @DF-RHF Final Energy:  -340.75652191267238

   => Energetics <=

    Nuclear Repulsion Energy =            349.2148260780423925
    One-Electron Energy =               -1152.7020985502556414
    Two-Electron Energy =                 462.7307505595405246
    DFT Exchange-Correlation Energy =       0.0000000000000000
    Empirical Dispersion Energy =           0.0000000000000000
    PCM Polarization Energy =               0.0000000000000000
    EFP Energy =                            0.0000000000000000
    Total Energy =                       -340.7565219126727243
    Molecular point group: c1
  Basis Set: 6-31G*
  Basis Set:

  -Total Gradient:
     Atom            X                  Y                   Z
    ------   -----------------  -----------------  -----------------
       1       -0.000015241519     0.000000975353    -0.000023666726
       2        0.000179525687    -0.000070425857     0.000070467307
       3       -0.000365245358    -0.000040100636    -0.001052895419
       4       -0.000011909542     0.000184684016    -0.000034651638
       5        0.000325429279     0.000077521689     0.001673455834
       6        0.000001228321    -0.000010286397     0.000018402693
       7       -0.000139028092    -0.000109572441     0.000000313415
       8        0.000165809017    -0.000060233756    -0.000050473761
       9       -0.000338132195    -0.000069941325    -0.001766583149
      10       -0.000011425067    -0.000002937384     0.000031785581
      11        0.000015712763    -0.000026505522    -0.000015267447
      12        0.000185403113     0.000110745501     0.001159370985
      13       -0.000001918109    -0.000005398616    -0.000032917707
      14       -0.000000473688     0.000010445431     0.000014752427
      15        0.000007918786     0.000011902742     0.000008850916
      16        0.000002346602    -0.000000872798    -0.000000943312

  **** Optimization is complete! (in 7 steps) ****
    Final optimized geometry and variables:
    Molecular point group: c1

    Geometry (in Angstrom), charge = 0, multiplicity = 1:

    H           -1.716480212377    -2.427667553680     0.004172685960
    C           -1.322205626363    -1.427521652495     0.000248851109
    N           -0.026803999410    -1.291198453113    -0.219996739721
    C           -2.142397132181    -0.338000923818     0.214961725920
    C            0.470730257339    -0.068249859882    -0.223794174371
    H           -3.195270157378    -0.457462683674     0.393479517440
    N           -1.660502333737     0.892331420767     0.205779867176
    C           -0.370792531574     1.025065027562    -0.011303748148
    C            1.949305231459     0.086572602202    -0.501827604760
    H            0.015157677651     2.027911244431    -0.022365475762
    C            2.692712079910     0.989864016603     0.487895102533
    H            2.380075902404    -0.906222535990    -0.478634009465
    H            2.082176251856     0.468156133353    -1.511564082095
    H            3.752310467084     1.004842126813     0.255524559703
    H            2.578293138912     0.630095699255     1.505259463139
    H            2.338547384683     2.014539988249     0.454348680814

  Mulliken Charges: (a.u.)
   Center  Symbol    Alpha    Beta     Spin     Total
       1     H     0.39384  0.39384  0.00000  0.21232
       2     C     2.99082  2.99082  0.00000  0.01835
       3     N     3.75744  3.75744  0.00000 -0.51489
       4     C     2.99821  2.99821  0.00000  0.00358
       5     C     2.87317  2.87317  0.00000  0.25367
       6     H     0.39426  0.39426  0.00000  0.21149
       7     N     3.73027  3.73027  0.00000 -0.46053
       8     C     2.99285  2.99285  0.00000  0.01430
       9     C     3.17512  3.17512  0.00000 -0.35025
      10     H     0.39454  0.39454  0.00000  0.21092
      11     C     3.24622  3.24622  0.00000 -0.49244
      12     H     0.39823  0.39823  0.00000  0.20355
      13     H     0.40869  0.40869  0.00000  0.18263
      14     H     0.41392  0.41392  0.00000  0.17216
      15     H     0.41315  0.41315  0.00000  0.17369
      16     H     0.41928  0.41928  0.00000  0.16144

   Total alpha = 29.00000, Total beta = 29.00000, Total charge =  0.00000
