                              Psi4 1.0.54 Driver

  ==> Input File <==

--------------------------------------------------------------------------
set {
	reference rhf
	basis cc-pvtz
}

set_num_threads( 4 )
memory 2 gb

molecule MOL {
0 1

H	 1.955551	 -3.700068	 0.766194
C	 2.192645	 -2.676285	 0.502068
C	 0.928748	 -1.829926	 0.397688
H	 2.862959	 -2.286992	 1.261126
H	 2.734245	 -2.695176	 -0.437789
C	 1.215950	 -0.382441	 0.027187
H	 0.389828	 -1.846941	 1.338454
H	 0.265317	 -2.264249	 -0.346489
N	 0.000002	 0.398953	 -0.040851
H	 1.858385	 0.060069	 0.782588
H	 1.778272	 -0.353318	 -0.910911
C	 -1.215959	 -0.382435	 0.027143
H	 -0.000012	 1.086078	 0.683841
C	 -2.451944	 0.502410	 -0.038737
H	 -1.221867	 -1.069392	 -0.813828
H	 -1.259993	 -0.999709	 0.929424
C	 -3.752217	 -0.292550	 0.005776
H	 -2.407325	 1.093801	 -0.946480
H	 -2.431979	 1.206234	 0.790023
H	 -3.817783	 -0.982946	 -0.828547
H	 -4.612613	 0.364348	 -0.042306
H	 -3.830160	 -0.871666	 0.919868

	symmetry c1
}
set optking {
	frozen_dihedral = ("
		10 6 9 12
	")
}

ee,wfn = optimize('scf', return_wfn=True)
oeprop( wfn, 'DIPOLE', 'QUADRUPOLE', 'MULLIKEN_CHARGES')
f=open( 'psi4out.xyz', 'w' )
f.write( "22  " )
f.write( str(ee) + "\n" )
f.write( MOL.save_string_xyz() )
f.close()
--------------------------------------------------------------------------

    Molecular point group: c1
  Charge       = 0
  Multiplicity = 1
  Basis Set: CC-PVTZ
  Basis Set:
  @DF-RHF Final Energy:  -290.47010054839188
    Total Energy =                       -290.4701005483918834
    Molecular point group: c1
  Basis Set: CC-PVTZ
  Basis Set:
  Basis Set: CC-PVTZ
  Basis Set:
  @DF-RHF Final Energy:  -290.45399708571222
    Total Energy =                       -290.4539970857123876
  Basis Set: CC-PVTZ
  Basis Set:
  Basis Set: CC-PVTZ
  Basis Set:
  @DF-RHF Final Energy:  -290.47634980476511
    Total Energy =                       -290.4763498047648227
  Basis Set: CC-PVTZ
  Basis Set:
  Basis Set: CC-PVTZ
  Basis Set:
  @DF-RHF Final Energy:  -290.47877873617784
    Total Energy =                       -290.4787787361774463
  Basis Set: CC-PVTZ
  Basis Set:
  Basis Set: CC-PVTZ
  Basis Set:
  @DF-RHF Final Energy:  -290.47923641082377
    Total Energy =                       -290.4792364108237734
  Basis Set: CC-PVTZ
  Basis Set:
  Basis Set: CC-PVTZ
  Basis Set:
  @DF-RHF Final Energy:  -290.47932254215209
    Total Energy =                       -290.4793225421522038
  Basis Set: CC-PVTZ
  Basis Set:
  Basis Set: CC-PVTZ
  Basis Set:
  @DF-RHF Final Energy:  -290.47933236527336
    Total Energy =                       -290.4793323652733079
  Basis Set: CC-PVTZ
  Basis Set:
  Charge       = 0
  Multiplicity = 1
  Basis Set: CC-PVTZ
  Basis Set:

    Orbital Energies (a.u.)
    -----------------------

    Doubly Occupied:

       1A    -15.523611     2A    -11.237209     3A    -11.235081
       4A    -11.213016     5A    -11.210532     6A    -11.208509
       7A    -11.206704     8A     -1.198113     9A     -1.057973
      10A     -1.028550    11A     -0.930013    12A     -0.874787
      13A     -0.814095    14A     -0.781037    15A     -0.669121
      16A     -0.626833    17A     -0.620734    18A     -0.611545
      19A     -0.571460    20A     -0.558454    21A     -0.539159
      22A     -0.532697    23A     -0.503311    24A     -0.489771
      25A     -0.481990    26A     -0.473575    27A     -0.464016
      28A     -0.459128    29A     -0.349740

  @DF-RHF Final Energy:  -290.47933299286933

   => Energetics <=

    Nuclear Repulsion Energy =            318.2200325693468130
    One-Electron Energy =               -1022.4572069321463914
    Two-Electron Energy =                 413.7578413699304747
    DFT Exchange-Correlation Energy =       0.0000000000000000
    Empirical Dispersion Energy =           0.0000000000000000
    PCM Polarization Energy =               0.0000000000000000
    EFP Energy =                            0.0000000000000000
    Total Energy =                       -290.4793329928691037
    Molecular point group: c1
  Basis Set: CC-PVTZ
  Basis Set:

  -Total Gradient:
     Atom            X                  Y                   Z
    ------   -----------------  -----------------  -----------------
       1       -0.000006110331    -0.000005370618     0.000009504263
       2        0.000011236285     0.000021693838     0.000018309967
       3       -0.000012963755    -0.000060226152    -0.000041227814
       4        0.000002075300     0.000001489163    -0.000003607690
       5       -0.000011898562    -0.000003980458     0.000003275298
       6        0.001805795632     0.002688079150    -0.001857231159
       7       -0.000021337267     0.000000906263     0.000009423597
       8        0.000022258192     0.000002392479     0.000007630274
       9       -0.000374924225    -0.001205155298    -0.003758099718
      10       -0.001470168062    -0.001936764696     0.002699487011
      11       -0.000006018987     0.000012369908    -0.000004519430
      12        0.000066830155     0.000483537654     0.002876469582
      13        0.000028186547     0.000020722741    -0.000000875936
      14       -0.000002934979    -0.000010072386     0.000004708788
      15       -0.000031633038    -0.000009411769    -0.000000678869
      16        0.000006946121     0.000000175224     0.000008817361
      17       -0.000008670156     0.000006963863     0.000022937425
      18        0.000013686270    -0.000017437801    -0.000001640204
      19       -0.000010529505     0.000007982235     0.000001889481
      20        0.000007706736     0.000010665992    -0.000000669391
      21       -0.000001777648    -0.000003308031     0.000006695578
      22       -0.000005754721    -0.000005251301    -0.000000598414

  **** Optimization is complete! (in 8 steps) ****
    Final optimized geometry and variables:
    Molecular point group: c1

    Geometry (in Angstrom), charge = 0, multiplicity = 1:

    H            2.762999218061    -3.009702674718     0.737327684233
    C            2.856613527971    -1.979170602522     0.415662228732
    C            1.493075860802    -1.297638673312     0.354167965380
    H            3.518198465818    -1.474774196809     1.112183446070
    H            3.339265786551    -1.978990760201    -0.555811608820
    C            1.618119661570     0.155078573591    -0.106448537931
    H            1.027987019284    -1.337756540924     1.333619133395
    H            0.850272341704    -1.852854621614    -0.319417846692
    N            0.383621218150     0.933229583300    -0.215443090816
    H            2.269594131562     0.651985304008     0.605751024313
    H            2.131257709025     0.163736957669    -1.064212467618
    C           -0.903782616925     0.280547000623    -0.094050999553
    H            0.418416194928     1.702765478543     0.414221937777
    C           -2.027348748435     1.295019794418    -0.257021517269
    H           -0.995790971877    -0.467293076619    -0.874365591471
    H           -1.036152850591    -0.241215953962     0.854603957496
    C           -3.412233188401     0.665203129527    -0.156633930703
    H           -1.911211021928     1.791702061051    -1.213725439306
    H           -1.926857479604     2.064640672562     0.504995768658
    H           -3.557586038790    -0.085971267232    -0.925836061091
    H           -4.189180647572     1.411320235430    -0.274617691952
    H           -3.559704391491     0.185238728512     0.805127481945

  Mulliken Charges: (a.u.)
   Center  Symbol    Alpha    Beta     Spin     Total
       1     H     0.44719  0.44719  0.00000  0.10561
       2     C     3.15232  3.15232  0.00000 -0.30464
       3     C     3.09678  3.09678  0.00000 -0.19355
       4     H     0.45540  0.45540  0.00000  0.08920
       5     H     0.45442  0.45442  0.00000  0.09115
       6     C     3.02326  3.02326  0.00000 -0.04652
       7     H     0.45268  0.45268  0.00000  0.09465
       8     H     0.45018  0.45018  0.00000  0.09965
       9     N     3.64376  3.64376  0.00000 -0.28752
      10     H     0.46362  0.46362  0.00000  0.07275
      11     H     0.45817  0.45817  0.00000  0.08365
      12     C     3.02457  3.02457  0.00000 -0.04915
      13     H     0.44437  0.44437  0.00000  0.11127
      14     C     3.08127  3.08127  0.00000 -0.16253
      15     H     0.45910  0.45910  0.00000  0.08181
      16     H     0.47069  0.47069  0.00000  0.05863
      17     C     3.15364  3.15364  0.00000 -0.30728
      18     H     0.44899  0.44899  0.00000  0.10203
      19     H     0.46063  0.46063  0.00000  0.07873
      20     H     0.45484  0.45484  0.00000  0.09032
      21     H     0.44774  0.44774  0.00000  0.10451
      22     H     0.45639  0.45639  0.00000  0.08722

   Total alpha = 29.00000, Total beta = 29.00000, Total charge = -0.00000

*** Psi4 exiting successfully. Buy a developer a beer!
