  ==> Input File <==

--------------------------------------------------------------------------
set {
	reference rhf
	basis 6-31G*
}

set_num_threads( 4 )
memory 2 gb

molecule MOL {
0 1

H	 2.049054	 0.340177	 -0.984265
O	 1.276772	 -0.214622	 -1.034347
C	 0.489431	 0.077273	 0.000046
C	 -0.764129	 -0.759190	 0.000191
O	 0.778117	 0.903867	 0.802523
C	 -2.038368	 0.075731	 -0.000248
H	 -0.717284	 -1.412404	 -0.866059
H	 -0.717458	 -1.411724	 0.866967
H	 -2.086483	 0.712501	 -0.875098
H	 -2.908485	 -0.571682	 -0.000042
H	 -2.086576	 0.713280	 0.874068

	symmetry c1
}
set optking {
	frozen_dihedral = ("
		2 3 4 7
	")
}

ee = optimize('scf')
oeprop('DIPOLE', 'QUADRUPOLE', 'MULLIKEN_CHARGES')
f=open( 'psi4out.xyz', 'w' )
f.write( "11  " )
f.write( str(ee) + "\n" )
f.write( MOL.save_string_xyz() )
f.close()
--------------------------------------------------------------------------

    Molecular point group: c1
  Charge       = 0
  Multiplicity = 1
  Basis Set: 6-31G*
  Basis Set:
  @DF-RHF Final Energy:  -266.84368996477309
    Total Energy =                       -266.8436899647732616
    Molecular point group: c1
  Basis Set: 6-31G*
  Basis Set:
  Basis Set: 6-31G*
  Basis Set:
  @DF-RHF Final Energy:  -266.84414803283710
    Total Energy =                       -266.8441480328370972
  Basis Set: 6-31G*
  Basis Set:
  Basis Set: 6-31G*
  Basis Set:
  @DF-RHF Final Energy:  -266.84421047178523
    Total Energy =                       -266.8442104717851180
  Basis Set: 6-31G*
  Basis Set:
  Basis Set: 6-31G*
  Basis Set:
  @DF-RHF Final Energy:  -266.84428352379382
    Total Energy =                       -266.8442835237939335
  Basis Set: 6-31G*
  Basis Set:
  Basis Set: 6-31G*
  Basis Set:
  @DF-RHF Final Energy:  -266.84428485736407
    Total Energy =                       -266.8442848573643005
  Basis Set: 6-31G*
  Basis Set:
  Charge       = 0
  Multiplicity = 1
  Basis Set: 6-31G*
  Basis Set:

    Orbital Energies (a.u.)
    -----------------------

    Doubly Occupied:

       1A    -20.616110     2A    -20.549701     3A    -11.381912
       4A    -11.242987     5A    -11.226915     6A     -1.476301
       7A     -1.365914     8A     -1.065792     9A     -0.915133
      10A     -0.809505    11A     -0.703043    12A     -0.688793
      13A     -0.648706    14A     -0.609114    15A     -0.593308
      16A     -0.536769    17A     -0.526486    18A     -0.510304
      19A     -0.474470    20A     -0.443120

  @DF-RHF Final Energy:  -266.84428501636262

   => Energetics <=

    Nuclear Repulsion Energy =            179.7204065134754387
    One-Electron Energy =                -720.3606194678450265
    Two-Electron Energy =                 273.7959279380071393
    DFT Exchange-Correlation Energy =       0.0000000000000000
    Empirical Dispersion Energy =           0.0000000000000000
    PCM Polarization Energy =               0.0000000000000000
    EFP Energy =                            0.0000000000000000
    Total Energy =                       -266.8442850163625053
    Molecular point group: c1
  Basis Set: 6-31G*
  Basis Set:

  -Total Gradient:
     Atom            X                  Y                   Z
    ------   -----------------  -----------------  -----------------
       1       -0.000010024029     0.000004001815     0.000002245382
       2       -0.000347257896     0.000479923614    -0.000396264101
       3        0.000558371514    -0.000816612770     0.000643287853
       4       -0.000619488233     0.000913238573    -0.000739152628
       5       -0.000005997556     0.000008550408     0.000014409097
       6        0.000009779714     0.000010150739     0.000011993826
       7        0.000412444391    -0.000610370573     0.000464236089
       8        0.000000875316     0.000011187556    -0.000007776933
       9        0.000004652109    -0.000006600014     0.000003995278
      10        0.000005850420    -0.000003109169    -0.000000521732
      11       -0.000009205753     0.000009639819     0.000003547869

  **** Optimization is complete! (in 6 steps) ****
    Final optimized geometry and variables:
    Molecular point group: c1

    Geometry (in Angstrom), charge = 0, multiplicity = 1:

    H            2.080047536049     0.353383825017    -0.886489368957
    O            1.319686291832    -0.214958886966    -0.966388927779
    C            0.506536562348     0.039007225869     0.055117460522
    C           -0.741582472601    -0.808739639234     0.043754316431
    O            0.758906510501     0.860442452923     0.876571545854
    C           -2.004908238477     0.055279419795     0.066765055422
    H           -0.725555161682    -1.469198817324    -0.812806691728
    H           -0.705935764502    -1.425356359857     0.936511635357
    H           -2.078188560274     0.666519500899    -0.826690913480
    H           -2.886502969997    -0.573842125050     0.114729253547
    H           -2.001890941977     0.711070765676     0.928003728467

  Mulliken Charges: (a.u.)
   Center  Symbol    Alpha    Beta     Spin     Total
       1     H     0.26821  0.26821  0.00000  0.46359
       2     O     4.34747  4.34747  0.00000 -0.69493
       3     C     2.62642  2.62642  0.00000  0.74717
       4     C     3.20578  3.20578  0.00000 -0.41157
       5     O     4.27978  4.27978  0.00000 -0.55957
       6     C     3.24785  3.24785  0.00000 -0.49571
       7     H     0.39862  0.39862  0.00000  0.20276
       8     H     0.39802  0.39802  0.00000  0.20396
       9     H     0.41356  0.41356  0.00000  0.17288
      10     H     0.41286  0.41286  0.00000  0.17429
      11     H     0.40143  0.40143  0.00000  0.19713

   Total alpha = 20.00000, Total beta = 20.00000, Total charge =  0.00000
