  ==> Input File <==

--------------------------------------------------------------------------
set {
	reference rhf
	basis 6-31G*
}

set_num_threads( 1 )
memory 2 gb

molecule MOL {
0 1

H	 -4.031818	 -0.453427	 -0.000094
C	 -2.967712	 -0.297022	 -0.000064
C	 -2.458620	 0.992929	 0.000032
C	 -2.109895	 -1.385637	 -0.000122
H	 -3.124998	 1.836319	 0.000077
C	 -1.090278	 1.193236	 0.000070
H	 -2.506361	 -2.384847	 -0.000198
C	 -0.739812	 -1.187531	 -0.000085
H	 -0.678594	 2.184290	 0.000146
C	 -0.226438	 0.104061	 0.000012
H	 -0.072310	 -2.027032	 -0.000131
C	 1.239129	 0.373821	 0.000060
O	 1.859959	 -0.131537	 1.055421
O	 1.804288	 0.980142	 -0.855411
C	 3.258564	 0.078329	 1.136237
H	 3.757477	 -0.366242	 0.287569
H	 3.574967	 -0.399633	 2.050182
H	 3.481408	 1.134855	 1.168057

	symmetry c1
}
set optking {
	frozen_dihedral = ("
		12 13 15 16,
		10 12 13 15
	")
}

ee = energy('scf')
oeprop('DIPOLE', 'QUADRUPOLE', 'MULLIKEN_CHARGES')
f=open( 'psi4out.xyz', 'w' )
f.write( "18  " )
f.write( str(ee) + "\n" )
f.write( MOL.save_string_xyz() )
f.close()
--------------------------------------------------------------------------

    Molecular point group: c1

    Geometry (in Angstrom), charge = 0, multiplicity = 1:

       Center              X                  Y                   Z               Mass
    ------------   -----------------  -----------------  -----------------  -----------------
           H         -4.016173098420    -0.538395398306    -0.149785280366     1.007825032070
           C         -2.952067098420    -0.381990398306    -0.149755280366    12.000000000000
           C         -2.442975098420     0.907960601694    -0.149659280366    12.000000000000
           C         -2.094250098420    -1.470605398306    -0.149813280366    12.000000000000
           H         -3.109353098420     1.751350601694    -0.149614280366     1.007825032070
           C         -1.074633098420     1.108267601694    -0.149621280366    12.000000000000
           H         -2.490716098420    -2.469815398306    -0.149889280366     1.007825032070
           C         -0.724167098420    -1.272499398306    -0.149776280366    12.000000000000
           H         -0.662949098420     2.099321601694    -0.149545280366     1.007825032070
           C         -0.210793098420     0.019092601694    -0.149679280366    12.000000000000
           H         -0.056665098420    -2.112000398306    -0.149822280366     1.007825032070
           C          1.254773901580     0.288852601694    -0.149631280366    12.000000000000
           O          1.875603901580    -0.216505398306     0.905729719634    15.994914619560
           O          1.819932901580     0.895173601694    -1.005102280366    15.994914619560
           C          3.274208901580    -0.006639398306     0.986545719634    12.000000000000
           H          3.773121901580    -0.451210398306     0.137877719634     1.007825032070
           H          3.590611901580    -0.484601398306     1.900490719634     1.007825032070
           H          3.497052901580     1.049886601694     1.018365719634     1.007825032070

  Charge       = 0
  Multiplicity = 1
  Basis Set: 6-31G*
  Basis Set:

    Orbital Energies (a.u.)
    -----------------------

    Doubly Occupied:

       1A    -20.609357     2A    -20.548691     3A    -11.379819
       4A    -11.283128     5A    -11.250702     6A    -11.245371
       7A    -11.243574     8A    -11.241994     9A    -11.239803
      10A    -11.239159    11A     -1.474222    12A     -1.365373
      13A     -1.166477    14A     -1.049060    15A     -1.026373
      16A     -0.979291    17A     -0.861129    18A     -0.838121
      19A     -0.779664    20A     -0.738155    21A     -0.685214
      22A     -0.679384    23A     -0.675423    24A     -0.630489
      25A     -0.629629    26A     -0.598073    27A     -0.590381
      28A     -0.549809    29A     -0.534774    30A     -0.516498
      31A     -0.507704    32A     -0.501730    33A     -0.458354
      34A     -0.445463    35A     -0.343158    36A     -0.342258

  @DF-RHF Final Energy:  -457.34153947154891

   => Energetics <=

    Nuclear Repulsion Energy =            491.8350041376186255
    One-Electron Energy =               -1597.8578823708683103
    Two-Electron Energy =                 648.6813387617007720
    DFT Exchange-Correlation Energy =       0.0000000000000000
    Empirical Dispersion Energy =           0.0000000000000000
    PCM Polarization Energy =               0.0000000000000000
    EFP Energy =                            0.0000000000000000
    Total Energy =                       -457.3415394715489128

  Mulliken Charges: (a.u.)
   Center  Symbol    Alpha    Beta     Spin     Total
       1     H     0.39626  0.39626  0.00000  0.20747
       2     C     3.09562  3.09562  0.00000 -0.19124
       3     C     3.10144  3.10144  0.00000 -0.20288
       4     C     3.10197  3.10197  0.00000 -0.20395
       5     H     0.39530  0.39530  0.00000  0.20941
       6     C     3.09671  3.09671  0.00000 -0.19342
       7     H     0.39563  0.39563  0.00000  0.20874
       8     C     3.09315  3.09315  0.00000 -0.18631
       9     H     0.38680  0.38680  0.00000  0.22641
      10     C     3.01877  3.01877  0.00000 -0.03754
      11     H     0.39006  0.39006  0.00000  0.21988
      12     C     2.63335  2.63335  0.00000  0.73330
      13     O     4.29817  4.29817  0.00000 -0.59634
      14     O     4.28001  4.28001  0.00000 -0.56002
      15     C     3.09383  3.09383  0.00000 -0.18767
      16     H     0.40821  0.40821  0.00000  0.18358
      17     H     0.40689  0.40689  0.00000  0.18622
      18     H     0.40782  0.40782  0.00000  0.18436

   Total alpha = 36.00000, Total beta = 36.00000, Total charge = -0.00000
