                              Psi4 1.0.54 Driver

  ==> Input File <==

--------------------------------------------------------------------------
set {
	reference rhf
	basis cc-pvtz
}

set_num_threads( 4 )
memory 2 gb

molecule MOL {
0 1

H	 -2.802625	 0.218443	 0.719794
C	 -2.464508	 1.154494	 0.281195
O	 -1.088677	 1.161023	 0.095215
H	 -2.929578	 1.272854	 -0.686580
H	 -2.785023	 1.971479	 0.925159
C	 -0.350988	 1.025955	 1.265346
C	 1.118133	 0.940811	 0.935529
H	 -0.517195	 1.883454	 1.917298
H	 -0.648392	 0.130449	 1.806687
O	 1.401606	 -0.295166	 0.366636
H	 1.378822	 1.747325	 0.253615
H	 1.693782	 1.075699	 1.851174
C	 2.714315	 -0.441627	 -0.061017
H	 2.765292	 -0.641548	 -1.128869
H	 3.305661	 0.447341	 0.150952
H	 3.143725	 -1.278506	 0.470147

	symmetry c1
}
set optking {
	frozen_dihedral = ("
		7 10 13 14
	")
}

ee,wfn = optimize('scf', return_wfn=True)
oeprop( wfn, 'DIPOLE', 'QUADRUPOLE', 'MULLIKEN_CHARGES')
f=open( 'psi4out.xyz', 'w' )
f.write( "16  " )
f.write( str(ee) + "\n" )
f.write( MOL.save_string_xyz() )
f.close()
--------------------------------------------------------------------------

    Molecular point group: c1
  Charge       = 0
  Multiplicity = 1
  Basis Set: CC-PVTZ
  Basis Set:
  @DF-RHF Final Energy:  -307.09378382678307
    Total Energy =                       -307.0937838267829534
    Molecular point group: c1
  Basis Set: CC-PVTZ
  Basis Set:
  Basis Set: CC-PVTZ
  Basis Set:
  @DF-RHF Final Energy:  -307.07129347593093
    Total Energy =                       -307.0712934759311565
  Basis Set: CC-PVTZ
  Basis Set:
  Basis Set: CC-PVTZ
  Basis Set:
  @DF-RHF Final Energy:  -307.09398480308914
    Total Energy =                       -307.0939848030890289
  Basis Set: CC-PVTZ
  Basis Set:
  Basis Set: CC-PVTZ
  Basis Set:
  @DF-RHF Final Energy:  -307.09427371031074
    Total Energy =                       -307.0942737103106310
  Basis Set: CC-PVTZ
  Basis Set:
  Basis Set: CC-PVTZ
  Basis Set:
  @DF-RHF Final Energy:  -307.09427897764562
    Total Energy =                       -307.0942789776460131
  Basis Set: CC-PVTZ
  Basis Set:
  Charge       = 0
  Multiplicity = 1
  Basis Set: CC-PVTZ
  Basis Set:

    Orbital Energies (a.u.)
    -----------------------

    Doubly Occupied:

       1A    -20.547396     2A    -20.544059     3A    -11.267824
       4A    -11.266542     5A    -11.261315     6A    -11.261071
       7A     -1.389425     8A     -1.371347     9A     -1.031683
      10A     -0.937245    11A     -0.892171    12A     -0.823926
      13A     -0.684813    14A     -0.680950    15A     -0.658636
      16A     -0.636198    17A     -0.630276    18A     -0.597296
      19A     -0.554681    20A     -0.538244    21A     -0.508729
      22A     -0.479051    23A     -0.463805    24A     -0.420846
      25A     -0.410060

  @DF-RHF Final Energy:  -307.09427921569085

   => Energetics <=

    Nuclear Repulsion Energy =            258.6100009172810701
    One-Electron Energy =                -931.6933721204477479
    Two-Electron Energy =                 365.9890919874756037
    DFT Exchange-Correlation Energy =       0.0000000000000000
    Empirical Dispersion Energy =           0.0000000000000000
    PCM Polarization Energy =               0.0000000000000000
    EFP Energy =                            0.0000000000000000
    Total Energy =                       -307.0942792156911310
    Molecular point group: c1
  Basis Set: CC-PVTZ
  Basis Set:

  -Total Gradient:
     Atom            X                  Y                   Z
    ------   -----------------  -----------------  -----------------
       1        0.000004828323    -0.000001455755     0.000004046214
       2       -0.000019877320    -0.000005742719    -0.000026173385
       3       -0.000018378036    -0.000004599923     0.000018262399
       4       -0.000017081191     0.000000550544    -0.000002079049
       5        0.000007132898     0.000001158470     0.000001442669
       6        0.000014717944     0.000030686024    -0.000028892082
       7        0.000021611241     0.000000473648     0.000130731514
       8       -0.000014262667     0.000013224894     0.000011156819
       9        0.000009403518    -0.000001835936    -0.000005410140
      10        0.000001269940    -0.000031221762    -0.000093818664
      11       -0.000005746617    -0.000010669975    -0.000006285957
      12        0.000017718664     0.000001666436    -0.000006872193
      13       -0.000014104664     0.000071171210    -0.000031039593
      14        0.000014548508    -0.000074161468     0.000024015258
      15        0.000000290611     0.000007013399     0.000004590344
      16       -0.000002071149     0.000003742915     0.000006325846

  **** Optimization is complete! (in 6 steps) ****
    Final optimized geometry and variables:
    Molecular point group: c1

    Geometry (in Angstrom), charge = 0, multiplicity = 1:

    H           -2.979529681490    -0.253583093581     0.603369865294
    C           -2.697821356627     0.513559770031    -0.114271269093
    O           -1.343016585055     0.457857932972    -0.412283620805
    H           -3.245261471832     0.349776542692    -1.031016025800
    H           -2.978557866313     1.483784090918     0.291693609761
    C           -0.506619889569     0.662568724457     0.678703426138
    C            0.930811648511     0.474983301094     0.262769233155
    H           -0.632184998888     1.673785687116     1.065909172318
    H           -0.741197548804    -0.034973467006     1.479756598882
    O            1.181499895695    -0.876509411683     0.050045341418
    H            1.116493536152     1.050725604809    -0.640503158308
    H            1.576282412442     0.863400362637     1.049871814307
    C            2.447796415642    -1.198226626242    -0.437492895592
    H            2.355869152714    -1.702461798249    -1.392437027033
    H            3.066769089291    -0.317617300211    -0.575339650074
    H            2.950929982842    -1.860959978801     0.257486882486

  Mulliken Charges: (a.u.)
   Center  Symbol    Alpha    Beta     Spin     Total
       1     H     0.47016  0.47016  0.00000  0.05968
       2     C     3.03199  3.03199  0.00000 -0.06398
       3     O     4.17037  4.17037  0.00000 -0.34074
       4     H     0.44646  0.44646  0.00000  0.10707
       5     H     0.47375  0.47375  0.00000  0.05250
       6     C     2.96359  2.96359  0.00000  0.07283
       7     C     2.95847  2.95847  0.00000  0.08306
       8     H     0.47621  0.47621  0.00000  0.04758
       9     H     0.47120  0.47120  0.00000  0.05761
      10     O     4.17528  4.17528  0.00000 -0.35056
      11     H     0.47054  0.47054  0.00000  0.05893
      12     H     0.47621  0.47621  0.00000  0.04758
      13     C     3.02698  3.02698  0.00000 -0.05396
      14     H     0.45605  0.45605  0.00000  0.08790
      15     H     0.47369  0.47369  0.00000  0.05262
      16     H     0.45905  0.45905  0.00000  0.08190

   Total alpha = 25.00000, Total beta = 25.00000, Total charge = -0.00000

*** Psi4 exiting successfully. Buy a developer a beer!
