                              Psi4 1.0.54 Driver

  ==> Input File <==

--------------------------------------------------------------------------
set {
	reference rhf
	basis cc-pvtz
}

set_num_threads( 4 )
memory 2 gb

molecule MOL {
0 1

H	 3.721907	 -0.933076	 -0.066039
O	 2.824271	 -1.154299	 0.131461
C	 2.076458	 -0.067370	 -0.038225
C	 0.626018	 -0.337582	 0.258241
O	 2.538288	 0.965419	 -0.381593
C	 -0.267326	 0.883135	 0.076490
H	 0.325620	 -1.161483	 -0.378003
H	 0.574537	 -0.713685	 1.275261
C	 -1.726822	 0.642622	 0.463839
H	 -0.210803	 1.217591	 -0.953497
H	 0.129920	 1.693110	 0.675679
C	 -2.006266	 0.637493	 1.965813
H	 -2.030065	 -0.315841	 0.053173
H	 -2.356906	 1.388241	 -0.016257
C	 -3.454507	 0.289286	 2.294182
H	 -1.345701	 -0.077689	 2.448726
H	 -1.772522	 1.607082	 2.393850
H	 -3.625538	 0.290397	 3.364429
H	 -3.715146	 -0.694246	 1.918108
H	 -4.138982	 1.003941	 1.849302

	symmetry c1
}
set optking {
	frozen_dihedral = ("
		12 9 6 10
	")
}

ee,wfn = optimize('scf', return_wfn=True)
oeprop( wfn, 'DIPOLE', 'QUADRUPOLE', 'MULLIKEN_CHARGES')
f=open( 'psi4out.xyz', 'w' )
f.write( "20  " )
f.write( str(ee) + "\n" )
f.write( MOL.save_string_xyz() )
f.close()
--------------------------------------------------------------------------

    Molecular point group: c1
  Charge       = 0
  Multiplicity = 1
  Basis Set: CC-PVTZ
  Basis Set:
  @DF-RHF Final Energy:  -384.09414608894582
    Total Energy =                       -384.0941460889465020
    Molecular point group: c1
  Basis Set: CC-PVTZ
  Basis Set:
  Basis Set: CC-PVTZ
  Basis Set:
  @DF-RHF Final Energy:  -384.09456867312713
    Total Energy =                       -384.0945686731269575
  Basis Set: CC-PVTZ
  Basis Set:
  Basis Set: CC-PVTZ
  Basis Set:
  @DF-RHF Final Energy:  -384.09409771756191
    Total Energy =                       -384.0940977175622493
  Basis Set: CC-PVTZ
  Basis Set:
  Basis Set: CC-PVTZ
  Basis Set:
  @DF-RHF Final Energy:  -384.09463330600062
    Total Energy =                       -384.0946333060004463
  Basis Set: CC-PVTZ
  Basis Set:
  Basis Set: CC-PVTZ
  Basis Set:
  @DF-RHF Final Energy:  -384.09463657924539
    Total Energy =                       -384.0946365792456163
  Basis Set: CC-PVTZ
  Basis Set:
  Charge       = 0
  Multiplicity = 1
  Basis Set: CC-PVTZ
  Basis Set:

    Orbital Energies (a.u.)
    -----------------------

    Doubly Occupied:

       1A    -20.603899     2A    -20.540521     3A    -11.373458
       4A    -11.238933     5A    -11.220858     6A    -11.218638
       7A    -11.218022     8A    -11.210353     9A     -1.477468
      10A     -1.368987    11A     -1.097276    12A     -1.042549
      13A     -0.962052    14A     -0.870291    15A     -0.815563
      16A     -0.781259    17A     -0.703686    18A     -0.693115
      19A     -0.665916    20A     -0.636240    21A     -0.606511
      22A     -0.595925    23A     -0.575927    24A     -0.557368
      25A     -0.541935    26A     -0.510932    27A     -0.497007
      28A     -0.484560    29A     -0.472533    30A     -0.468835
      31A     -0.457380    32A     -0.446139

  @DF-RHF Final Energy:  -384.09463676819962

   => Energetics <=

    Nuclear Repulsion Energy =            376.1180623294790166
    One-Electron Energy =               -1268.5171258799532552
    Two-Electron Energy =                 508.3044267822745041
    DFT Exchange-Correlation Energy =       0.0000000000000000
    Empirical Dispersion Energy =           0.0000000000000000
    PCM Polarization Energy =               0.0000000000000000
    EFP Energy =                            0.0000000000000000
    Total Energy =                       -384.0946367681997344
    Molecular point group: c1
  Basis Set: CC-PVTZ
  Basis Set:

  -Total Gradient:
     Atom            X                  Y                   Z
    ------   -----------------  -----------------  -----------------
       1        0.000027148386    -0.000015522266     0.000000983292
       2        0.000035518013     0.000022135540    -0.000018102268
       3       -0.000054638626     0.000026084527     0.000002714198
       4       -0.000002011369     0.000012370794    -0.000021447854
       5        0.000023518273    -0.000042010966     0.000013747399
       6        0.000161639932    -0.001667902106    -0.000717231669
       7       -0.000008902559     0.000001216563     0.000006022363
       8       -0.000004028594     0.000009702271     0.000002756752
       9        0.000361328476    -0.001467095346     0.000199420239
      10       -0.000228596673     0.001762405936     0.000572684576
      11       -0.000009718632     0.000004698402     0.000001889202
      12       -0.000300448807     0.001346192717    -0.000047045816
      13        0.000005622117     0.000006307662    -0.000003749085
      14       -0.000008037338     0.000004332403     0.000005140753
      15       -0.000000625820    -0.000008622116     0.000003297252
      16       -0.000004897160     0.000000412406     0.000004053270
      17        0.000002752703     0.000006798639    -0.000004223732
      18        0.000001720104    -0.000004573627     0.000000644997
      19       -0.000000158223     0.000000945579    -0.000001592149
      20        0.000002815795     0.000002122994     0.000000038278

  **** Optimization is complete! (in 6 steps) ****
    Final optimized geometry and variables:
    Molecular point group: c1

    Geometry (in Angstrom), charge = 0, multiplicity = 1:

    H            3.632975528471    -1.052058797113    -0.721265028881
    O            2.749750747419    -1.291923667583    -0.484353849428
    C            1.966544113293    -0.229541467377    -0.650073133972
    C            0.536329031624    -0.530408180462    -0.291773900779
    O            2.386218701435     0.806730141282    -1.034703563935
    C           -0.400960251130     0.655221465661    -0.479030440326
    H            0.226730118577    -1.374310750145    -0.899761297332
    H            0.537432685596    -0.887856411415     0.731677610597
    C           -1.855533274616     0.346323595227    -0.115629513885
    H           -0.346099321864     0.992240745272    -1.506761403473
    H           -0.046032226670     1.488163995931     0.117640696925
    C           -2.144072966516     0.330113618056     1.384708757020
    H           -2.151435184300    -0.603346632924    -0.555389993407
    H           -2.489651074299     1.098942438306    -0.574432376137
    C           -3.606680539061     0.038444314739     1.703701151532
    H           -1.520500580719    -0.409285432981     1.878624350776
    H           -1.867764575703     1.292151884024     1.806590196947
    H           -3.783977945686     0.044268599120     2.772914749296
    H           -3.903955852906    -0.933642175251     1.324544197301
    H           -4.259646928570     0.780114536077     1.255919602981

  Mulliken Charges: (a.u.)
   Center  Symbol    Alpha    Beta     Spin     Total
       1     H     0.38239  0.38239  0.00000  0.23522
       2     O     4.16032  4.16032  0.00000 -0.32065
       3     C     2.80342  2.80342  0.00000  0.39315
       4     C     3.10964  3.10964  0.00000 -0.21929
       5     O     4.19141  4.19141  0.00000 -0.38282
       6     C     3.09306  3.09306  0.00000 -0.18613
       7     H     0.43782  0.43782  0.00000  0.12435
       8     H     0.43812  0.43812  0.00000  0.12375
       9     C     3.09969  3.09969  0.00000 -0.19939
      10     H     0.43952  0.43952  0.00000  0.12095
      11     H     0.44629  0.44629  0.00000  0.10741
      12     C     3.08355  3.08355  0.00000 -0.16709
      13     H     0.45531  0.45531  0.00000  0.08938
      14     H     0.44510  0.44510  0.00000  0.10981
      15     C     3.14987  3.14987  0.00000 -0.29974
      16     H     0.45578  0.45578  0.00000  0.08844
      17     H     0.45229  0.45229  0.00000  0.09541
      18     H     0.44767  0.44767  0.00000  0.10466
      19     H     0.45483  0.45483  0.00000  0.09034
      20     H     0.45388  0.45388  0.00000  0.09224

   Total alpha = 32.00000, Total beta = 32.00000, Total charge = -0.00000

*** Psi4 exiting successfully. Buy a developer a beer!
