                              Psi4 1.0.54 Driver

  ==> Input File <==

--------------------------------------------------------------------------
set {
	reference rhf
	basis cc-pvtz
}

set_num_threads( 4 )
memory 2 gb

molecule MOL {
0 1

H	 2.646708	 0.758099	 0.000000
O	 2.258158	 -0.097743	 0.000000
C	 0.911162	 -0.015915	 0.000000
C	 0.224001	 -0.765133	 0.940896
C	 0.217660	 0.777841	 -0.894106
H	 0.778417	 -1.375139	 1.626472
C	 -1.152572	 -0.713071	 0.978443
H	 0.750806	 1.359338	 -1.624359
C	 -1.164448	 0.820342	 -0.844787
H	 -1.679814	 -1.295819	 1.709758
C	 -1.858646	 0.078530	 0.087809
H	 -1.695239	 1.439428	 -1.542870
H	 -2.929812	 0.113893	 0.123150

	symmetry c1
}
set optking {
	frozen_dihedral = ("
		4 3 2 1
	")
}

ee,wfn = optimize('scf', return_wfn=True)
oeprop( wfn, 'DIPOLE', 'QUADRUPOLE', 'MULLIKEN_CHARGES')
f=open( 'psi4out.xyz', 'w' )
f.write( "13  " )
f.write( str(ee) + "\n" )
f.write( MOL.save_string_xyz() )
f.close()
--------------------------------------------------------------------------

    Molecular point group: c1
  Charge       = 0
  Multiplicity = 1
  Basis Set: CC-PVTZ
  Basis Set:
  @DF-RHF Final Energy:  -305.66762867466440
    Total Energy =                       -305.6676286746643996
    Molecular point group: c1
  Basis Set: CC-PVTZ
  Basis Set:
  Basis Set: CC-PVTZ
  Basis Set:
  @DF-RHF Final Energy:  -305.66783252879742
    Total Energy =                       -305.6678325287975326
  Basis Set: CC-PVTZ
  Basis Set:
  Basis Set: CC-PVTZ
  Basis Set:
  @DF-RHF Final Energy:  -305.66785852273387
    Total Energy =                       -305.6678585227339227
  Basis Set: CC-PVTZ
  Basis Set:
  Charge       = 0
  Multiplicity = 1
  Basis Set: CC-PVTZ
  Basis Set:

    Orbital Energies (a.u.)
    -----------------------

    Doubly Occupied:

       1A    -20.576341     2A    -11.292303     3A    -11.234435
       4A    -11.233188     5A    -11.226319     6A    -11.223310
       7A    -11.222829     8A     -1.404703     9A     -1.153135
      10A     -1.022569    11A     -1.008386    12A     -0.844420
      13A     -0.827552    14A     -0.739717    15A     -0.686109
      16A     -0.652603    17A     -0.626281    18A     -0.598408
      19A     -0.591958    20A     -0.538851    21A     -0.517404
      22A     -0.496877    23A     -0.477744    24A     -0.342441
      25A     -0.323228

  @DF-RHF Final Energy:  -305.66786125793743

   => Energetics <=

    Nuclear Repulsion Energy =            273.5247022848408847
    One-Electron Energy =                -956.6629006984942407
    Two-Electron Energy =                 377.4703371557159244
    DFT Exchange-Correlation Energy =       0.0000000000000000
    Empirical Dispersion Energy =           0.0000000000000000
    PCM Polarization Energy =               0.0000000000000000
    EFP Energy =                            0.0000000000000000
    Total Energy =                       -305.6678612579373748
    Molecular point group: c1
  Basis Set: CC-PVTZ
  Basis Set:

  -Total Gradient:
     Atom            X                  Y                   Z
    ------   -----------------  -----------------  -----------------
       1       -0.000057816386    -0.000006530595     0.002511640421
       2        0.000183172875     0.000564157946    -0.002529283242
       3       -0.000400987090    -0.001802360869    -0.001206110011
       4       -0.000060014372     0.001385060563     0.001203508787
       5        0.000246384094    -0.000176355992     0.000028799529
       6        0.000040945936    -0.000016710671     0.000035836474
       7        0.000276975035    -0.000201249794     0.000059403729
       8       -0.000011089379     0.000004127181     0.000010648175
       9       -0.000326776128    -0.000048589216     0.000125067086
      10        0.000024552518     0.000031769694    -0.000018370656
      11        0.000083947057     0.000277679029    -0.000225529408
      12        0.000019312824     0.000005023209     0.000005390507
      13       -0.000018606988    -0.000016020485    -0.000001001389

  **** Optimization is complete! (in 4 steps) ****
    Final optimized geometry and variables:
    Molecular point group: c1

    Geometry (in Angstrom), charge = 0, multiplicity = 1:

    H            2.648164942163     0.745026930282    -0.053878466866
    O            2.264813955199    -0.113673456797    -0.053471371333
    C            0.906576124313    -0.032249361644    -0.028293611982
    C            0.220156037119    -0.779695670924     0.909551444836
    C            0.216832130654     0.762030398892    -0.925046319360
    H            0.774145540655    -1.386421336712     1.598626438746
    C           -1.159817451400    -0.738327882017     0.938650647949
    H            0.758410672257     1.330280004650    -1.657866012981
    C           -1.163980183939     0.807983959760    -0.878210170301
    H           -1.689904506655    -1.323687772459     1.665612718146
    C           -1.859219346700     0.057584787088     0.049835281109
    H           -1.695223214843     1.427590994789    -1.575385619275
    H           -2.930957702834     0.090581242505     0.079867848153

  Mulliken Charges: (a.u.)
   Center  Symbol    Alpha    Beta     Spin     Total
       1     H     0.38566  0.38566  0.00000  0.22869
       2     O     4.18671  4.18671  0.00000 -0.37341
       3     C     2.86644  2.86644  0.00000  0.26711
       4     C     3.10838  3.10838  0.00000 -0.21675
       5     C     3.12223  3.12223  0.00000 -0.24446
       6     H     0.41684  0.41684  0.00000  0.16633
       7     C     3.06340  3.06340  0.00000 -0.12681
       8     H     0.42402  0.42402  0.00000  0.15196
       9     C     3.06768  3.06768  0.00000 -0.13537
      10     H     0.42192  0.42192  0.00000  0.15616
      11     C     3.09123  3.09123  0.00000 -0.18246
      12     H     0.42208  0.42208  0.00000  0.15584
      13     H     0.42342  0.42342  0.00000  0.15316

   Total alpha = 25.00000, Total beta = 25.00000, Total charge = -0.00000

*** Psi4 exiting successfully. Buy a developer a beer!
