  ==> Input File <==

--------------------------------------------------------------------------
set {
	reference rhf
	basis 6-31G*
}

set_num_threads( 4 )
memory 2 gb

molecule MOL {
0 1

O	 -0.923021	 -0.796155	 2.173702
C	 -0.336095	 -0.970337	 1.154427
C	 0.900818	 -1.821691	 0.994713
O	 -0.698257	 -0.426125	 0.001050
C	 1.354038	 -2.467474	 2.297987
H	 1.678204	 -1.189997	 0.575333
H	 0.685306	 -2.569258	 0.237110
H	 1.583730	 -1.717688	 3.045268
H	 2.243013	 -3.065913	 2.129439
H	 0.581955	 -3.109714	 2.703869
C	 -1.853104	 0.406779	 0.000512
C	 -3.066105	 -0.499277	 -0.000959
H	 -1.828410	 1.043074	 -0.873618
H	 -1.829857	 1.042383	 0.875188
H	 -3.071820	 -1.133106	 -0.880383
H	 -3.972708	 0.097145	 -0.001528
H	 -3.073405	 -1.133813	 0.877999

	symmetry c1
}
set optking {
	frozen_dihedral = ("
		2 4 11 13
	")
}

ee = optimize('scf')
oeprop('DIPOLE', 'QUADRUPOLE', 'MULLIKEN_CHARGES')
f=open( 'psi4out.xyz', 'w' )
f.write( "17  " )
f.write( str(ee) + "\n" )
f.write( MOL.save_string_xyz() )
f.close()
--------------------------------------------------------------------------

    Molecular point group: c1
  Charge       = 0
  Multiplicity = 1
  Basis Set: 6-31G*
  Basis Set:
  @DF-RHF Final Energy:  -344.90910043798760
    Total Energy =                       -344.9091004379877745
    Molecular point group: c1
  Basis Set: 6-31G*
  Basis Set:
  Basis Set: 6-31G*
  Basis Set:
  @DF-RHF Final Energy:  -344.91086831823259
    Total Energy =                       -344.9108683182327013
  Basis Set: 6-31G*
  Basis Set:
  Basis Set: 6-31G*
  Basis Set:
  @DF-RHF Final Energy:  -344.90944469195705
    Total Energy =                       -344.9094446919569918
  Basis Set: 6-31G*
  Basis Set:
  Basis Set: 6-31G*
  Basis Set:
  @DF-RHF Final Energy:  -344.91118681012023
    Total Energy =                       -344.9111868101205118
  Basis Set: 6-31G*
  Basis Set:
  Basis Set: 6-31G*
  Basis Set:
  @DF-RHF Final Energy:  -344.91120017455535
    Total Energy =                       -344.9112001745554608
  Basis Set: 6-31G*
  Basis Set:
  Charge       = 0
  Multiplicity = 1
  Basis Set: 6-31G*
  Basis Set:

    Orbital Energies (a.u.)
    -----------------------

    Doubly Occupied:

       1A    -20.600665     2A    -20.544604     3A    -11.372472
       4A    -11.285045     5A    -11.237501     6A    -11.217487
       7A    -11.215849     8A     -1.466771     9A     -1.362169
      10A     -1.068903    11A     -1.028001    12A     -0.915701
      13A     -0.853988    14A     -0.758438    15A     -0.702872
      16A     -0.679725    17A     -0.659846    18A     -0.620250
      19A     -0.610790    20A     -0.568401    21A     -0.547481
      22A     -0.532136    23A     -0.520917    24A     -0.515238
      25A     -0.496690    26A     -0.491147    27A     -0.449989
      28A     -0.435773

  @DF-RHF Final Energy:  -344.91120086795269

   => Energetics <=

    Nuclear Repulsion Energy =            318.7176125252137240
    One-Electron Energy =               -1101.7399266580332551
    Two-Electron Energy =                 438.1111132648669582
    DFT Exchange-Correlation Energy =       0.0000000000000000
    Empirical Dispersion Energy =           0.0000000000000000
    PCM Polarization Energy =               0.0000000000000000
    EFP Energy =                            0.0000000000000000
    Total Energy =                       -344.9112008679525161
    Molecular point group: c1
  Basis Set: 6-31G*
  Basis Set:

  -Total Gradient:
     Atom            X                  Y                   Z
    ------   -----------------  -----------------  -----------------
       1       -0.000025507865     0.000028084656    -0.000030594717
       2       -0.000330023070    -0.000567764314    -0.000143926819
       3       -0.000024045701    -0.000031059495     0.000014001345
       4        0.000507753981     0.000607058226     0.000152168561
       5        0.000031951519     0.000000648651     0.000000774816
       6        0.000012839955     0.000003135212     0.000005829667
       7        0.000012618823     0.000011610113    -0.000000810659
       8       -0.000003082210    -0.000005047665    -0.000004025182
       9        0.000003635925    -0.000005945777     0.000007566195
      10       -0.000001774610    -0.000000076432    -0.000003506085
      11        0.000197378769     0.000454443980     0.000386227773
      12        0.000058721076     0.000004136782     0.000013991551
      13       -0.000398886653    -0.000518224077    -0.000384067064
      14       -0.000025010565     0.000005294806     0.000000033379
      15       -0.000013956716    -0.000003053347     0.000005500632
      16       -0.000005989688     0.000016692158    -0.000012407970
      17        0.000003377030     0.000000066520    -0.000006755425

  **** Optimization is complete! (in 6 steps) ****
    Final optimized geometry and variables:
    Molecular point group: c1

    Geometry (in Angstrom), charge = 0, multiplicity = 1:

    O           -0.225405707584     0.114164015111     1.248532343311
    C            0.350337426049    -0.043111408065     0.219737216973
    C            1.596808579372    -0.876486417376     0.039968645226
    O           -0.026476281201     0.506173149192    -0.926886422742
    C            2.075240404707    -1.524385340163     1.333182675155
    H            2.360002133664    -0.231602668272    -0.385200980101
    H            1.381833689748    -1.621968233032    -0.719815381230
    H            2.303726813557    -0.776393707206     2.082578088510
    H            2.970376262934    -2.109039846538     1.149531434253
    H            1.317485913641    -2.180271412367     1.744286518350
    C           -1.197757593048     1.318779920618    -0.938158527543
    C           -2.463257956587     0.482420067405    -0.993924519309
    H           -1.098920136765     1.919636632955    -1.830664554819
    H           -1.191011814555     1.964567886707    -0.072795733991
    H           -2.443735580462    -0.180113710398    -1.852618196786
    H           -3.327473218027     1.133234115513    -1.086093833369
    H           -2.577515042624    -0.109740846221    -0.095230617916

  Mulliken Charges: (a.u.)
   Center  Symbol    Alpha    Beta     Spin     Total
       1     O     4.28773  4.28773  0.00000 -0.57545
       2     C     2.60550  2.60550  0.00000  0.78901
       3     C     3.20497  3.20497  0.00000 -0.40994
       4     O     4.31398  4.31398  0.00000 -0.62797
       5     C     3.23879  3.23879  0.00000 -0.47757
       6     H     0.40038  0.40038  0.00000  0.19924
       7     H     0.40077  0.40077  0.00000  0.19845
       8     H     0.40995  0.40995  0.00000  0.18011
       9     H     0.41818  0.41818  0.00000  0.16364
      10     H     0.41024  0.41024  0.00000  0.17953
      11     C     3.00546  3.00546  0.00000 -0.01093
      12     C     3.25627  3.25627  0.00000 -0.51254
      13     H     0.40989  0.40989  0.00000  0.18023
      14     H     0.40429  0.40429  0.00000  0.19142
      15     H     0.41481  0.41481  0.00000  0.17038
      16     H     0.41779  0.41779  0.00000  0.16442
      17     H     0.40101  0.40101  0.00000  0.19799

   Total alpha = 28.00000, Total beta = 28.00000, Total charge = -0.00000
