  ==> Input File <==

--------------------------------------------------------------------------
set {
	reference rhf
	basis 6-31G*
}

set_num_threads( 1 )
memory 2 gb

molecule MOL {
0 1

O	 1.123784	 -2.011821	 -4.812821
C	 0.737682	 -1.012592	 -4.286607
C	 0.502283	 -0.963412	 -2.787116
C	 0.495513	 0.256299	 -5.073147
C	 1.829372	 -0.797765	 -2.029133
H	 0.034015	 -1.897660	 -2.496924
H	 -0.174327	 -0.152521	 -2.532791
C	 1.631333	 -0.777471	 -0.511575
H	 2.487117	 -1.609917	 -2.317513
H	 2.315646	 0.125867	 -2.339276
C	 2.915987	 -0.544314	 0.291766
H	 1.176484	 -1.715090	 -0.197392
H	 0.919029	 0.005998	 -0.261280
C	 3.373361	 0.914346	 0.347591
H	 3.708709	 -1.142521	 -0.150311
H	 2.780642	 -0.921148	 1.303579
H	 3.506512	 1.320010	 -0.651625
H	 4.322697	 0.999599	 0.867103
H	 2.660624	 1.545032	 0.868198
H	 -0.564556	 0.495896	 -5.062596
H	 0.824114	 0.126952	 -6.094947
H	 1.017590	 1.094538	 -4.620824

	symmetry c1
}
set optking {
	frozen_dihedral = ("
		6 3 2 1,
		6 3 5 8,
		3 5 8 12
	")
}

ee = energy('scf')
oeprop('DIPOLE', 'QUADRUPOLE', 'MULLIKEN_CHARGES')
f=open( 'psi4out.xyz', 'w' )
f.write( "22  " )
f.write( str(ee) + "\n" )
f.write( MOL.save_string_xyz() )
f.close()
--------------------------------------------------------------------------

    Molecular point group: c1

    Geometry (in Angstrom), charge = 0, multiplicity = 1:

       Center              X                  Y                   Z               Mass
    ------------   -----------------  -----------------  -----------------  -----------------
           O         -0.462580168050    -1.406969331927    -2.451552663926    15.994914619560
           C         -0.848682168050    -0.407740331927    -1.925338663926    12.000000000000
           C         -1.084081168050    -0.358560331927    -0.425847663926    12.000000000000
           C         -1.090851168050     0.861150668073    -2.711878663926    12.000000000000
           C          0.243007831950    -0.192913331927     0.332135336074    12.000000000000
           H         -1.552349168050    -1.292808331927    -0.135655663926     1.007825032070
           H         -1.760691168050     0.452330668073    -0.171522663926     1.007825032070
           C          0.044968831950    -0.172619331927     1.849693336074    12.000000000000
           H          0.900752831950    -1.005065331927     0.043755336074     1.007825032070
           H          0.729281831950     0.730718668073     0.021992336074     1.007825032070
           C          1.329622831950     0.060537668073     2.653034336074    12.000000000000
           H         -0.409880168050    -1.110238331927     2.163876336074     1.007825032070
           H         -0.667335168050     0.610849668073     2.099988336074     1.007825032070
           C          1.786996831950     1.519197668073     2.708859336074    12.000000000000
           H          2.122344831950    -0.537669331927     2.210957336074     1.007825032070
           H          1.194277831950    -0.316296331927     3.664847336074     1.007825032070
           H          1.920147831950     1.924861668073     1.709643336074     1.007825032070
           H          2.736332831950     1.604450668073     3.228371336074     1.007825032070
           H          1.074259831950     2.149883668073     3.229466336074     1.007825032070
           H         -2.150920168050     1.100747668073    -2.701327663926     1.007825032070
           H         -0.762250168050     0.731803668073    -3.733678663926     1.007825032070
           H         -0.568774168050     1.699389668073    -2.259555663926     1.007825032070

  Charge       = 0
  Multiplicity = 1
  Basis Set: 6-31G*
  Basis Set:

    Orbital Energies (a.u.)
    -----------------------

    Doubly Occupied:

       1A    -20.547421     2A    -11.324583     3A    -11.230004
       4A    -11.229238     5A    -11.228295     6A    -11.222142
       7A    -11.220506     8A    -11.213614     9A     -1.393174
      10A     -1.095846    11A     -1.044829    12A     -1.000158
      13A     -0.938564    14A     -0.855850    15A     -0.789850
      16A     -0.732924    17A     -0.660862    18A     -0.646722
      19A     -0.626203    20A     -0.618633    21A     -0.599194
      22A     -0.584732    23A     -0.554759    24A     -0.548762
      25A     -0.536621    26A     -0.516782    27A     -0.500495
      28A     -0.488859    29A     -0.469827    30A     -0.463724
      31A     -0.460887    32A     -0.396365

  @DF-RHF Final Energy:  -348.09737203157533

   => Energetics <=

    Nuclear Repulsion Energy =            372.3374710350849455
    One-Electron Energy =               -1209.3889536644917371
    Two-Electron Energy =                 488.9541105978304927
    DFT Exchange-Correlation Energy =       0.0000000000000000
    Empirical Dispersion Energy =           0.0000000000000000
    PCM Polarization Energy =               0.0000000000000000
    EFP Energy =                            0.0000000000000000
    Total Energy =                       -348.0973720315762989

  Mulliken Charges: (a.u.)
   Center  Symbol    Alpha    Beta     Spin     Total
       1     O     4.26240  4.26240  0.00000 -0.52480
       2     C     2.73718  2.73718  0.00000  0.52564
       3     C     3.19988  3.19988  0.00000 -0.39977
       4     C     3.28956  3.28956  0.00000 -0.57912
       5     C     3.16342  3.16342  0.00000 -0.32685
       6     H     0.40119  0.40119  0.00000  0.19763
       7     H     0.41677  0.41677  0.00000  0.16645
       8     C     3.15324  3.15324  0.00000 -0.30648
       9     H     0.40521  0.40521  0.00000  0.18958
      10     H     0.42016  0.42016  0.00000  0.15968
      11     C     3.15463  3.15463  0.00000 -0.30925
      12     H     0.41801  0.41801  0.00000  0.16399
      13     H     0.42377  0.42377  0.00000  0.15246
      14     C     3.24090  3.24090  0.00000 -0.48181
      15     H     0.42074  0.42074  0.00000  0.15853
      16     H     0.41867  0.41867  0.00000  0.16267
      17     H     0.42212  0.42212  0.00000  0.15576
      18     H     0.41758  0.41758  0.00000  0.16484
      19     H     0.42090  0.42090  0.00000  0.15820
      20     H     0.40689  0.40689  0.00000  0.18622
      21     H     0.39705  0.39705  0.00000  0.20589
      22     H     0.40973  0.40973  0.00000  0.18054

   Total alpha = 32.00000, Total beta = 32.00000, Total charge = -0.00000
