                              Psi4 1.0.54 Driver

  ==> Input File <==

--------------------------------------------------------------------------
set {
	reference rhf
	basis cc-pvtz
}

set_num_threads( 4 )
memory 2 gb

molecule MOL {
0 1

O	 0.749630	 1.305591	 -0.000460
C	 0.576499	 0.134701	 -0.003900
C	 -0.765656	 -0.550508	 -0.002152
O	 1.564816	 -0.744612	 -0.000631
C	 -1.945526	 0.411052	 0.000603
H	 -0.794329	 -1.203792	 -0.868145
H	 -0.791555	 -1.205429	 0.862701
C	 -1.499801	 1.866908	 -0.081471
H	 -2.532224	 0.254141	 0.897574
H	 -2.598877	 0.177241	 -0.831168
H	 -0.868641	 2.134522	 0.759558
H	 -2.353916	 2.533193	 -0.077724
H	 -0.936850	 2.056921	 -0.989385
C	 2.884339	 -0.237801	 0.002883
H	 3.064150	 0.362814	 -0.876312
H	 3.533055	 -1.098529	 0.004958
H	 3.059365	 0.363432	 0.882614

	symmetry c1
}
set optking {
	frozen_dihedral = ("
		9 5 3 6
	")
}

ee,wfn = optimize('scf', return_wfn=True)
oeprop( wfn, 'DIPOLE', 'QUADRUPOLE', 'MULLIKEN_CHARGES')
f=open( 'psi4out.xyz', 'w' )
f.write( "17  " )
f.write( str(ee) + "\n" )
f.write( MOL.save_string_xyz() )
f.close()
--------------------------------------------------------------------------

    Molecular point group: c1
  Charge       = 0
  Multiplicity = 1
  Basis Set: CC-PVTZ
  Basis Set:
  @DF-RHF Final Energy:  -344.99777118653134
    Total Energy =                       -344.9977711865313950
    Molecular point group: c1
  Basis Set: CC-PVTZ
  Basis Set:
  Basis Set: CC-PVTZ
  Basis Set:
  @DF-RHF Final Energy:  -345.01718339066929
    Total Energy =                       -345.0171833906695156
  Basis Set: CC-PVTZ
  Basis Set:
  Basis Set: CC-PVTZ
  Basis Set:
  @DF-RHF Final Energy:  -345.02096713176951
    Total Energy =                       -345.0209671317701918
  Basis Set: CC-PVTZ
  Basis Set:
  Basis Set: CC-PVTZ
  Basis Set:
  @DF-RHF Final Energy:  -345.01916281006140
    Total Energy =                       -345.0191628100616299
  Basis Set: CC-PVTZ
  Basis Set:
  @DF-RHF Final Energy:  -345.02250391751937
    Total Energy =                       -345.0225039175193160
  @DF-RHF Final Energy:  -345.02280496222357
    Total Energy =                       -345.0228049622235176
  @DF-RHF Final Energy:  -345.02289296190111
    Total Energy =                       -345.0228929619011637
  @DF-RHF Final Energy:  -345.02303629290464
    Total Energy =                       -345.0230362929049761
  @DF-RHF Final Energy:  -345.02322525551148
    Total Energy =                       -345.0232252555117043
  @DF-RHF Final Energy:  -345.01975061005174
    Total Energy =                       -345.0197506100516875
  @DF-RHF Final Energy:  -345.02312406813525
    Total Energy =                       -345.0231240681351892
  @DF-RHF Final Energy:  -345.02322621369024
    Total Energy =                       -345.0232262136897248
  @DF-RHF Final Energy:  -345.00707162749421
    Total Energy =                       -345.0070716274943834
  @DF-RHF Final Energy:  -345.02317443537243
    Total Energy =                       -345.0231744353725389
  @DF-RHF Final Energy:  -345.02347867606858
    Total Energy =                       -345.0234786760687484
  @DF-RHF Final Energy:  -345.02363473804121
    Total Energy =                       -345.0236347380412667
  @DF-RHF Final Energy:  -345.02383213368938
    Total Energy =                       -345.0238321336892113
  @DF-RHF Final Energy:  -345.02412350178327
    Total Energy =                       -345.0241235017835493
  @DF-RHF Final Energy:  -345.02464724310710
    Total Energy =                       -345.0246472431070401
  @DF-RHF Final Energy:  -345.02484997924091
    Total Energy =                       -345.0248499792412531
  @DF-RHF Final Energy:  -345.02535709787060
    Total Energy =                       -345.0253570978707103
  @DF-RHF Final Energy:  -345.02545209141209
    Total Energy =                       -345.0254520914122054
  @DF-RHF Final Energy:  -345.02575595068919
    Total Energy =                       -345.0257559506892449
  @DF-RHF Final Energy:  -345.02588191502684
    Total Energy =                       -345.0258819150266163
  Basis Set: CC-PVTZ
  Basis Set:
  @DF-RHF Final Energy:  -345.02586380659460
    Total Energy =                       -345.0258638065945433
  Basis Set: CC-PVTZ
  Basis Set:
  Basis Set: CC-PVTZ
  Basis Set:
  @DF-RHF Final Energy:  -345.02591179530407
    Total Energy =                       -345.0259117953041823
  Basis Set: CC-PVTZ
  Basis Set:
  Basis Set: CC-PVTZ
  Basis Set:
  @DF-RHF Final Energy:  -345.02592840533111
    Total Energy =                       -345.0259284053310012
  Basis Set: CC-PVTZ
  Basis Set:
  Charge       = 0
  Multiplicity = 1
  Basis Set: CC-PVTZ
  Basis Set:

    Orbital Energies (a.u.)
    -----------------------

    Doubly Occupied:

       1A    -20.597811     2A    -20.532057     3A    -11.363977
       4A    -11.278561     5A    -11.232526     6A    -11.231428
       7A    -11.212548     8A     -1.472218     9A     -1.364611
      10A     -1.079104    11A     -0.997971    12A     -0.944566
      13A     -0.836209    14A     -0.771347    15A     -0.691021
      16A     -0.682673    17A     -0.676118    18A     -0.633741
      19A     -0.607528    20A     -0.581959    21A     -0.553213
      22A     -0.541300    23A     -0.528903    24A     -0.504705
      25A     -0.485024    26A     -0.476945    27A     -0.458637
      28A     -0.435338

  @DF-RHF Final Energy:  -345.02592881152941

   => Energetics <=

    Nuclear Repulsion Energy =            322.8781054503419909
    One-Electron Energy =               -1110.2639841844675175
    Two-Electron Energy =                 442.3599499225965133
    DFT Exchange-Correlation Energy =       0.0000000000000000
    Empirical Dispersion Energy =           0.0000000000000000
    PCM Polarization Energy =               0.0000000000000000
    EFP Energy =                            0.0000000000000000
    Total Energy =                       -345.0259288115290133
    Molecular point group: c1
  Basis Set: CC-PVTZ
  Basis Set:

  -Total Gradient:
     Atom            X                  Y                   Z
    ------   -----------------  -----------------  -----------------
       1       -0.000066173136    -0.000026531864    -0.000025700037
       2        0.000039519259     0.000037859533     0.000066061318
       3        0.000351147505     0.000495084811    -0.000679096663
       4       -0.000014493995     0.000013521383    -0.000030356799
       5        0.000474143777     0.000548386431     0.000393843538
       6       -0.000359269990    -0.000488654024     0.000502454829
       7        0.000002623126    -0.000001389873     0.000003712488
       8        0.000027640314    -0.000019978118    -0.000024879407
       9       -0.000431004139    -0.000545979423    -0.000241056867
      10        0.000011101408     0.000000950283    -0.000016478621
      11        0.000007885704     0.000003680411     0.000006535820
      12       -0.000010607319     0.000010434019     0.000002407964
      13       -0.000014740030    -0.000003664460     0.000038579528
      14       -0.000045411564    -0.000002079776     0.000004795238
      15       -0.000007165659    -0.000010233182     0.000012514892
      16        0.000011247656    -0.000015460633    -0.000004064510
      17        0.000023557088     0.000004054483    -0.000009272705

  **** Optimization is complete! (in 28 steps) ****
    Final optimized geometry and variables:
    Molecular point group: c1

    Geometry (in Angstrom), charge = 0, multiplicity = 1:

    O            1.191668965687     0.006001157073     1.105357631955
    C            0.489249820650    -0.392622732038     0.238937403440
    C           -0.832304290129    -1.082758926951     0.459344750073
    O            0.786862608444    -0.272431098781    -1.044451497039
    C           -2.058192350963    -0.125263563234     0.510248532752
    H           -0.968571661140    -1.814936583447    -0.323489259487
    H           -0.743378074495    -1.609965136790     1.397557638762
    C           -1.786429732611     1.348057168054     0.214448793383
    H           -2.509888106807    -0.205936193529     1.490686492349
    H           -2.798866731383    -0.488580011480    -0.191248402371
    H           -1.082106637615     1.772445150385     0.919314021109
    H           -2.707996244901     1.913195307934     0.285982729209
    H           -1.391175904969     1.487780028252    -0.784510243138
    C            1.996667162941     0.382182594511    -1.369916274065
    H            1.991644746882     1.397394620751    -1.001657994395
    H            2.058201498710     0.376371123776    -2.446088405562
    H            2.839378701700    -0.142391777702    -0.944985634377

  Mulliken Charges: (a.u.)
   Center  Symbol    Alpha    Beta     Spin     Total
       1     O     4.20614  4.20614  0.00000 -0.41228
       2     C     2.79364  2.79364  0.00000  0.41273
       3     C     3.09161  3.09161  0.00000 -0.18322
       4     O     4.15281  4.15281  0.00000 -0.30563
       5     C     3.08662  3.08662  0.00000 -0.17324
       6     H     0.44231  0.44231  0.00000  0.11538
       7     H     0.43788  0.43788  0.00000  0.12423
       8     C     3.16103  3.16103  0.00000 -0.32206
       9     H     0.44803  0.44803  0.00000  0.10394
      10     H     0.44973  0.44973  0.00000  0.10054
      11     H     0.44486  0.44486  0.00000  0.11028
      12     H     0.44581  0.44581  0.00000  0.10837
      13     H     0.45015  0.45015  0.00000  0.09970
      14     C     3.04076  3.04076  0.00000 -0.08152
      15     H     0.45363  0.45363  0.00000  0.09275
      16     H     0.44498  0.44498  0.00000  0.11004
      17     H     0.45001  0.45001  0.00000  0.09998

   Total alpha = 28.00000, Total beta = 28.00000, Total charge = -0.00000

*** Psi4 exiting successfully. Buy a developer a beer!
