  ==> Input File <==

--------------------------------------------------------------------------
set {
	reference rhf
	basis 6-31G*
}

set_num_threads( 4 )
memory 2 gb

molecule MOL {
0 1

H	 -2.895624	 0.032436	 0.780863
O	 -2.347518	 -0.290803	 0.079804
C	 -1.184022	 0.487508	 -0.006784
C	 0.062599	 -0.378592	 0.031606
H	 -1.176523	 1.099369	 -0.904519
H	 -1.187323	 1.153111	 0.844927
O	 1.171513	 0.459272	 -0.058250
H	 0.050699	 -1.089204	 -0.797170
H	 0.078739	 -0.954914	 0.954740
C	 2.397842	 -0.198080	 -0.002151
H	 2.508049	 -0.905315	 -0.822092
H	 3.173794	 0.550865	 -0.078850
H	 2.517602	 -0.735921	 0.936026

	symmetry c1
}
set optking {
	frozen_dihedral = ("
		1 2 3 5
	")
}

ee = optimize('scf')
oeprop('DIPOLE', 'QUADRUPOLE', 'MULLIKEN_CHARGES')
f=open( 'psi4out.xyz', 'w' )
f.write( "13  " )
f.write( str(ee) + "\n" )
f.write( MOL.save_string_xyz() )
f.close()
--------------------------------------------------------------------------

    Molecular point group: c1
  Charge       = 0
  Multiplicity = 1
  Basis Set: 6-31G*
  Basis Set:
  @DF-RHF Final Energy:  -267.94820377889698
    Total Energy =                       -267.9482037788970956
    Molecular point group: c1
  Basis Set: 6-31G*
  Basis Set:
  Basis Set: 6-31G*
  Basis Set:
  @DF-RHF Final Energy:  -267.94934195109141
    Total Energy =                       -267.9493419510920376
  Basis Set: 6-31G*
  Basis Set:
  Basis Set: 6-31G*
  Basis Set:
  @DF-RHF Final Energy:  -267.94962563528293
    Total Energy =                       -267.9496256352830414
  Basis Set: 6-31G*
  Basis Set:
  Basis Set: 6-31G*
  Basis Set:
  @DF-RHF Final Energy:  -267.94963121894239
    Total Energy =                       -267.9496312189420451
  Basis Set: 6-31G*
  Basis Set:
  Charge       = 0
  Multiplicity = 1
  Basis Set: 6-31G*
  Basis Set:

    Orbital Energies (a.u.)
    -----------------------

    Doubly Occupied:

       1A    -20.558776     2A    -20.558025     3A    -11.269137
       4A    -11.267383     5A    -11.265926     6A     -1.385095
       7A     -1.362858     8A     -1.017689     9A     -0.911307
      10A     -0.832937    11A     -0.711993    12A     -0.678194
      13A     -0.643984    14A     -0.640617    15A     -0.606864
      16A     -0.550459    17A     -0.544754    18A     -0.492098
      19A     -0.475774    20A     -0.437723    21A     -0.418277

  @DF-RHF Final Energy:  -267.94963211333754

   => Energetics <=

    Nuclear Repulsion Energy =            190.2670408828362270
    One-Electron Energy =                -743.1736048062655300
    Two-Electron Energy =                 284.9569318100915325
    DFT Exchange-Correlation Energy =       0.0000000000000000
    Empirical Dispersion Energy =           0.0000000000000000
    PCM Polarization Energy =               0.0000000000000000
    EFP Energy =                            0.0000000000000000
    Total Energy =                       -267.9496321133377705
    Molecular point group: c1
  Basis Set: 6-31G*
  Basis Set:

  -Total Gradient:
     Atom            X                  Y                   Z
    ------   -----------------  -----------------  -----------------
       1        0.000293506711    -0.000387290376     0.000444717960
       2       -0.000270735433     0.000402867645    -0.000618695638
       3       -0.000352711902     0.000376491916     0.000453998167
       4       -0.000006485969     0.000015865658    -0.000017818160
       5        0.000314210229    -0.000431178803    -0.000257927379
       6        0.000009543193    -0.000004022609     0.000000305107
       7        0.000035201125     0.000014487307    -0.000008868232
       8        0.000000017764    -0.000000801979    -0.000001749807
       9       -0.000020186972     0.000008541185     0.000001184123
      10        0.000002019852     0.000004580286     0.000007143384
      11       -0.000005354134     0.000002401075    -0.000000421627
      12       -0.000000557724     0.000000311221    -0.000001150610
      13        0.000001533262    -0.000002252528    -0.000000717290

  **** Optimization is complete! (in 5 steps) ****
    Final optimized geometry and variables:
    Molecular point group: c1

    Geometry (in Angstrom), charge = 0, multiplicity = 1:

    H           -2.922996420603    -0.028881873923     0.680707880225
    O           -2.314921218065    -0.331648143215     0.024523064289
    C           -1.180444282171     0.498463607911    -0.010885681785
    C            0.057298018773    -0.374405289304     0.039649780543
    H           -1.172873059447     1.078066408233    -0.927405145165
    H           -1.164501634803     1.193251252325     0.822649957752
    O            1.172407271609     0.457584252776    -0.053624862661
    H            0.032388273020    -1.087767788989    -0.781998186812
    H            0.070713270357    -0.941779780468     0.968919211570
    C            2.392285599497    -0.213391099272    -0.043517973599
    H            2.473972025612    -0.901797649248    -0.882263439784
    H            3.174669236005     0.528952143017    -0.121570359051
    H            2.529729091392    -0.775070044052     0.878498600222

  Mulliken Charges: (a.u.)
   Center  Symbol    Alpha    Beta     Spin     Total
       1     H     0.27736  0.27736  0.00000  0.44527
       2     O     4.37543  4.37543  0.00000 -0.75085
       3     C     3.00498  3.00498  0.00000 -0.00996
       4     C     2.99122  2.99122  0.00000  0.01756
       5     H     0.41682  0.41682  0.00000  0.16635
       6     H     0.42387  0.42387  0.00000  0.15226
       7     O     4.30941  4.30941  0.00000 -0.61882
       8     H     0.42345  0.42345  0.00000  0.15311
       9     H     0.42912  0.42912  0.00000  0.14176
      10     C     3.07942  3.07942  0.00000 -0.15883
      11     H     0.42808  0.42808  0.00000  0.14383
      12     H     0.41172  0.41172  0.00000  0.17657
      13     H     0.42912  0.42912  0.00000  0.14176

   Total alpha = 21.00000, Total beta = 21.00000, Total charge = -0.00000
