  ==> Input File <==

--------------------------------------------------------------------------
set {
	reference rhf
	basis 6-31G*
}

set_num_threads( 1 )
memory 2 gb

molecule MOL {
0 1

H	 2.591676	 2.013956	 0.335017
O	 3.341076	 1.666752	 -0.126416
C	 3.569581	 0.339145	 0.272707
C	 3.606294	 0.164521	 1.786935
H	 2.752842	 -0.237576	 -0.142026
H	 4.489998	 -0.039013	 -0.170700
C	 4.758457	 0.904422	 2.470992
H	 2.659113	 0.505824	 2.196480
H	 3.680611	 -0.899821	 2.003778
C	 4.799814	 0.665459	 3.982946
H	 4.666014	 1.968908	 2.274300
H	 5.704372	 0.585447	 2.032995
C	 5.985728	 1.315147	 4.705341
H	 3.870778	 1.018700	 4.426749
H	 4.832665	 -0.407008	 4.163041
C	 5.976316	 2.846275	 4.711451
H	 5.992208	 0.964441	 5.735283
H	 6.914814	 0.961872	 4.260558
C	 7.119768	 3.446153	 5.532487
H	 5.025918	 3.197852	 5.110511
H	 6.038374	 3.225007	 3.694094
C	 7.116461	 4.974435	 5.534966
H	 7.056332	 3.083837	 6.556299
H	 8.069902	 3.088264	 5.141277
H	 6.191586	 5.363810	 5.951160
H	 7.936903	 5.369007	 6.126425
H	 7.215920	 5.368771	 4.527509

	symmetry c1
}
set optking {
	frozen_dihedral = ("
		14 10 7 4,
		14 10 13 16,
		10 7 4 8,
		8 4 3 2,
		10 13 16 20,
		20 16 19 22
	")
}

ee = energy('scf')
oeprop('DIPOLE', 'QUADRUPOLE', 'MULLIKEN_CHARGES')
f=open( 'psi4out.xyz', 'w' )
f.write( "27  " )
f.write( str(ee) + "\n" )
f.write( MOL.save_string_xyz() )
f.close()
--------------------------------------------------------------------------

    Molecular point group: c1

    Geometry (in Angstrom), charge = 0, multiplicity = 1:

       Center              X                  Y                   Z               Mass
    ------------   -----------------  -----------------  -----------------  -----------------
           H         -2.518894917025     0.185608283489    -2.820742535672     1.007825032070
           O         -1.769494917025    -0.161595716511    -3.282175535672    15.994914619560
           C         -1.540989917025    -1.489202716511    -2.883052535672    12.000000000000
           C         -1.504276917025    -1.663826716511    -1.368824535672    12.000000000000
           H         -2.357728917025    -2.065923716511    -3.297785535672     1.007825032070
           H         -0.620572917025    -1.867360716511    -3.326459535672     1.007825032070
           C         -0.352113917025    -0.923925716511    -0.684767535672    12.000000000000
           H         -2.451457917025    -1.322523716511    -0.959279535672     1.007825032070
           H         -1.429959917025    -2.728168716511    -1.151981535672     1.007825032070
           C         -0.310756917025    -1.162888716511     0.827186464328    12.000000000000
           H         -0.444556917025     0.140560283489    -0.881459535672     1.007825032070
           H          0.593801082975    -1.242900716511    -1.122764535672     1.007825032070
           C          0.875157082975    -0.513200716511     1.549581464328    12.000000000000
           H         -1.239792917025    -0.809647716511     1.270989464328     1.007825032070
           H         -0.277905917025    -2.235355716511     1.007281464328     1.007825032070
           C          0.865745082975     1.017927283489     1.555691464328    12.000000000000
           H          0.881637082975    -0.863906716511     2.579523464328     1.007825032070
           H          1.804243082975    -0.866475716511     1.104798464328     1.007825032070
           C          2.009197082975     1.617805283489     2.376727464328    12.000000000000
           H         -0.084652917025     1.369504283489     1.954751464328     1.007825032070
           H          0.927803082975     1.396659283489     0.538334464328     1.007825032070
           C          2.005890082975     3.146087283489     2.379206464328    12.000000000000
           H          1.945761082975     1.255489283489     3.400539464328     1.007825032070
           H          2.959331082975     1.259916283489     1.985517464328     1.007825032070
           H          1.081015082975     3.535462283489     2.795400464328     1.007825032070
           H          2.826332082975     3.540659283489     2.970665464328     1.007825032070
           H          2.105349082975     3.540423283489     1.371749464328     1.007825032070

  Charge       = 0
  Multiplicity = 1
  Basis Set: 6-31G*
  Basis Set:

    Orbital Energies (a.u.)
    -----------------------

    Doubly Occupied:

       1A    -20.550989     2A    -11.267690     3A    -11.219780
       4A    -11.214600     5A    -11.213742     6A    -11.213646
       7A    -11.213105     8A    -11.211398     9A    -11.207166
      10A     -1.358983    11A     -1.092659    12A     -1.059896
      13A     -1.010455    14A     -0.945968    15A     -0.884911
      16A     -0.822251    17A     -0.801814    18A     -0.775867
      19A     -0.672336    20A     -0.653470    21A     -0.642306
      22A     -0.619936    23A     -0.606141    24A     -0.585020
      25A     -0.571743    26A     -0.559406    27A     -0.537225
      28A     -0.520139    29A     -0.512108    30A     -0.488703
      31A     -0.479275    32A     -0.475282    33A     -0.464649
      34A     -0.457346    35A     -0.452679    36A     -0.441552
      37A     -0.419012

  @DF-RHF Final Energy:  -388.28012699734239

   => Energetics <=

    Nuclear Repulsion Energy =            459.3383384933718503
    One-Electron Energy =               -1436.7904176674426253
    Two-Electron Energy =                 589.1719521767302012
    DFT Exchange-Correlation Energy =       0.0000000000000000
    Empirical Dispersion Energy =           0.0000000000000000
    PCM Polarization Energy =               0.0000000000000000
    EFP Energy =                            0.0000000000000000
    Total Energy =                       -388.2801269973406306

  Mulliken Charges: (a.u.)
   Center  Symbol    Alpha    Beta     Spin     Total
       1     H     0.28248  0.28248  0.00000  0.43504
       2     O     4.37099  4.37099  0.00000 -0.74199
       3     C     2.99067  2.99067  0.00000  0.01865
       4     C     3.17359  3.17359  0.00000 -0.34717
       5     H     0.42794  0.42794  0.00000  0.14412
       6     H     0.41682  0.41682  0.00000  0.16637
       7     C     3.15326  3.15326  0.00000 -0.30653
       8     H     0.42765  0.42765  0.00000  0.14470
       9     H     0.42105  0.42105  0.00000  0.15790
      10     C     3.15297  3.15297  0.00000 -0.30595
      11     H     0.41328  0.41328  0.00000  0.17345
      12     H     0.42316  0.42316  0.00000  0.15368
      13     C     3.15286  3.15286  0.00000 -0.30572
      14     H     0.42513  0.42513  0.00000  0.14973
      15     H     0.42318  0.42318  0.00000  0.15364
      16     C     3.15328  3.15328  0.00000 -0.30656
      17     H     0.42220  0.42220  0.00000  0.15560
      18     H     0.42359  0.42359  0.00000  0.15282
      19     C     3.15111  3.15111  0.00000 -0.30223
      20     H     0.42545  0.42545  0.00000  0.14910
      21     H     0.42039  0.42039  0.00000  0.15923
      22     C     3.23923  3.23923  0.00000 -0.47846
      23     H     0.42360  0.42360  0.00000  0.15280
      24     H     0.42293  0.42293  0.00000  0.15415
      25     H     0.42225  0.42225  0.00000  0.15550
      26     H     0.41962  0.41962  0.00000  0.16076
      27     H     0.42132  0.42132  0.00000  0.15736

   Total alpha = 37.00000, Total beta = 37.00000, Total charge =  0.00000
