  ==> Input File <==

--------------------------------------------------------------------------
set {
	reference rhf
	basis 6-31G*
}

set_num_threads( 4 )
memory 2 gb

molecule MOL {
0 1

H	 2.826342	 1.699779	 1.386333
N	 1.991131	 1.149380	 1.331303
C	 1.865559	 0.531981	 0.018834
H	 1.223290	 1.770797	 1.501865
C	 0.645745	 -0.382037	 -0.029944
H	 2.761408	 -0.056073	 -0.155826
H	 1.805664	 1.260086	 -0.793986
C	 -0.679275	 0.379305	 0.025956
H	 0.698998	 -0.976915	 -0.937203
H	 0.693479	 -1.083846	 0.802235
C	 -1.903357	 -0.536963	 -0.023547
H	 -0.726309	 1.082987	 -0.803784
H	 -0.717680	 0.977832	 0.934877
C	 -3.225172	 0.228290	 0.028445
H	 -1.867824	 -1.134999	 -0.931459
H	 -1.860449	 -1.239604	 0.805977
H	 -3.313397	 0.915643	 -0.808262
H	 -4.073500	 -0.448134	 -0.008893
H	 -3.306061	 0.809945	 0.942516

	symmetry c1
}
set optking {
	frozen_dihedral = ("
		6 3 5 9
	")
}

ee = optimize('scf')
oeprop('DIPOLE', 'QUADRUPOLE', 'MULLIKEN_CHARGES')
f=open( 'psi4out.xyz', 'w' )
f.write( "19  " )
f.write( str(ee) + "\n" )
f.write( MOL.save_string_xyz() )
f.close()
--------------------------------------------------------------------------

    Molecular point group: c1
  Charge       = 0
  Multiplicity = 1
  Basis Set: 6-31G*
  Basis Set:
  @DF-RHF Final Energy:  -251.35035182050837
    Total Energy =                       -251.3503518205084220
    Molecular point group: c1
  Basis Set: 6-31G*
  Basis Set:
  Basis Set: 6-31G*
  Basis Set:
  @DF-RHF Final Energy:  -251.35062525518680
    Total Energy =                       -251.3506252551868556
  Basis Set: 6-31G*
  Basis Set:
  Basis Set: 6-31G*
  Basis Set:
  @DF-RHF Final Energy:  -251.35073950039916
    Total Energy =                       -251.3507395003992428
  Basis Set: 6-31G*
  Basis Set:
  Basis Set: 6-31G*
  Basis Set:
  @DF-RHF Final Energy:  -251.35074338864493
    Total Energy =                       -251.3507433886449007
  Basis Set: 6-31G*
  Basis Set:
  Basis Set: 6-31G*
  Basis Set:
  @DF-RHF Final Energy:  -251.35074569879490
    Total Energy =                       -251.3507456987948672
  Basis Set: 6-31G*
  Basis Set:
  Charge       = 0
  Multiplicity = 1
  Basis Set: 6-31G*
  Basis Set:

    Orbital Energies (a.u.)
    -----------------------

    Doubly Occupied:

       1A    -15.532472     2A    -11.240001     3A    -11.213755
       4A    -11.212544     5A    -11.208641     6A    -11.207507
       7A     -1.176718     8A     -1.071254     9A     -0.997224
      10A     -0.906015    11A     -0.813940    12A     -0.781331
      13A     -0.664011    14A     -0.650621    15A     -0.613154
      16A     -0.586558    17A     -0.559050    18A     -0.550003
      19A     -0.531150    20A     -0.500483    21A     -0.487328
      22A     -0.463148    23A     -0.461450    24A     -0.444223
      25A     -0.380826

  @DF-RHF Final Energy:  -251.35074598093451

   => Energetics <=

    Nuclear Repulsion Energy =            248.8891481499890119
    One-Electron Energy =                -831.9729719035080961
    Two-Electron Energy =                 331.7330777725844655
    DFT Exchange-Correlation Energy =       0.0000000000000000
    Empirical Dispersion Energy =           0.0000000000000000
    PCM Polarization Energy =               0.0000000000000000
    EFP Energy =                            0.0000000000000000
    Total Energy =                       -251.3507459809345619
    Molecular point group: c1
  Basis Set: 6-31G*
  Basis Set:

  -Total Gradient:
     Atom            X                  Y                   Z
    ------   -----------------  -----------------  -----------------
       1       -0.000004862491    -0.000002744677    -0.000001105643
       2       -0.000021814562    -0.000011429003    -0.000009954409
       3        0.000284471399    -0.000429927999     0.001580479268
       4       -0.000011788283     0.000007311038     0.000006235710
       5       -0.000778553813     0.001100660768    -0.001016373044
       6       -0.000105624262     0.000180981670    -0.001200179851
       7        0.000000210446     0.000004711905    -0.000000378810
       8        0.000020201637     0.000003301382     0.000007206551
       9        0.000618914387    -0.000851324749     0.000606896291
      10       -0.000002992581    -0.000007145834     0.000013620430
      11       -0.000005710490    -0.000007888818     0.000003988113
      12        0.000008227223    -0.000001585813     0.000011140930
      13       -0.000004495885     0.000011239487     0.000006509744
      14        0.000000836650    -0.000000594929    -0.000012704814
      15       -0.000006289685     0.000004757605     0.000001739911
      16        0.000007798950     0.000000659393     0.000001367484
      17       -0.000001580750     0.000002871601     0.000001126992
      18        0.000000594667    -0.000000568169    -0.000000903845
      19        0.000002457444    -0.000003284858     0.000001288993

  **** Optimization is complete! (in 6 steps) ****
    Final optimized geometry and variables:
    Molecular point group: c1

    Geometry (in Angstrom), charge = 0, multiplicity = 1:

    H            3.119171403016     1.385461397972     1.129447497491
    N            2.233870547575     0.919346254507     1.081092077342
    C            2.069133600983     0.271657647701    -0.213363170905
    H            1.533889580736     1.621652054244     1.221395675310
    C            0.836021152950    -0.628478310501    -0.242302370102
    H            2.949288823557    -0.337320427194    -0.391777666465
    H            2.014333120696     0.982290023968    -1.042439097484
    C           -0.495340275188     0.124117903609    -0.191188510244
    H            0.872801752175    -1.233625296862    -1.146304021079
    H            0.898186548324    -1.315520532263     0.597142452085
    C           -1.709647363850    -0.801933387899    -0.285123654618
    H           -0.533738934378     0.848555057583    -1.004129337300
    H           -0.560961133821     0.693045221485     0.733954675404
    C           -3.040075882304    -0.052269236260    -0.226681389857
    H           -1.656605763264    -1.371106413649    -1.210795294630
    H           -1.668967697797    -1.528924357085     0.522884466867
    H           -3.124794379165     0.660975401274    -1.041911083381
    H           -3.880577681217    -0.735824237351    -0.297259381266
    H           -3.139312651966     0.498219424801     0.704674475137

  Mulliken Charges: (a.u.)
   Center  Symbol    Alpha    Beta     Spin     Total
       1     H     0.33214  0.33214  0.00000  0.33572
       2     N     3.92228  3.92228  0.00000 -0.84455
       3     C     3.06590  3.06590  0.00000 -0.13180
       4     H     0.33268  0.33268  0.00000  0.33464
       5     C     3.14975  3.14975  0.00000 -0.29951
       6     H     0.41910  0.41910  0.00000  0.16179
       7     H     0.43487  0.43487  0.00000  0.13026
       8     C     3.15661  3.15661  0.00000 -0.31322
       9     H     0.42490  0.42490  0.00000  0.15020
      10     H     0.41421  0.41421  0.00000  0.17157
      11     C     3.15074  3.15074  0.00000 -0.30147
      12     H     0.42602  0.42602  0.00000  0.14796
      13     H     0.42325  0.42325  0.00000  0.15351
      14     C     3.23934  3.23934  0.00000 -0.47868
      15     H     0.42334  0.42334  0.00000  0.15332
      16     H     0.42121  0.42121  0.00000  0.15759
      17     H     0.42248  0.42248  0.00000  0.15504
      18     H     0.41933  0.41933  0.00000  0.16133
      19     H     0.42185  0.42185  0.00000  0.15631

   Total alpha = 25.00000, Total beta = 25.00000, Total charge =  0.00000
