                              Psi4 1.0.54 Driver

  ==> Input File <==

--------------------------------------------------------------------------
set {
	reference rhf
	basis cc-pvtz
}

set_num_threads( 4 )
memory 2 gb

molecule MOL {
0 1

H	 -3.436473	 1.252944	 -1.023892
O	 -3.458596	 0.315260	 -0.960865
C	 -3.176635	 -0.080824	 0.355601
C	 -1.763371	 0.265266	 0.799691
H	 -3.321825	 -1.153438	 0.379502
H	 -3.895468	 0.357385	 1.043382
C	 -0.673390	 -0.426948	 -0.013392
H	 -1.631049	 1.344913	 0.747560
H	 -1.664587	 -0.001624	 1.849167
C	 0.737842	 -0.043159	 0.423759
H	 -0.806103	 -0.190518	 -1.063345
H	 -0.797221	 -1.503753	 0.074146
C	 1.824000	 -0.743224	 -0.390623
H	 0.850588	 1.033777	 0.343840
H	 0.868587	 -0.286314	 1.476203
C	 3.255957	 -0.453067	 0.062319
H	 1.718250	 -0.470599	 -1.438164
H	 1.658105	 -1.815850	 -0.339904
C	 3.525436	 1.003281	 0.433229
H	 3.932867	 -0.738488	 -0.737120
H	 3.500772	 -1.091081	 0.907555
H	 3.283777	 1.665968	 -0.391709
H	 4.571208	 1.150390	 0.678100
H	 2.943758	 1.317975	 1.291264

	symmetry c1
}
set optking {
	frozen_dihedral = ("
		20 16 13 17
	")
}

ee,wfn = optimize('scf', return_wfn=True)
oeprop( wfn, 'DIPOLE', 'QUADRUPOLE', 'MULLIKEN_CHARGES')
f=open( 'psi4out.xyz', 'w' )
f.write( "24  " )
f.write( str(ee) + "\n" )
f.write( MOL.save_string_xyz() )
f.close()
--------------------------------------------------------------------------

    Molecular point group: c1
  Charge       = 0
  Multiplicity = 1
  Basis Set: CC-PVTZ
  Basis Set:
  @DF-RHF Final Energy:  -349.37790245922560
    Total Energy =                       -349.3779024592259361
    Molecular point group: c1
  Basis Set: CC-PVTZ
  Basis Set:
  Basis Set: CC-PVTZ
  Basis Set:
  @DF-RHF Final Energy:  -349.33605311773618
    Total Energy =                       -349.3360531177370376
  Basis Set: CC-PVTZ
  Basis Set:
  Basis Set: CC-PVTZ
  Basis Set:
  @DF-RHF Final Energy:  -349.37690249861168
    Total Energy =                       -349.3769024986120257
  Basis Set: CC-PVTZ
  Basis Set:
  Basis Set: CC-PVTZ
  Basis Set:
  @DF-RHF Final Energy:  -349.37830457401850
    Total Energy =                       -349.3783045740183866
  Basis Set: CC-PVTZ
  Basis Set:
  Basis Set: CC-PVTZ
  Basis Set:
  @DF-RHF Final Energy:  -349.37833857305895
    Total Energy =                       -349.3783385730586701
  Basis Set: CC-PVTZ
  Basis Set:
  Basis Set: CC-PVTZ
  Basis Set:
  @DF-RHF Final Energy:  -349.37840486590409
    Total Energy =                       -349.3784048659041446
  Basis Set: CC-PVTZ
  Basis Set:
  Basis Set: CC-PVTZ
  Basis Set:
  @DF-RHF Final Energy:  -349.37840760529093
    Total Energy =                       -349.3784076052909313
  Basis Set: CC-PVTZ
  Basis Set:
  Charge       = 0
  Multiplicity = 1
  Basis Set: CC-PVTZ
  Basis Set:

    Orbital Energies (a.u.)
    -----------------------

    Doubly Occupied:

       1A    -20.546277     2A    -11.265527     3A    -11.215177
       4A    -11.212323     5A    -11.210420     6A    -11.209417
       7A    -11.209008     8A    -11.204891     9A     -1.364138
      10A     -1.089586    11A     -1.048786    12A     -0.986238
      13A     -0.916160    14A     -0.853570    15A     -0.802382
      16A     -0.772177    17A     -0.681943    18A     -0.655407
      19A     -0.629222    20A     -0.620072    21A     -0.595412
      22A     -0.587156    23A     -0.556637    24A     -0.544466
      25A     -0.515202    26A     -0.506423    27A     -0.504223
      28A     -0.472901    29A     -0.468299    30A     -0.460137
      31A     -0.453074    32A     -0.451697    33A     -0.421606

  @DF-RHF Final Energy:  -349.37840771106653

   => Energetics <=

    Nuclear Repulsion Energy =            385.5107252968813327
    One-Electron Energy =               -1237.7183515740662187
    Two-Electron Energy =                 502.8292185661189251
    DFT Exchange-Correlation Energy =       0.0000000000000000
    Empirical Dispersion Energy =           0.0000000000000000
    PCM Polarization Energy =               0.0000000000000000
    EFP Energy =                            0.0000000000000000
    Total Energy =                       -349.3784077110659609
    Molecular point group: c1
  Basis Set: CC-PVTZ
  Basis Set:

  -Total Gradient:
     Atom            X                  Y                   Z
    ------   -----------------  -----------------  -----------------
       1       -0.000000048450    -0.000004140910     0.000001590100
       2        0.000002628241     0.000003141763    -0.000003385555
       3       -0.000001773739     0.000000337231    -0.000002668755
       4       -0.000002614237    -0.000006113922     0.000013118091
       5        0.000002322776     0.000001484925     0.000000546386
       6        0.000000782162     0.000001545979     0.000003508452
       7       -0.000006091359     0.000001959214     0.000000553783
       8       -0.000001848977    -0.000005412762    -0.000002304293
       9       -0.000001993296     0.000004042491     0.000002821004
      10       -0.000006184591     0.000002419224    -0.000000613840
      11        0.000006161362     0.000004592597    -0.000001972529
      12        0.000000495771     0.000000744830    -0.000001366829
      13       -0.001771281059     0.006469652157    -0.001036990727
      14        0.000001234192    -0.000004486084    -0.000000945411
      15       -0.000008942808     0.000003688535    -0.000005465093
      16        0.000650596101    -0.005427139775     0.003970865239
      17        0.001375097069    -0.004621143913     0.000272272009
      18       -0.000005533234     0.000004782936    -0.000009847058
      19        0.000020877916    -0.000022685737    -0.000013600263
      20       -0.000263609783     0.003588368631    -0.003188318681
      21        0.000011786125    -0.000001341676     0.000003957678
      22        0.000007451273     0.000006986701     0.000000261284
      23       -0.000004126294     0.000008202218     0.000001157929
      24       -0.000005385168    -0.000009484652    -0.000003172918

  **** Optimization is complete! (in 8 steps) ****
    Final optimized geometry and variables:
    Molecular point group: c1

    Geometry (in Angstrom), charge = 0, multiplicity = 1:

    H           -3.458602575639     0.633156475635    -1.476622169435
    O           -3.431208406975    -0.232589684982    -1.111372932095
    C           -3.165718525926    -0.161040925640     0.264709824818
    C           -1.786634924772     0.396030516696     0.584358341888
    H           -3.252737246640    -1.174441127131     0.635660006724
    H           -3.926773609124     0.432191364593     0.765390896546
    C           -0.637871083410    -0.453833240922     0.049193686231
    H           -1.712749808505     1.406726188418     0.185793168137
    H           -1.702623030597     0.489538891832     1.664466696478
    C            0.737342929153     0.134015814479     0.354667152815
    H           -0.751641009855    -0.574797326796    -1.022477571693
    H           -0.706934376293    -1.451034660279     0.477104565884
    C            1.878224290031    -0.721103237301    -0.188385402896
    H            0.792856801726     1.135240061118    -0.060752439114
    H            0.851392324160     0.244042673891     1.431349662889
    C            3.295925425619    -0.275589852164     0.193158284418
    H            1.806107032378    -0.805529830833    -1.269834703288
    H            1.744963091785    -1.737815036932     0.174021112413
    C            3.569317222033     1.220305493757     0.035185996250
    H            3.996298399270    -0.797451303713    -0.451139334722
    H            3.512314105060    -0.571576052482     1.214823089151
    H            3.344396365626     1.555989544200    -0.972417606699
    H            4.613934583213     1.437384655915     0.227480440196
    H            2.981033302630     1.817258483520     0.721254586008

  Mulliken Charges: (a.u.)
   Center  Symbol    Alpha    Beta     Spin     Total
       1     H     0.39531  0.39531  0.00000  0.20938
       2     O     4.20375  4.20375  0.00000 -0.40750
       3     C     2.97780  2.97780  0.00000  0.04439
       4     C     3.10175  3.10175  0.00000 -0.20350
       5     H     0.45890  0.45890  0.00000  0.08219
       6     H     0.46032  0.46032  0.00000  0.07936
       7     C     3.08790  3.08790  0.00000 -0.17581
       8     H     0.45919  0.45919  0.00000  0.08162
       9     H     0.45351  0.45351  0.00000  0.09298
      10     C     3.09178  3.09178  0.00000 -0.18356
      11     H     0.44652  0.44652  0.00000  0.10697
      12     H     0.45475  0.45475  0.00000  0.09050
      13     C     3.09622  3.09622  0.00000 -0.19244
      14     H     0.45174  0.45174  0.00000  0.09653
      15     H     0.45518  0.45518  0.00000  0.08965
      16     C     3.08910  3.08910  0.00000 -0.17821
      17     H     0.45186  0.45186  0.00000  0.09628
      18     H     0.45176  0.45176  0.00000  0.09648
      19     C     3.15700  3.15700  0.00000 -0.31401
      20     H     0.45021  0.45021  0.00000  0.09958
      21     H     0.45274  0.45274  0.00000  0.09452
      22     H     0.45418  0.45418  0.00000  0.09164
      23     H     0.44572  0.44572  0.00000  0.10857
      24     H     0.45282  0.45282  0.00000  0.09436

   Total alpha = 33.00000, Total beta = 33.00000, Total charge = -0.00000

*** Psi4 exiting successfully. Buy a developer a beer!
