  ==> Input File <==

--------------------------------------------------------------------------
set {
	reference rhf
	basis 6-31G*
}

set_num_threads( 1 )
memory 2 gb

molecule MOL {
0 1

O	 -2.439739	 -0.935931	 -0.423848
C	 -1.921153	 0.064240	 -0.045697
C	 -2.624470	 1.379923	 0.150949
O	 -0.632575	 0.154573	 0.251549
H	 -2.168117	 2.136577	 -0.476876
H	 -3.669540	 1.273223	 -0.098610
H	 -2.519365	 1.700893	 1.180846
C	 0.160891	 -1.019931	 0.106212
C	 1.589627	 -0.672828	 0.480843
H	 0.089836	 -1.367806	 -0.916050
H	 -0.238459	 -1.792301	 0.749618
C	 2.564280	 -1.846494	 0.367004
H	 1.578782	 -0.305252	 1.504905
H	 1.926218	 0.150558	 -0.143656
C	 3.987035	 -1.468785	 0.777009
H	 2.213340	 -2.665590	 0.991522
H	 2.565497	 -2.214302	 -0.653816
H	 4.658532	 -2.316708	 0.686716
H	 4.022507	 -1.127150	 1.807691
H	 4.376436	 -0.670827	 0.151144

	symmetry c1
}
set optking {
	frozen_dihedral = ("
		16 12 9 8,
		2 4 8 10,
		1 2 4 8
	")
}

ee = energy('scf')
oeprop('DIPOLE', 'QUADRUPOLE', 'MULLIKEN_CHARGES')
f=open( 'psi4out.xyz', 'w' )
f.write( "20  " )
f.write( str(ee) + "\n" )
f.write( MOL.save_string_xyz() )
f.close()
--------------------------------------------------------------------------

    Molecular point group: c1

    Geometry (in Angstrom), charge = 0, multiplicity = 1:

       Center              X                  Y                   Z               Mass
    ------------   -----------------  -----------------  -----------------  -----------------
           O         -2.516142699469    -0.397360524699    -0.631463630618    15.994914619560
           C         -1.997556699469     0.602810475301    -0.253312630618    12.000000000000
           C         -2.700873699469     1.918493475301    -0.056666630618    12.000000000000
           O         -0.708978699469     0.693143475301     0.043933369382    15.994914619560
           H         -2.244520699469     2.675147475301    -0.684491630618     1.007825032070
           H         -3.745943699469     1.811793475301    -0.306225630618     1.007825032070
           H         -2.595768699469     2.239463475301     0.973230369382     1.007825032070
           C          0.084487300531    -0.481360524699    -0.101403630618    12.000000000000
           C          1.513223300531    -0.134257524699     0.273227369382    12.000000000000
           H          0.013432300531    -0.829235524699    -1.123665630618     1.007825032070
           H         -0.314862699469    -1.253730524699     0.542002369382     1.007825032070
           C          2.487876300531    -1.307923524699     0.159388369382    12.000000000000
           H          1.502378300531     0.233318475301     1.297289369382     1.007825032070
           H          1.849814300531     0.689128475301    -0.351271630618     1.007825032070
           C          3.910631300531    -0.930214524699     0.569393369382    12.000000000000
           H          2.136936300531    -2.127019524699     0.783906369382     1.007825032070
           H          2.489093300531    -1.675731524699    -0.861431630618     1.007825032070
           H          4.582128300531    -1.778137524699     0.479100369382     1.007825032070
           H          3.946103300531    -0.588579524699     1.600075369382     1.007825032070
           H          4.300032300531    -0.132256524699    -0.056471630618     1.007825032070

  Charge       = 0
  Multiplicity = 1
  Basis Set: 6-31G*
  Basis Set:

    Orbital Energies (a.u.)
    -----------------------

    Doubly Occupied:

       1A    -20.601526     2A    -20.543621     3A    -11.374159
       4A    -11.281854     5A    -11.232984     6A    -11.226867
       7A    -11.224452     8A    -11.216591     9A     -1.467433
      10A     -1.361675    11A     -1.087811    12A     -1.029930
      13A     -0.981178    14A     -0.881718    15A     -0.807783
      16A     -0.775835    17A     -0.692228    18A     -0.686238
      19A     -0.668269    20A     -0.638351    21A     -0.594653
      22A     -0.594481    23A     -0.570370    24A     -0.559817
      25A     -0.545082    26A     -0.519968    27A     -0.506841
      28A     -0.485680    29A     -0.480329    30A     -0.476601
      31A     -0.452214    32A     -0.437346

  @DF-RHF Final Energy:  -383.94536608222472

   => Energetics <=

    Nuclear Repulsion Energy =            378.4638090801673798
    One-Electron Energy =               -1272.8107638272631448
    Two-Electron Energy =                 510.4015886648712694
    DFT Exchange-Correlation Energy =       0.0000000000000000
    Empirical Dispersion Energy =           0.0000000000000000
    PCM Polarization Energy =               0.0000000000000000
    EFP Energy =                            0.0000000000000000
    Total Energy =                       -383.9453660822244956

  Mulliken Charges: (a.u.)
   Center  Symbol    Alpha    Beta     Spin     Total
       1     O     4.28325  4.28325  0.00000 -0.56650
       2     C     2.61989  2.61989  0.00000  0.76022
       3     C     3.28152  3.28152  0.00000 -0.56305
       4     O     4.31116  4.31116  0.00000 -0.62232
       5     H     0.40048  0.40048  0.00000  0.19903
       6     H     0.39700  0.39700  0.00000  0.20600
       7     H     0.40061  0.40061  0.00000  0.19877
       8     C     2.99447  2.99447  0.00000  0.01107
       9     C     3.16392  3.16392  0.00000 -0.32785
      10     H     0.41130  0.41130  0.00000  0.17741
      11     H     0.41168  0.41168  0.00000  0.17664
      12     C     3.15948  3.15948  0.00000 -0.31896
      13     H     0.41565  0.41565  0.00000  0.16870
      14     H     0.41477  0.41477  0.00000  0.17046
      15     C     3.23959  3.23959  0.00000 -0.47919
      16     H     0.41990  0.41990  0.00000  0.16020
      17     H     0.41926  0.41926  0.00000  0.16147
      18     H     0.41669  0.41669  0.00000  0.16662
      19     H     0.41960  0.41960  0.00000  0.16079
      20     H     0.41976  0.41976  0.00000  0.16048

   Total alpha = 32.00000, Total beta = 32.00000, Total charge =  0.00000
