  ==> Input File <==

--------------------------------------------------------------------------
set {
	reference rhf
	basis cc-pvtz
}

set_num_threads( 4 )
memory 2 gb

molecule MOL {
0 1

O	 3.219313	 0.959291	 -0.614106
C	 2.698710	 0.058177	 -0.050237
C	 1.246364	 -0.005813	 0.348416
O	 3.344101	 -1.038700	 0.312317
C	 0.453207	 1.232821	 -0.049003
H	 0.839270	 -0.907818	 -0.092281
H	 1.216683	 -0.160521	 1.422434
C	 -0.998367	 1.217982	 0.432195
H	 0.481498	 1.345443	 -1.127236
H	 0.951413	 2.105557	 0.354893
C	 -1.882951	 0.151251	 -0.211235
H	 -1.429490	 2.193659	 0.228843
H	 -1.019755	 1.099323	 1.513279
C	 -3.342450	 0.243269	 0.226009
H	 -1.826223	 0.246578	 -1.293162
H	 -1.508033	 -0.839650	 0.027695
C	 -4.234517	 -0.821434	 -0.405970
H	 -3.730149	 1.228245	 -0.022691
H	 -3.398860	 0.159952	 1.308941
C	 -4.866874	 -1.758724	 0.617451
H	 -5.017967	 -0.336884	 -0.982283
H	 -3.651764	 -1.403581	 -1.114744
H	 -5.492804	 -2.501475	 0.136290
H	 -5.485347	 -1.210564	 1.320388
H	 -4.108322	 -2.284879	 1.187510
C	 4.720529	 -1.114346	 0.001449
H	 4.874321	 -1.055557	 -1.065852
H	 5.057824	 -2.067950	 0.373977
H	 5.264321	 -0.313596	 0.480350

	symmetry c1
}
set optking {
	frozen_dihedral = ("
		21 17 14 11
	")
}

ee = optimize('scf')
oeprop('DIPOLE', 'QUADRUPOLE', 'MULLIKEN_CHARGES')
f=open( 'psi4out.xyz', 'w' )
f.write( "29  " )
f.write( str(ee) + "\n" )
f.write( MOL.save_string_xyz() )
f.close()
--------------------------------------------------------------------------

    Molecular point group: c1
  Charge       = 0
  Multiplicity = 1
  Basis Set: CC-PVTZ
  Basis Set:
  @DF-RHF Final Energy:  -501.21906891055687
    Total Energy =                       -501.2190689105560750
    Molecular point group: c1
  Basis Set: CC-PVTZ
  Basis Set:
  Basis Set: CC-PVTZ
  Basis Set:
  @DF-RHF Final Energy:  -501.21930837330569
    Total Energy =                       -501.2193083733060348
  Basis Set: CC-PVTZ
  Basis Set:
  Basis Set: CC-PVTZ
  Basis Set:
  @DF-RHF Final Energy:  -501.21936491399356
    Total Energy =                       -501.2193649139936724
  Basis Set: CC-PVTZ
  Basis Set:
  Basis Set: CC-PVTZ
  Basis Set:
  @DF-RHF Final Energy:  -501.21915355466103
    Total Energy =                       -501.2191535546605792
  Basis Set: CC-PVTZ
  Basis Set:
  Basis Set: CC-PVTZ
  Basis Set:
  @DF-RHF Final Energy:  -501.21937399865533
    Total Energy =                       -501.2193739986557830
  Basis Set: CC-PVTZ
  Basis Set:
  Charge       = 0
  Multiplicity = 1
  Basis Set: CC-PVTZ
  Basis Set:

    Orbital Energies (a.u.)
    -----------------------

    Doubly Occupied:

       1A    -20.596038     2A    -20.533886     3A    -11.364305
       4A    -11.278284     5A    -11.233023     6A    -11.217124
       7A    -11.215395     8A    -11.214232     9A    -11.213650
      10A    -11.212075    11A    -11.207890    12A     -1.471934
      13A     -1.365521    14A     -1.098755    15A     -1.066305
      16A     -1.020029    17A     -0.978007    18A     -0.928900
      19A     -0.863489    20A     -0.801247    21A     -0.789996
      22A     -0.765869    23A     -0.703015    24A     -0.685539
      25A     -0.676011    26A     -0.646427    27A     -0.626226
      28A     -0.609868    29A     -0.596784    30A     -0.586418
      31A     -0.563719    32A     -0.553358    33A     -0.533599
      34A     -0.530728    35A     -0.518975    36A     -0.506951
      37A     -0.501843    38A     -0.476274    39A     -0.472856
      40A     -0.462869    41A     -0.459233    42A     -0.453797
      43A     -0.443193    44A     -0.436690

  @DF-RHF Final Energy:  -501.21937405329720

   => Energetics <=

    Nuclear Repulsion Energy =            613.4457951851144344
    One-Electron Energy =               -1898.3696851968825285
    Two-Electron Energy =                 783.7045159584697558
    DFT Exchange-Correlation Energy =       0.0000000000000000
    Empirical Dispersion Energy =           0.0000000000000000
    PCM Polarization Energy =               0.0000000000000000
    EFP Energy =                            0.0000000000000000
    Total Energy =                       -501.2193740532982247
    Molecular point group: c1
  Basis Set: CC-PVTZ
  Basis Set:

  -Total Gradient:
     Atom            X                  Y                   Z
    ------   -----------------  -----------------  -----------------
       1        0.000002343694    -0.000000571034     0.000006269474
       2       -0.000005057794    -0.000001243959    -0.000006358803
       3        0.000011929874     0.000003640819     0.000000768717
       4        0.000003520404     0.000002545334     0.000001367980
       5       -0.000001196665    -0.000007439167     0.000002002710
       6        0.000012506214     0.000012216943     0.000001515237
       7       -0.000001023334    -0.000001570391     0.000003608275
       8        0.000012013575    -0.000018074138     0.000035060066
       9       -0.000004711711    -0.000006818868     0.000003659977
      10        0.000008973903     0.000005246527    -0.000005546714
      11       -0.000089732154     0.000180817169    -0.000239058001
      12        0.000011205547    -0.000006562831     0.000001013143
      13        0.000005786783     0.000008908138     0.000007469702
      14        0.000114916126    -0.000254760545     0.000176207987
      15       -0.000007734459     0.000005854221    -0.000008543083
      16       -0.000022914274     0.000006657452    -0.000009222816
      17       -0.000266381646     0.000076950381     0.000328750354
      18        0.000000488434    -0.000006231385    -0.000012074452
      19       -0.000003931042     0.000002675669     0.000004279149
      20       -0.000005220699    -0.000002692492     0.000000266779
      21        0.000215679648    -0.000003521869    -0.000283986252
      22        0.000005139666    -0.000002858739     0.000005040463
      23        0.000000279958    -0.000000796102    -0.000006251831
      24        0.000003389817     0.000000806468    -0.000003319101
      25       -0.000000677783     0.000007729315    -0.000002869414
      26       -0.000000557338    -0.000001367612    -0.000000520007
      27        0.000000213402     0.000000060981     0.000000207443
      28        0.000000904016     0.000000074366     0.000000032533
      29       -0.000000152168     0.000000325346     0.000000230483

  **** Optimization is complete! (in 6 steps) ****
    Final optimized geometry and variables:
    Molecular point group: c1

    Geometry (in Angstrom), charge = 0, multiplicity = 1:

    O            3.144582434435     1.057943027447    -0.667808788261
    C            2.623252582602     0.156405723814    -0.105293567368
    C            1.170731039075     0.092745494452     0.292933878401
    O            3.267911360787    -0.941459028689     0.255571804830
    C            0.378622678235     1.332896831288    -0.101918455268
    H            0.762996020989    -0.807935040074    -0.149920053122
    H            1.140612957335    -0.064406162465     1.366580980106
    C           -1.072998066596     1.318418486797     0.379482246202
    H            0.406849379384     1.447667014873    -1.179915130021
    H            0.877745109567     2.204361505399     0.303605769277
    C           -1.959779926289     0.257154099249    -0.268739027663
    H           -1.502375207543     2.295937731227     0.180933813324
    H           -1.094577269117     1.194813126796     1.460052490785
    C           -3.420917549917     0.350969996611     0.167179930148
    H           -1.903246201745     0.355678596594    -1.350351622015
    H           -1.589163962088    -0.736711650892    -0.033742858124
    C           -4.324821323917    -0.729918580339    -0.460935988422
    H           -3.796896605033     1.337937611451    -0.082642851955
    H           -3.469026313249     0.280646524272     1.250066619143
    C           -4.955754295813    -1.669054776269     0.563073254891
    H           -5.111164735920    -0.260897708486    -1.042164841211
    H           -3.747692945857    -1.318537902993    -1.167165638304
    H           -5.569535974789    -2.422108915479     0.081702853540
    H           -5.584787493266    -1.122939863191     1.258063003986
    H           -4.194922476069    -2.182297804686     1.142430091000
    C            4.644323170925    -1.017492656877    -0.055344922557
    H            4.798201672820    -0.957045268375    -1.122543420053
    H            4.981063447498    -1.971905753982     0.315627764118
    H            5.188593104416    -0.217853683383     0.424875917228

  Mulliken Charges: (a.u.)
   Center  Symbol    Alpha    Beta     Spin     Total
       1     O     4.19697  4.19697  0.00000 -0.39393
       2     C     2.80481  2.80481  0.00000  0.39037
       3     C     3.10167  3.10167  0.00000 -0.20333
       4     O     4.14721  4.14721  0.00000 -0.29442
       5     C     3.09249  3.09249  0.00000 -0.18498
       6     H     0.43917  0.43917  0.00000  0.12166
       7     H     0.43995  0.43995  0.00000  0.12010
       8     C     3.10478  3.10478  0.00000 -0.20956
       9     H     0.44626  0.44626  0.00000  0.10749
      10     H     0.43959  0.43959  0.00000  0.12082
      11     C     3.09328  3.09328  0.00000 -0.18656
      12     H     0.44535  0.44535  0.00000  0.10929
      13     H     0.45331  0.45331  0.00000  0.09338
      14     C     3.09466  3.09466  0.00000 -0.18932
      15     H     0.45180  0.45180  0.00000  0.09639
      16     H     0.45343  0.45343  0.00000  0.09315
      17     C     3.09008  3.09008  0.00000 -0.18015
      18     H     0.44817  0.44817  0.00000  0.10366
      19     H     0.45458  0.45458  0.00000  0.09084
      20     C     3.14697  3.14697  0.00000 -0.29395
      21     H     0.44908  0.44908  0.00000  0.10184
      22     H     0.45449  0.45449  0.00000  0.09102
      23     H     0.44951  0.44951  0.00000  0.10098
      24     H     0.45447  0.45447  0.00000  0.09107
      25     H     0.45596  0.45596  0.00000  0.08809
      26     C     3.03812  3.03812  0.00000 -0.07623
      27     H     0.45435  0.45435  0.00000  0.09130
      28     H     0.44527  0.44527  0.00000  0.10945
      29     H     0.45423  0.45423  0.00000  0.09155

   Total alpha = 44.00000, Total beta = 44.00000, Total charge = -0.00000
