  ==> Input File <==

--------------------------------------------------------------------------
set {
	reference rhf
	basis 6-31G*
}

set_num_threads( 4 )
memory 2 gb

molecule MOL {
0 1

H	 0.701234	 -1.242030	 -0.413750
C	 0.676994	 -0.330249	 -1.023481
C	 0.065331	 0.871482	 -0.349150
O	 1.117075	 -0.338198	 -2.127105
C	 -1.339775	 0.583656	 0.198860
H	 0.054298	 1.692176	 -1.057142
H	 0.722102	 1.147749	 0.474555
C	 -1.808407	 -0.848507	 -0.061364
H	 -2.036183	 1.280685	 -0.256307
H	 -1.360094	 0.788874	 1.267089
H	 -1.828843	 -1.063152	 -1.125336
H	 -2.808409	 -1.004529	 0.329750
H	 -1.153967	 -1.577789	 0.406873

	symmetry c1
}
set optking {
	frozen_dihedral = ("
		6 3 5 9
	")
}

ee = optimize('scf')
oeprop('DIPOLE', 'QUADRUPOLE', 'MULLIKEN_CHARGES')
f=open( 'psi4out.xyz', 'w' )
f.write( "13  " )
f.write( str(ee) + "\n" )
f.write( MOL.save_string_xyz() )
f.close()
--------------------------------------------------------------------------

    Molecular point group: c1
  Charge       = 0
  Multiplicity = 1
  Basis Set: 6-31G*
  Basis Set:
  @DF-RHF Final Energy:  -230.97334076285000
    Total Energy =                       -230.9733407628500572
    Molecular point group: c1
  Basis Set: 6-31G*
  Basis Set:
  Basis Set: 6-31G*
  Basis Set:
  @DF-RHF Final Energy:  -230.97363859092107
    Total Energy =                       -230.9736385909210981
  Basis Set: 6-31G*
  Basis Set:
  Basis Set: 6-31G*
  Basis Set:
  @DF-RHF Final Energy:  -230.97585818272071
    Total Energy =                       -230.9758581827207422
  Basis Set: 6-31G*
  Basis Set:
  Basis Set: 6-31G*
  Basis Set:
  @DF-RHF Final Energy:  -230.97614859405925
    Total Energy =                       -230.9761485940592252
  Basis Set: 6-31G*
  Basis Set:
  @DF-RHF Final Energy:  -230.97630225644315
    Total Energy =                       -230.9763022564429775
  @DF-RHF Final Energy:  -230.97635087715099
    Total Energy =                       -230.9763508771509919
  @DF-RHF Final Energy:  -230.97637019947422
    Total Energy =                       -230.9763701994744451
  Basis Set: 6-31G*
  Basis Set:
  @DF-RHF Final Energy:  -230.97637852925482
    Total Energy =                       -230.9763785292549585
  Basis Set: 6-31G*
  Basis Set:
  Basis Set: 6-31G*
  Basis Set:
  @DF-RHF Final Energy:  -230.97638255183318
    Total Energy =                       -230.9763825518331544
  Basis Set: 6-31G*
  Basis Set:
  Basis Set: 6-31G*
  Basis Set:
  @DF-RHF Final Energy:  -230.97638389798414
    Total Energy =                       -230.9763838979839932
  Basis Set: 6-31G*
  Basis Set:
  Charge       = 0
  Multiplicity = 1
  Basis Set: 6-31G*
  Basis Set:

    Orbital Energies (a.u.)
    -----------------------

    Doubly Occupied:

       1A    -20.561906     2A    -11.326222     3A    -11.238988
       4A    -11.235191     5A    -11.224519     6A     -1.401767
       7A     -1.080729     8A     -0.973528     9A     -0.857745
      10A     -0.777130    11A     -0.673822    12A     -0.634916
      13A     -0.628032    14A     -0.601938    15A     -0.557884
      16A     -0.528275    17A     -0.517190    18A     -0.486626
      19A     -0.477135    20A     -0.409004

  @DF-RHF Final Energy:  -230.97638394252127

   => Energetics <=

    Nuclear Repulsion Energy =            173.9872620956312801
    One-Electron Energy =                -657.5421985374284759
    Two-Electron Energy =                 252.5785524992758724
    DFT Exchange-Correlation Energy =       0.0000000000000000
    Empirical Dispersion Energy =           0.0000000000000000
    PCM Polarization Energy =               0.0000000000000000
    EFP Energy =                            0.0000000000000000
    Total Energy =                       -230.9763839425212950
    Molecular point group: c1
  Basis Set: 6-31G*
  Basis Set:

  -Total Gradient:
     Atom            X                  Y                   Z
    ------   -----------------  -----------------  -----------------
       1        0.000001612572    -0.000000010452     0.000000296334
       2        0.000002641603     0.000002023193    -0.000012776961
       3        0.000015998096     0.000113971291     0.000152218594
       4        0.000000948603    -0.000003613272     0.000003738115
       5       -0.000020485205    -0.000114982494    -0.000139149011
       6       -0.000018461949    -0.000084512361    -0.000099365863
       7        0.000001373841     0.000004313004     0.000001986960
       8       -0.000003243450    -0.000001586931    -0.000007052652
       9        0.000018694048     0.000080883513     0.000098584279
      10       -0.000000962123     0.000003095286     0.000000184289
      11       -0.000000581627    -0.000000949776    -0.000000651794
      12        0.000001737792     0.000000580986     0.000000499404
      13        0.000000727795     0.000000788012     0.000001488310

  **** Optimization is complete! (in 11 steps) ****
    Final optimized geometry and variables:
    Molecular point group: c1

    Geometry (in Angstrom), charge = 0, multiplicity = 1:

    H            1.244388012118    -1.154917450792     0.270298750810
    C            1.025389068872    -0.279291136694    -0.348761256206
    C            0.354623442786     0.875760637999     0.354430778034
    O            1.333207518541    -0.272689837724    -1.497033977215
    C           -1.076791181153     0.582481364204     0.893158470285
    H            0.338384196603     1.702505027741    -0.344173696083
    H            1.003581935556     1.159126299220     1.179914880927
    C           -1.613110131832    -0.832730083862     0.653038115518
    H           -1.759272451101     1.287752978933     0.432543423496
    H           -1.106167506223     0.789253015869     1.957411699748
    H           -1.611607770388    -1.088942008159    -0.402035528773
    H           -2.636268358537    -0.904544146724     1.006252260586
    H           -1.035387310041    -1.584839639084     1.180999914879

  Mulliken Charges: (a.u.)
   Center  Symbol    Alpha    Beta     Spin     Total
       1     H     0.43001  0.43001  0.00000  0.13998
       2     C     2.83505  2.83505  0.00000  0.32991
       3     C     3.21240  3.21240  0.00000 -0.42479
       4     O     4.23667  4.23667  0.00000 -0.47334
       5     C     3.15858  3.15858  0.00000 -0.31716
       6     H     0.39726  0.39726  0.00000  0.20548
       7     H     0.40918  0.40918  0.00000  0.18165
       8     C     3.25326  3.25326  0.00000 -0.50652
       9     H     0.41011  0.41011  0.00000  0.17978
      10     H     0.41438  0.41438  0.00000  0.17123
      11     H     0.41150  0.41150  0.00000  0.17700
      12     H     0.41251  0.41251  0.00000  0.17497
      13     H     0.41910  0.41910  0.00000  0.16180

   Total alpha = 20.00000, Total beta = 20.00000, Total charge =  0.00000
