  ==> Input File <==

--------------------------------------------------------------------------
set {
	reference rhf
	basis 6-31G*
}

set_num_threads( 4 )
memory 2 gb

molecule MOL {
0 1

H	 2.845955	 -0.323208	 0.022310
C	 1.900140	 0.071967	 -0.330070
C	 0.778463	 -0.508087	 0.517968
H	 1.782469	 -0.206877	 -1.370777
H	 1.922247	 1.149867	 -0.254252
N	 -0.540928	 0.005139	 0.058438
H	 0.716718	 -1.581298	 0.454712
H	 0.859711	 -0.198647	 1.550086
O	 -1.276183	 0.455250	 0.880674
O	 -0.771533	 -0.069283	 -1.110229

	symmetry c1
}
set optking {
	frozen_dihedral = ("
		9 6 3 2
	")
}

ee = optimize('scf')
oeprop('DIPOLE', 'QUADRUPOLE', 'MULLIKEN_CHARGES')
f=open( 'psi4out.xyz', 'w' )
f.write( "10  " )
f.write( str(ee) + "\n" )
f.write( MOL.save_string_xyz() )
f.close()
--------------------------------------------------------------------------

    Molecular point group: c1
  Charge       = 0
  Multiplicity = 1
  Basis Set: 6-31G*
  Basis Set:
  @DF-RHF Final Energy:  -282.70021328392932
    Total Energy =                       -282.7002132839293722
    Molecular point group: c1
  Basis Set: 6-31G*
  Basis Set:
  Basis Set: 6-31G*
  Basis Set:
  @DF-RHF Final Energy:  -282.69606304246838
    Total Energy =                       -282.6960630424683814
  Basis Set: 6-31G*
  Basis Set:
  Basis Set: 6-31G*
  Basis Set:
  @DF-RHF Final Energy:  -282.70016983882630
    Total Energy =                       -282.7001698388264685
  Basis Set: 6-31G*
  Basis Set:
  Basis Set: 6-31G*
  Basis Set:
  @DF-RHF Final Energy:  -282.70049764925488
    Total Energy =                       -282.7004976492549986
  Basis Set: 6-31G*
  Basis Set:
  Basis Set: 6-31G*
  Basis Set:
  @DF-RHF Final Energy:  -282.70049907958639
    Total Energy =                       -282.7004990795862795
  Basis Set: 6-31G*
  Basis Set:
  Charge       = 0
  Multiplicity = 1
  Basis Set: 6-31G*
  Basis Set:

    Orbital Energies (a.u.)
    -----------------------

    Doubly Occupied:

       1A    -20.604449     2A    -20.600915     3A    -15.849226
       4A    -11.304260     5A    -11.250019     6A     -1.632837
       7A     -1.418314     8A     -1.126696     9A     -0.967415
      10A     -0.836203    11A     -0.761606    12A     -0.739947
      13A     -0.726250    14A     -0.651997    15A     -0.591008
      16A     -0.563360    17A     -0.543186    18A     -0.486226
      19A     -0.478190    20A     -0.450483

  @DF-RHF Final Energy:  -282.70049968152682

   => Energetics <=

    Nuclear Repulsion Energy =            186.1368286135385404
    One-Electron Energy =                -754.5094855539334731
    Two-Electron Energy =                 285.6721572588680829
    DFT Exchange-Correlation Energy =       0.0000000000000000
    Empirical Dispersion Energy =           0.0000000000000000
    PCM Polarization Energy =               0.0000000000000000
    EFP Energy =                            0.0000000000000000
    Total Energy =                       -282.7004996815268214
    Molecular point group: c1
  Basis Set: 6-31G*
  Basis Set:

  -Total Gradient:
     Atom            X                  Y                   Z
    ------   -----------------  -----------------  -----------------
       1        0.000002269357    -0.000003768912     0.000000453625
       2       -0.000020972344    -0.000045245817    -0.000045646835
       3       -0.000003781341     0.000045883297     0.000070747981
       4        0.000003559778     0.000006297639    -0.000007594306
       5       -0.000002933468    -0.000012309548    -0.000000233903
       6        0.000031490238     0.000084744028    -0.000035755974
       7       -0.000006423829     0.000009751421    -0.000005366301
       8       -0.000002248631     0.000001854230     0.000013211615
       9       -0.000016647369    -0.000082081458     0.000020031892
      10        0.000015687607    -0.000005124881    -0.000009847788

  **** Optimization is complete! (in 6 steps) ****
    Final optimized geometry and variables:
    Molecular point group: c1

    Geometry (in Angstrom), charge = 0, multiplicity = 1:

    H            2.852749322452    -0.312104934208     0.038939519499
    C            1.909784210510     0.073771188807    -0.331131928627
    C            0.783390293304    -0.492709807152     0.517341611784
    H            1.796910001857    -0.213744170214    -1.366519270148
    H            1.937782614449     1.155309733115    -0.267585232780
    N           -0.541078525072     0.012322198148     0.060119807577
    H            0.717950025744    -1.568234192301     0.425776384014
    H            0.857871877300    -0.219071226294     1.556197341249
    O           -1.270446817807     0.466442721277     0.885441904520
    O           -0.790737867707    -0.089971832040    -1.102149147268

  Mulliken Charges: (a.u.)
   Center  Symbol    Alpha    Beta     Spin     Total
       1     H     0.40684  0.40684  0.00000  0.18632
       2     C     3.25600  3.25600  0.00000 -0.51201
       3     C     3.09410  3.09410  0.00000 -0.18821
       4     H     0.39247  0.39247  0.00000  0.21505
       5     H     0.40362  0.40362  0.00000  0.19276
       6     N     3.21838  3.21838  0.00000  0.56324
       7     H     0.38633  0.38633  0.00000  0.22734
       8     H     0.38497  0.38497  0.00000  0.23005
       9     O     4.22740  4.22740  0.00000 -0.45479
      10     O     4.22988  4.22988  0.00000 -0.45976

   Total alpha = 20.00000, Total beta = 20.00000, Total charge =  0.00000
