  ==> Input File <==

--------------------------------------------------------------------------
set {
	reference rhf
	basis 6-31G*
}

set_num_threads( 4 )
memory 2 gb

molecule MOL {
0 1

H	 -1.836216	 1.387520	 -0.000064
C	 -1.301823	 0.443321	 -0.000031
O	 -0.003969	 0.658512	 0.000451
O	 -1.829879	 -0.616434	 -0.000857
C	 0.850537	 -0.484732	 0.000380
C	 0.253047	 -1.498039	 -0.951741
H	 0.916521	 -0.870653	 1.008363
H	 1.841442	 -0.179844	 -0.306939
H	 -0.742195	 -1.785714	 -0.632727
H	 0.874815	 -2.386733	 -0.981062
H	 0.187132	 -1.091706	 -1.954456

	symmetry c1
}
set optking {
	frozen_dihedral = ("
		7 5 3 2
	")
}

ee = optimize('scf')
oeprop('DIPOLE', 'QUADRUPOLE', 'MULLIKEN_CHARGES')
f=open( 'psi4out.xyz', 'w' )
f.write( "11  " )
f.write( str(ee) + "\n" )
f.write( MOL.save_string_xyz() )
f.close()
--------------------------------------------------------------------------

    Molecular point group: c1
  Charge       = 0
  Multiplicity = 1
  Basis Set: 6-31G*
  Basis Set:
  @DF-RHF Final Energy:  -266.79819183450502
    Total Energy =                       -266.7981918345049621
    Molecular point group: c1
  Basis Set: 6-31G*
  Basis Set:
  Basis Set: 6-31G*
  Basis Set:
  @DF-RHF Final Energy:  -266.81806689273174
    Total Energy =                       -266.8180668927317356
  Basis Set: 6-31G*
  Basis Set:
  Basis Set: 6-31G*
  Basis Set:
  @DF-RHF Final Energy:  -266.81753796870976
    Total Energy =                       -266.8175379687097575
  Basis Set: 6-31G*
  Basis Set:
  Basis Set: 6-31G*
  Basis Set:
  @DF-RHF Final Energy:  -266.81693662920196
    Total Energy =                       -266.8169366292019049
  Basis Set: 6-31G*
  Basis Set:
  @DF-RHF Final Energy:  -266.82309024294494
    Total Energy =                       -266.8230902429449998
  Basis Set: 6-31G*
  Basis Set:
  @DF-RHF Final Energy:  -266.82336242512474
    Total Energy =                       -266.8233624251247420
  Basis Set: 6-31G*
  Basis Set:
  Basis Set: 6-31G*
  Basis Set:
  @DF-RHF Final Energy:  -266.82341297199218
    Total Energy =                       -266.8234129719921839
  Basis Set: 6-31G*
  Basis Set:
  Basis Set: 6-31G*
  Basis Set:
  @DF-RHF Final Energy:  -266.82342244133656
    Total Energy =                       -266.8234224413364473
  Basis Set: 6-31G*
  Basis Set:
  Charge       = 0
  Multiplicity = 1
  Basis Set: 6-31G*
  Basis Set:

    Orbital Energies (a.u.)
    -----------------------

    Doubly Occupied:

       1A    -20.611579     2A    -20.555671     3A    -11.378851
       4A    -11.295230     5A    -11.221487     6A     -1.472484
       7A     -1.373869     8A     -1.048586     9A     -0.917068
      10A     -0.795835    11A     -0.732368    12A     -0.683317
      13A     -0.660018    14A     -0.622269    15A     -0.576027
      16A     -0.544622    17A     -0.529489    18A     -0.502805
      19A     -0.457246    20A     -0.447668

  @DF-RHF Final Energy:  -266.82342274476628

   => Energetics <=

    Nuclear Repulsion Energy =            182.6928491722870831
    One-Electron Energy =                -726.1795651511386041
    Two-Electron Energy =                 276.6632932340851312
    DFT Exchange-Correlation Energy =       0.0000000000000000
    Empirical Dispersion Energy =           0.0000000000000000
    PCM Polarization Energy =               0.0000000000000000
    EFP Energy =                            0.0000000000000000
    Total Energy =                       -266.8234227447663898
    Molecular point group: c1
  Basis Set: 6-31G*
  Basis Set:

  -Total Gradient:
     Atom            X                  Y                   Z
    ------   -----------------  -----------------  -----------------
       1       -0.000020390513     0.000003608793    -0.000003840656
       2       -0.000249826616    -0.000025971812    -0.005423544019
       3        0.001446633349     0.000858991556     0.008223076940
       4        0.000013710500     0.000012984328    -0.000008582962
       5       -0.006137539562    -0.004078394899    -0.003589115033
       6        0.000015991229     0.000014296503     0.000018318421
       7        0.004893475644     0.003253135439     0.000797795697
       8        0.000022029820    -0.000056928998    -0.000016567098
       9        0.000018216802     0.000014638854     0.000005723350
      10        0.000001078272    -0.000000768582    -0.000000633312
      11       -0.000003378926     0.000004408815    -0.000002631328

  **** Optimization is complete! (in 9 steps) ****
    Final optimized geometry and variables:
    Molecular point group: c1

    Geometry (in Angstrom), charge = 0, multiplicity = 1:

    H           -1.301046891375     1.848408523640     0.105111144390
    C           -0.889441208631     0.849989751453     0.212533092988
    O            0.422973849213     0.909473145198     0.157731458083
    O           -1.552953015839    -0.116883178098     0.376283772107
    C            1.225894803486    -0.274783974515     0.132152673378
    C            0.802794105584    -1.337439752800    -0.866906717302
    H            1.311660152368    -0.650574906247     1.143753999360
    H            2.200069775651     0.106169283200    -0.139779317187
    H           -0.108018574164    -1.837508189978    -0.578551356653
    H            1.599718363936    -2.071497506571    -0.937992896815
    H            0.666379356208    -0.898185782801    -1.849755403688

  Mulliken Charges: (a.u.)
   Center  Symbol    Alpha    Beta     Spin     Total
       1     H     0.41234  0.41234  0.00000  0.17532
       2     C     2.72492  2.72492  0.00000  0.55016
       3     O     4.29671  4.29671  0.00000 -0.59343
       4     O     4.26379  4.26379  0.00000 -0.52758
       5     C     2.99936  2.99936  0.00000  0.00128
       6     C     3.26413  3.26413  0.00000 -0.52826
       7     H     0.41005  0.41005  0.00000  0.17991
       8     H     0.40809  0.40809  0.00000  0.18383
       9     H     0.38990  0.38990  0.00000  0.22020
      10     H     0.41665  0.41665  0.00000  0.16669
      11     H     0.41405  0.41405  0.00000  0.17189

   Total alpha = 20.00000, Total beta = 20.00000, Total charge =  0.00000
