  ==> Input File <==

--------------------------------------------------------------------------
set {
	reference rhf
	basis 6-31G*
}

set_num_threads( 4 )
memory 2 gb

molecule MOL {
0 1

H	 1.367966	 0.069849	 1.630278
C	 0.778805	 -0.484033	 0.928144
C	 0.773667	 -1.867295	 0.922020
C	 0.000000	 0.183220	 0.000000
H	 1.371642	 -2.404452	 1.634659
C	 0.000000	 -2.555744	 0.000000
N	 0.000000	 1.642018	 0.000000
C	 -0.778805	 -0.484034	 -0.928144
H	 0.000000	 -3.630640	 0.000000
C	 -0.773667	 -1.867295	 -0.922020
O	 1.057097	 2.196749	 0.000000
O	 -1.057097	 2.196749	 0.000000
H	 -1.367966	 0.069849	 -1.630278
H	 -1.371642	 -2.404452	 -1.634659

	symmetry c1
}
set optking {
	frozen_dihedral = ("
		2 4 7 11
	")
}

ee = optimize('scf')
oeprop('DIPOLE', 'QUADRUPOLE', 'MULLIKEN_CHARGES')
f=open( 'psi4out.xyz', 'w' )
f.write( "14  " )
f.write( str(ee) + "\n" )
f.write( MOL.save_string_xyz() )
f.close()
--------------------------------------------------------------------------

    Molecular point group: c1
  Charge       = 0
  Multiplicity = 1
  Basis Set: 6-31G*
  Basis Set:
  @DF-RHF Final Energy:  -434.16847401214500
    Total Energy =                       -434.1684740121449977
    Molecular point group: c1
  Basis Set: 6-31G*
  Basis Set:
  Basis Set: 6-31G*
  Basis Set:
  @DF-RHF Final Energy:  -434.16288189823962
    Total Energy =                       -434.1628818982392204
  Basis Set: 6-31G*
  Basis Set:
  Basis Set: 6-31G*
  Basis Set:
  @DF-RHF Final Energy:  -434.16885928424176
    Total Energy =                       -434.1688592842415346
  Basis Set: 6-31G*
  Basis Set:
  Basis Set: 6-31G*
  Basis Set:
  @DF-RHF Final Energy:  -434.16904309391799
    Total Energy =                       -434.1690430939179350
  Basis Set: 6-31G*
  Basis Set:
  Basis Set: 6-31G*
  Basis Set:
  @DF-RHF Final Energy:  -434.16904492258129
    Total Energy =                       -434.1690449225810653
  Basis Set: 6-31G*
  Basis Set:
  Charge       = 0
  Multiplicity = 1
  Basis Set: 6-31G*
  Basis Set:

    Orbital Energies (a.u.)
    -----------------------

    Doubly Occupied:

       1A    -20.604384     2A    -20.604309     3A    -15.855308
       4A    -11.306588     5A    -11.271622     6A    -11.271241
       7A    -11.265428     8A    -11.262567     9A    -11.262294
      10A     -1.635952    11A     -1.419792    12A     -1.202813
      13A     -1.095225    14A     -1.053869    15A     -0.957744
      16A     -0.869332    17A     -0.826258    18A     -0.781782
      19A     -0.733397    20A     -0.729603    21A     -0.713368
      22A     -0.650397    23A     -0.649442    24A     -0.624320
      25A     -0.557138    26A     -0.542477    27A     -0.531439
      28A     -0.491823    29A     -0.486299    30A     -0.450890
      31A     -0.370402    32A     -0.366426

  @DF-RHF Final Energy:  -434.16904552909392

   => Energetics <=

    Nuclear Repulsion Energy =            416.8386011330703127
    One-Electron Energy =               -1417.1274346292113933
    Two-Electron Energy =                 566.1197879670470456
    DFT Exchange-Correlation Energy =       0.0000000000000000
    Empirical Dispersion Energy =           0.0000000000000000
    PCM Polarization Energy =               0.0000000000000000
    EFP Energy =                            0.0000000000000000
    Total Energy =                       -434.1690455290939781
    Molecular point group: c1
  Basis Set: 6-31G*
  Basis Set:

  -Total Gradient:
     Atom            X                  Y                   Z
    ------   -----------------  -----------------  -----------------
       1        0.000005585667     0.000008770334     0.000009136115
       2       -0.004239560121    -0.000178731250     0.003332254271
       3       -0.000030702721     0.000028964342     0.000031090179
       4        0.006125465236     0.000263199260    -0.007209057100
       5        0.000004285853    -0.000000434682    -0.000005912573
       6       -0.000012534942    -0.000002320737    -0.000027834962
       7       -0.002132641173    -0.000283405801     0.010164599762
       8        0.000067509860     0.000035062010     0.000020284735
       9       -0.000000119153    -0.000001458138     0.000003616904
      10        0.000048658554    -0.000017951658    -0.000002892697
      11        0.000187436005     0.000135753719    -0.006294361288
      12       -0.000012320752    -0.000001838473    -0.000009706217
      13       -0.000007457409     0.000007778648    -0.000014541793
      14       -0.000003604905     0.000006612425     0.000003324664

  **** Optimization is complete! (in 6 steps) ****
    Final optimized geometry and variables:
    Molecular point group: c1

    Geometry (in Angstrom), charge = 0, multiplicity = 1:

    H            1.394261160280     0.074707744228     1.612542939615
    C            0.793266211160    -0.480197063241     0.918235853476
    C            0.770670371881    -1.864179434852     0.925048217431
    C            0.027143755362     0.182633974389    -0.018914873610
    H            1.354695459964    -2.402480223054     1.648306864702
    C           -0.002199987302    -2.550585837645     0.001119992883
    N           -0.002620056874     1.639197590734     0.012177862102
    C           -0.780153626088    -0.476268574786    -0.924085733742
    H           -0.009840405499    -3.625333228673     0.005138920275
    C           -0.771468786887    -1.860133491743    -0.923415863102
    O            1.046618837485     2.206653920179     0.054598420426
    O           -1.070707659549     2.167493398464    -0.050284198396
    H           -1.390733693795     0.080720821043    -1.607817630534
    H           -1.373295332395    -2.396067143272    -1.633746454935

  Mulliken Charges: (a.u.)
   Center  Symbol    Alpha    Beta     Spin     Total
       1     H     0.37205  0.37205  0.00000  0.25590
       2     C     3.08698  3.08698  0.00000 -0.17397
       3     C     3.10597  3.10597  0.00000 -0.21194
       4     C     2.90560  2.90560  0.00000  0.18881
       5     H     0.38848  0.38848  0.00000  0.22304
       6     C     3.08979  3.08979  0.00000 -0.17957
       7     N     3.25625  3.25625  0.00000  0.48750
       8     C     3.08539  3.08539  0.00000 -0.17077
       9     H     0.38955  0.38955  0.00000  0.22091
      10     C     3.10655  3.10655  0.00000 -0.21311
      11     O     4.22578  4.22578  0.00000 -0.45156
      12     O     4.22732  4.22732  0.00000 -0.45465
      13     H     0.37186  0.37186  0.00000  0.25629
      14     H     0.38844  0.38844  0.00000  0.22311

   Total alpha = 32.00000, Total beta = 32.00000, Total charge = -0.00000
