  ==> Input File <==

--------------------------------------------------------------------------
set {
	reference rhf
	basis 6-31G*
}

set_num_threads( 1 )
memory 2 gb

molecule MOL {
0 1

O	 -0.982046	 2.266015	 1.535226
C	 -0.989038	 1.949324	 0.384534
C	 0.243653	 1.343931	 -0.263755
C	 -2.225025	 2.102418	 -0.473530
C	 0.379448	 -0.143569	 0.099626
H	 1.108178	 1.886417	 0.103136
H	 0.204166	 1.460410	 -1.343060
C	 1.631333	 -0.777471	 -0.511575
H	 0.397911	 -0.227290	 1.180383
H	 -0.500379	 -0.686181	 -0.242753
C	 2.915987	 -0.544314	 0.291766
H	 1.766672	 -0.399098	 -1.523130
H	 1.471257	 -1.849544	 -0.605828
C	 3.373361	 0.914346	 0.347591
H	 3.708709	 -1.142521	 -0.150311
H	 2.780642	 -0.921148	 1.303579
H	 3.506512	 1.320010	 -0.651625
H	 4.322697	 0.999599	 0.867103
H	 2.660624	 1.545032	 0.868198
H	 -2.043035	 2.843718	 -1.247235
H	 -3.061590	 2.416605	 0.134934
H	 -2.463203	 1.168641	 -0.974664

	symmetry c1
}
set optking {
	frozen_dihedral = ("
		6 3 2 1,
		6 3 5 8,
		12 8 11 15
	")
}

ee = energy('scf')
oeprop('DIPOLE', 'QUADRUPOLE', 'MULLIKEN_CHARGES')
f=open( 'psi4out.xyz', 'w' )
f.write( "22  " )
f.write( str(ee) + "\n" )
f.write( MOL.save_string_xyz() )
f.close()
--------------------------------------------------------------------------

    Molecular point group: c1

    Geometry (in Angstrom), charge = 0, multiplicity = 1:

       Center              X                  Y                   Z               Mass
    ------------   -----------------  -----------------  -----------------  -----------------
           O         -1.527305078332     1.364549914510     1.353352584750    15.994914619560
           C         -1.534297078332     1.047858914510     0.202660584750    12.000000000000
           C         -0.301606078332     0.442465914510    -0.445628415250    12.000000000000
           C         -2.770284078332     1.200952914510    -0.655403415250    12.000000000000
           C         -0.165811078332    -1.045034085490    -0.082247415250    12.000000000000
           H          0.562918921668     0.984951914510    -0.078737415250     1.007825032070
           H         -0.341093078332     0.558944914510    -1.524933415250     1.007825032070
           C          1.086073921668    -1.678936085490    -0.693448415250    12.000000000000
           H         -0.147348078332    -1.128755085490     0.998509584750     1.007825032070
           H         -1.045638078332    -1.587646085490    -0.424626415250     1.007825032070
           C          2.370727921668    -1.445779085490     0.109892584750    12.000000000000
           H          1.221412921668    -1.300563085490    -1.705003415250     1.007825032070
           H          0.925997921668    -2.751009085490    -0.787701415250     1.007825032070
           C          2.828101921668     0.012880914510     0.165717584750    12.000000000000
           H          3.163449921668    -2.043986085490    -0.332184415250     1.007825032070
           H          2.235382921668    -1.822613085490     1.121705584750     1.007825032070
           H          2.961252921668     0.418544914510    -0.833498415250     1.007825032070
           H          3.777437921668     0.098133914510     0.685229584750     1.007825032070
           H          2.115364921668     0.643566914510     0.686324584750     1.007825032070
           H         -2.588294078332     1.942252914510    -1.429108415250     1.007825032070
           H         -3.606849078332     1.515139914510    -0.046939415250     1.007825032070
           H         -3.008462078332     0.267175914510    -1.156537415250     1.007825032070

  Charge       = 0
  Multiplicity = 1
  Basis Set: 6-31G*
  Basis Set:

    Orbital Energies (a.u.)
    -----------------------

    Doubly Occupied:

       1A    -20.546530     2A    -11.323284     3A    -11.229078
       4A    -11.227388     5A    -11.225850     6A    -11.221842
       7A    -11.220034     8A    -11.211225     9A     -1.392383
      10A     -1.097764    11A     -1.040431    12A     -0.997655
      13A     -0.944539    14A     -0.854604    15A     -0.786048
      16A     -0.734034    17A     -0.662062    18A     -0.650766
      19A     -0.626538    20A     -0.609256    21A     -0.597847
      22A     -0.585772    23A     -0.556579    24A     -0.548485
      25A     -0.532798    26A     -0.527246    27A     -0.499379
      28A     -0.486266    29A     -0.470351    30A     -0.464086
      31A     -0.451169    32A     -0.394364

  @DF-RHF Final Energy:  -348.08980087483417

   => Energetics <=

    Nuclear Repulsion Energy =            382.4743160339785391
    One-Electron Energy =               -1229.6970083240610165
    Two-Electron Energy =                 499.1328914152484231
    DFT Exchange-Correlation Energy =       0.0000000000000000
    Empirical Dispersion Energy =           0.0000000000000000
    PCM Polarization Energy =               0.0000000000000000
    EFP Energy =                            0.0000000000000000
    Total Energy =                       -348.0898008748340544

  Mulliken Charges: (a.u.)
   Center  Symbol    Alpha    Beta     Spin     Total
       1     O     4.26345  4.26345  0.00000 -0.52690
       2     C     2.73617  2.73617  0.00000  0.52766
       3     C     3.20356  3.20356  0.00000 -0.40712
       4     C     3.28943  3.28943  0.00000 -0.57886
       5     C     3.16498  3.16498  0.00000 -0.32997
       6     H     0.39842  0.39842  0.00000  0.20317
       7     H     0.41721  0.41721  0.00000  0.16559
       8     C     3.15621  3.15621  0.00000 -0.31241
       9     H     0.40539  0.40539  0.00000  0.18922
      10     H     0.41827  0.41827  0.00000  0.16346
      11     C     3.15138  3.15138  0.00000 -0.30277
      12     H     0.42308  0.42308  0.00000  0.15384
      13     H     0.41734  0.41734  0.00000  0.16532
      14     C     3.24715  3.24715  0.00000 -0.49429
      15     H     0.41983  0.41983  0.00000  0.16034
      16     H     0.41995  0.41995  0.00000  0.16010
      17     H     0.42271  0.42271  0.00000  0.15458
      18     H     0.41661  0.41661  0.00000  0.16678
      19     H     0.41448  0.41448  0.00000  0.17105
      20     H     0.40711  0.40711  0.00000  0.18578
      21     H     0.39740  0.39740  0.00000  0.20520
      22     H     0.40988  0.40988  0.00000  0.18024

   Total alpha = 32.00000, Total beta = 32.00000, Total charge =  0.00000
