  ==> Input File <==

--------------------------------------------------------------------------
set {
	reference rhf
	basis 6-31G*
}

set_num_threads( 4 )
memory 2 gb

molecule MOL {
0 1

O	 0.074228	 1.262779	 -0.000085
C	 0.028650	 0.075053	 -0.000277
C	 -1.233602	 -0.752807	 0.000328
O	 1.109162	 -0.694619	 -0.000298
C	 -2.501530	 0.091881	 0.000126
H	 -1.193807	 -1.406641	 -0.865785
H	 -1.193516	 -1.405779	 0.867015
H	 -2.545121	 0.729328	 -0.874513
H	 -3.377167	 -0.548497	 0.000561
H	 -2.544818	 0.730135	 0.874258
C	 1.759378	 -0.889372	 -1.243230
H	 1.091808	 -1.358333	 -1.951636
H	 2.600176	 -1.533601	 -1.038560
H	 2.099388	 0.053827	 -1.646021

	symmetry c1
}
set optking {
	frozen_dihedral = ("
		11 4 2 3
	")
}

ee = optimize('scf')
oeprop('DIPOLE', 'QUADRUPOLE', 'MULLIKEN_CHARGES')
f=open( 'psi4out.xyz', 'w' )
f.write( "14  " )
f.write( str(ee) + "\n" )
f.write( MOL.save_string_xyz() )
f.close()
--------------------------------------------------------------------------

    Molecular point group: c1
  Charge       = 0
  Multiplicity = 1
  Basis Set: 6-31G*
  Basis Set:
  @DF-RHF Final Energy:  -305.85216320315413
    Total Energy =                       -305.8521632031540776
    Molecular point group: c1
  Basis Set: 6-31G*
  Basis Set:
  Basis Set: 6-31G*
  Basis Set:
  @DF-RHF Final Energy:  -305.85284738307212
    Total Energy =                       -305.8528473830721168
  Basis Set: 6-31G*
  Basis Set:
  Basis Set: 6-31G*
  Basis Set:
  @DF-RHF Final Energy:  -305.85212779167966
    Total Energy =                       -305.8521277916795498
  Basis Set: 6-31G*
  Basis Set:
  Basis Set: 6-31G*
  Basis Set:
  @DF-RHF Final Energy:  -305.85315873087666
    Total Energy =                       -305.8531587308766007
  Basis Set: 6-31G*
  Basis Set:
  Basis Set: 6-31G*
  Basis Set:
  @DF-RHF Final Energy:  -305.85317164634415
    Total Energy =                       -305.8531716463442081
  Basis Set: 6-31G*
  Basis Set:
  Charge       = 0
  Multiplicity = 1
  Basis Set: 6-31G*
  Basis Set:

    Orbital Energies (a.u.)
    -----------------------

    Doubly Occupied:

       1A    -20.586138     2A    -20.558377     3A    -11.376069
       4A    -11.291354     5A    -11.242943     6A    -11.219514
       7A     -1.460391     8A     -1.367832     9A     -1.063285
      10A     -0.976221    11A     -0.890755    12A     -0.766283
      13A     -0.700481    14A     -0.677772    15A     -0.671708
      16A     -0.620628    17A     -0.616932    18A     -0.556363
      19A     -0.543943    20A     -0.524468    21A     -0.510431
      22A     -0.492605    23A     -0.455935    24A     -0.437628

  @DF-RHF Final Energy:  -305.85317240498614

   => Energetics <=

    Nuclear Repulsion Energy =            246.6670769811378534
    One-Electron Energy =                -905.8243895121022433
    Two-Electron Energy =                 353.3041401259786767
    DFT Exchange-Correlation Energy =       0.0000000000000000
    Empirical Dispersion Energy =           0.0000000000000000
    PCM Polarization Energy =               0.0000000000000000
    EFP Energy =                            0.0000000000000000
    Total Energy =                       -305.8531724049857417
    Molecular point group: c1
  Basis Set: 6-31G*
  Basis Set:

  -Total Gradient:
     Atom            X                  Y                   Z
    ------   -----------------  -----------------  -----------------
       1       -0.000008314469     0.000028241709     0.000007104751
       2       -0.001031074855    -0.001601350836     0.005080969022
       3        0.000050637346     0.000004667216    -0.003791272419
       4        0.003338595021     0.004965040396    -0.000595942543
       5       -0.000009203541    -0.000002282596     0.000012015763
       6        0.000002601876    -0.000013013157     0.000005231780
       7       -0.000007256844    -0.000006438247     0.000001405138
       8        0.000001341385    -0.000002395877     0.000001069006
       9       -0.000006065625     0.000002084089    -0.000000303497
      10        0.000001687204    -0.000001195838    -0.000003591523
      11       -0.002361722358    -0.003363134244    -0.000714678093
      12        0.000017734174    -0.000005022759    -0.000012168794
      13        0.000003508151     0.000002317576     0.000002666765
      14        0.000007532533    -0.000007517433     0.000007494645

  **** Optimization is complete! (in 6 steps) ****
    Final optimized geometry and variables:
    Molecular point group: c1

    Geometry (in Angstrom), charge = 0, multiplicity = 1:

    O            0.181273976791     1.399532619517     0.194989089288
    C            0.126977281234     0.219177271785     0.219007881684
    C           -1.146692893405    -0.589897400203     0.219247795010
    O            1.240716906208    -0.548830863895     0.230841578677
    C           -2.410024757832     0.260853103434     0.239849163196
    H           -1.117768153576    -1.230882136655    -0.658722721709
    H           -1.105727663960    -1.262459107750     1.071267127689
    H           -2.455450727887     0.912985232157    -0.623956579143
    H           -3.290159460860    -0.373164365850     0.236732713862
    H           -2.442515567721     0.885098320772     1.124592997528
    C            1.888510744256    -0.734606397636    -1.010135021162
    H            1.247660636412    -1.265995248534    -1.706248599050
    H            2.766983071232    -1.328741095779    -0.812558904318
    H            2.180107755808     0.216904571928    -1.435921266961

  Mulliken Charges: (a.u.)
   Center  Symbol    Alpha    Beta     Spin     Total
       1     O     4.25383  4.25383  0.00000 -0.50767
       2     C     2.61550  2.61550  0.00000  0.76900
       3     C     3.20878  3.20878  0.00000 -0.41756
       4     O     4.31557  4.31557  0.00000 -0.63113
       5     C     3.23958  3.23958  0.00000 -0.47915
       6     H     0.40638  0.40638  0.00000  0.18724
       7     H     0.39807  0.39807  0.00000  0.20385
       8     H     0.41020  0.41020  0.00000  0.17960
       9     H     0.41750  0.41750  0.00000  0.16500
      10     H     0.40866  0.40866  0.00000  0.18267
      11     C     3.09293  3.09293  0.00000 -0.18586
      12     H     0.42273  0.42273  0.00000  0.15454
      13     H     0.40293  0.40293  0.00000  0.19414
      14     H     0.40734  0.40734  0.00000  0.18533

   Total alpha = 24.00000, Total beta = 24.00000, Total charge = -0.00000
