                              Psi4 1.0.54 Driver

  ==> Input File <==

--------------------------------------------------------------------------
set {
	reference rhf
	basis cc-pvtz
}

set_num_threads( 4 )
memory 2 gb

molecule MOL {
0 1

H	 -2.698799	 -0.000846	 0.036018
C	 -1.694291	 -0.000483	 0.434279
O	 -0.828718	 -0.000608	 -0.655022
H	 -1.576855	 0.881100	 1.056504
H	 -1.576401	 -0.881658	 1.057001
C	 0.557892	 0.000078	 -0.420099
C	 1.070342	 1.354280	 0.057188
C	 0.997938	 -1.139600	 0.491900
H	 0.975364	 -0.183251	 -1.402304
H	 0.708684	 2.143683	 -0.590196
H	 2.153913	 1.365712	 0.035076
H	 0.762422	 1.574367	 1.072733
H	 0.586144	 -2.079700	 0.145953
H	 2.078895	 -1.218775	 0.485693
H	 0.688004	 -0.985734	 1.518939

	symmetry c1
}
set optking {
	frozen_dihedral = ("
		9 6 3 2
	")
}

ee,wfn = optimize('scf', return_wfn=True)
oeprop( wfn, 'DIPOLE', 'QUADRUPOLE', 'MULLIKEN_CHARGES')
f=open( 'psi4out.xyz', 'w' )
f.write( "15  " )
f.write( str(ee) + "\n" )
f.write( MOL.save_string_xyz() )
f.close()
--------------------------------------------------------------------------

    Molecular point group: c1
  Charge       = 0
  Multiplicity = 1
  Basis Set: CC-PVTZ
  Basis Set:
  @DF-RHF Final Energy:  -232.22588649064559
    Total Energy =                       -232.2258864906457347
    Molecular point group: c1
  Basis Set: CC-PVTZ
  Basis Set:
  Basis Set: CC-PVTZ
  Basis Set:
  @DF-RHF Final Energy:  -232.22598083518980
    Total Energy =                       -232.2259808351898300
  Basis Set: CC-PVTZ
  Basis Set:
  Basis Set: CC-PVTZ
  Basis Set:
  @DF-RHF Final Energy:  -232.22604624031047
    Total Energy =                       -232.2260462403105521
  Basis Set: CC-PVTZ
  Basis Set:
  Basis Set: CC-PVTZ
  Basis Set:
  @DF-RHF Final Energy:  -232.22604821119532
    Total Energy =                       -232.2260482111952342
  Basis Set: CC-PVTZ
  Basis Set:
  Basis Set: CC-PVTZ
  Basis Set:
  @DF-RHF Final Energy:  -232.22605078687855
    Total Energy =                       -232.2260507868784885
  Basis Set: CC-PVTZ
  Basis Set:
  Charge       = 0
  Multiplicity = 1
  Basis Set: CC-PVTZ
  Basis Set:

    Orbital Energies (a.u.)
    -----------------------

    Doubly Occupied:

       1A    -20.541735     2A    -11.272646     3A    -11.258707
       4A    -11.209884     5A    -11.207549     6A     -1.373459
       7A     -1.051632     8A     -0.941281     9A     -0.930500
      10A     -0.781475    11A     -0.675886    12A     -0.642712
      13A     -0.634951    14A     -0.574428    15A     -0.564008
      16A     -0.552841    17A     -0.534052    18A     -0.499675
      19A     -0.496733    20A     -0.445054    21A     -0.408991

  @DF-RHF Final Energy:  -232.22605083017072

   => Energetics <=

    Nuclear Repulsion Energy =            199.0496277213487133
    One-Electron Energy =                -709.3549577375138142
    Two-Electron Energy =                 278.0792791859942099
    DFT Exchange-Correlation Energy =       0.0000000000000000
    Empirical Dispersion Energy =           0.0000000000000000
    PCM Polarization Energy =               0.0000000000000000
    EFP Energy =                            0.0000000000000000
    Total Energy =                       -232.2260508301708910
    Molecular point group: c1
  Basis Set: CC-PVTZ
  Basis Set:

  -Total Gradient:
     Atom            X                  Y                   Z
    ------   -----------------  -----------------  -----------------
       1        0.000003187964    -0.000000390105    -0.000004701124
       2        0.000015488889    -0.000741523684     0.000006773220
       3        0.000003813526     0.000959664769     0.000009783722
       4       -0.000007915175     0.000002002462     0.000006473265
       5       -0.000002832476    -0.000005746024     0.000002747308
       6        0.000028302171     0.000635418758    -0.000174472907
       7       -0.000001479239     0.000002154702    -0.000004495417
       8        0.000002337510    -0.000004667351     0.000012158786
       9       -0.000033075727    -0.000846788595     0.000149271797
      10       -0.000000594254     0.000004665213    -0.000001714585
      11       -0.000006946386    -0.000001717909    -0.000000914595
      12        0.000001372890    -0.000001214734     0.000002331801
      13        0.000001868657     0.000001678274     0.000003807910
      14       -0.000004639292     0.000000314803    -0.000001788706
      15        0.000001110942    -0.000003850579    -0.000005260476

  **** Optimization is complete! (in 6 steps) ****
    Final optimized geometry and variables:
    Molecular point group: c1

    Geometry (in Angstrom), charge = 0, multiplicity = 1:

    H           -2.694350703057     0.066392759990     0.031689996146
    C           -1.695859841074    -0.043210556836     0.430216415306
    O           -0.825564375372    -0.048900447315    -0.655246948392
    H           -1.510020114153     0.783481397606     1.109385701596
    H           -1.654803050291    -0.969259077310     0.994558297134
    C            0.560266433875    -0.047304326561    -0.413785488636
    C            1.052208875998     1.314948917469     0.061135711886
    C            1.009632328821    -1.178209174893     0.504643364611
    H            0.985187537557    -0.235463320993    -1.391964134107
    H            0.706310285774     2.091846342629    -0.609091699399
    H            2.136027031896     1.334888445427     0.077461281994
    H            0.705488158921     1.546530490615     1.061678687886
    H            0.612116115427    -2.126485834937     0.163506068311
    H            2.091326862431    -1.243228339517     0.499207399514
    H            0.696349765032    -1.023008757614     1.530538207261

  Mulliken Charges: (a.u.)
   Center  Symbol    Alpha    Beta     Spin     Total
       1     H     0.44129  0.44129  0.00000  0.11741
       2     C     3.03930  3.03930  0.00000 -0.07860
       3     O     4.18357  4.18357  0.00000 -0.36714
       4     H     0.47100  0.47100  0.00000  0.05801
       5     H     0.46868  0.46868  0.00000  0.06264
       6     C     2.93386  2.93386  0.00000  0.13229
       7     C     3.15280  3.15280  0.00000 -0.30561
       8     C     3.16299  3.16299  0.00000 -0.32599
       9     H     0.44713  0.44713  0.00000  0.10575
      10     H     0.44474  0.44474  0.00000  0.11051
      11     H     0.45185  0.45185  0.00000  0.09629
      12     H     0.45649  0.45649  0.00000  0.08702
      13     H     0.44373  0.44373  0.00000  0.11253
      14     H     0.44782  0.44782  0.00000  0.10436
      15     H     0.45473  0.45473  0.00000  0.09053

   Total alpha = 21.00000, Total beta = 21.00000, Total charge = -0.00000

*** Psi4 exiting successfully. Buy a developer a beer!
