  ==> Input File <==

--------------------------------------------------------------------------
set {
	reference rhf
	basis 6-31G*
}

set_num_threads( 4 )
memory 2 gb

molecule MOL {
0 1

H	 2.794912	 -3.477131	 2.346744
O	 3.557123	 -3.370370	 1.796554
C	 3.229763	 -3.686745	 0.467345
C	 2.363113	 -2.628625	 -0.206470
H	 4.173553	 -3.773391	 -0.055557
H	 2.741595	 -4.659300	 0.416268
C	 0.981021	 -2.459096	 0.429101
H	 2.894702	 -1.680895	 -0.182220
H	 2.248348	 -2.901309	 -1.254249
C	 0.115918	 -1.429151	 -0.302766
H	 1.099477	 -2.161359	 1.467217
H	 0.464977	 -3.419306	 0.435055
C	 -1.309753	 -1.282496	 0.241564
H	 0.612580	 -0.460919	 -0.276276
H	 0.056500	 -1.710205	 -1.352136
C	 -2.037799	 -0.007733	 -0.193645
H	 -1.890610	 -2.142323	 -0.085726
H	 -1.285946	 -1.330893	 1.329189
C	 -3.489788	 0.042957	 0.286558
H	 -2.017067	 0.064384	 -1.280144
H	 -1.513726	 0.868678	 0.179924
C	 -4.216917	 1.317354	 -0.141063
H	 -4.025645	 -0.823308	 -0.095450
H	 -3.513059	 -0.038752	 1.371301
H	 -4.239342	 1.411634	 -1.223113
H	 -5.243387	 1.322503	 0.212445
H	 -3.726170	 2.201406	 0.256408

	symmetry c1
}
set optking {
	frozen_dihedral = ("
		14 10 13 16
	")
}

ee = optimize('scf')
oeprop('DIPOLE', 'QUADRUPOLE', 'MULLIKEN_CHARGES')
f=open( 'psi4out.xyz', 'w' )
f.write( "27  " )
f.write( str(ee) + "\n" )
f.write( MOL.save_string_xyz() )
f.close()
--------------------------------------------------------------------------

    Molecular point group: c1
  Charge       = 0
  Multiplicity = 1
  Basis Set: 6-31G*
  Basis Set:
  @DF-RHF Final Energy:  -388.28201895063927
    Total Energy =                       -388.2820189506385304
    Molecular point group: c1
  Basis Set: 6-31G*
  Basis Set:
  Basis Set: 6-31G*
  Basis Set:
  @DF-RHF Final Energy:  -388.28240430537971
    Total Energy =                       -388.2824043053793730
  Basis Set: 6-31G*
  Basis Set:
  Basis Set: 6-31G*
  Basis Set:
  @DF-RHF Final Energy:  -388.28242867603137
    Total Energy =                       -388.2824286760319410
  Basis Set: 6-31G*
  Basis Set:
  Basis Set: 6-31G*
  Basis Set:
  @DF-RHF Final Energy:  -388.28244991294417
    Total Energy =                       -388.2824499129449123
  Basis Set: 6-31G*
  Basis Set:
  Basis Set: 6-31G*
  Basis Set:
  @DF-RHF Final Energy:  -388.28245437082938
    Total Energy =                       -388.2824543708306919
  Basis Set: 6-31G*
  Basis Set:
  Charge       = 0
  Multiplicity = 1
  Basis Set: 6-31G*
  Basis Set:

    Orbital Energies (a.u.)
    -----------------------

    Doubly Occupied:

       1A    -20.552230     2A    -11.267101     3A    -11.220626
       4A    -11.216867     5A    -11.215687     6A    -11.215363
       7A    -11.215329     8A    -11.214132     9A    -11.208982
      10A     -1.359028    11A     -1.094836    12A     -1.062635
      13A     -1.011902    14A     -0.950515    15A     -0.882704
      16A     -0.820161    17A     -0.792715    18A     -0.789432
      19A     -0.694254    20A     -0.657916    21A     -0.635230
      22A     -0.613356    23A     -0.599494    24A     -0.587856
      25A     -0.574763    26A     -0.554572    27A     -0.538583
      28A     -0.519545    29A     -0.513206    30A     -0.489419
      31A     -0.484127    32A     -0.474597    33A     -0.467856
      34A     -0.463165    35A     -0.460313    36A     -0.442964
      37A     -0.420179

  @DF-RHF Final Energy:  -388.28245492745833

   => Energetics <=

    Nuclear Repulsion Energy =            451.3616956870139916
    One-Electron Energy =               -1420.7250203106577828
    Two-Electron Energy =                 581.0808696961851183
    DFT Exchange-Correlation Energy =       0.0000000000000000
    Empirical Dispersion Energy =           0.0000000000000000
    PCM Polarization Energy =               0.0000000000000000
    EFP Energy =                            0.0000000000000000
    Total Energy =                       -388.2824549274587298
    Molecular point group: c1
  Basis Set: 6-31G*
  Basis Set:

  -Total Gradient:
     Atom            X                  Y                   Z
    ------   -----------------  -----------------  -----------------
       1       -0.000008661859     0.000003495522     0.000010891686
       2       -0.000024208884    -0.000002413214     0.000002212284
       3        0.000023422035     0.000026900994    -0.000016422829
       4       -0.000018969302    -0.000004868515    -0.000021580133
       5       -0.000003284079    -0.000001950704    -0.000015005876
       6       -0.000006103602     0.000009416433     0.000008447113
       7       -0.000019149921     0.000002131585     0.000014771963
       8        0.000008341635    -0.000011923199     0.000007834270
       9        0.000010713356     0.000002904339    -0.000009117397
      10        0.001683828746    -0.000289558937     0.004290574696
      11        0.000003180839    -0.000003639321     0.000000711024
      12       -0.000000562663    -0.000011460206     0.000003627405
      13       -0.001429455578    -0.001381520640    -0.003278044756
      14       -0.001047989850     0.000625563313    -0.002874342023
      15       -0.000006451540    -0.000023197566     0.000022831891
      16        0.000845019834     0.001107461139     0.001853644771
      17       -0.000029521471    -0.000009781594    -0.000005599672
      18       -0.000000520572     0.000010957395    -0.000008764097
      19       -0.000004371549    -0.000041749970    -0.000000195907
      20        0.000009180608    -0.000018321172     0.000005940695
      21       -0.000000669587     0.000012565735    -0.000003481821
      22        0.000023086160     0.000002143990     0.000001925232
      23       -0.000008200380    -0.000008880534     0.000010171282
      24       -0.000002210839     0.000008370803    -0.000003823433
      25        0.000002069523    -0.000001652466     0.000001908411
      26        0.000004288937    -0.000006696040     0.000001898520
      27       -0.000002800008     0.000005702831    -0.000001013304

  **** Optimization is complete! (in 6 steps) ****
    Final optimized geometry and variables:
    Molecular point group: c1

    Geometry (in Angstrom), charge = 0, multiplicity = 1:

    H            2.784256001056    -1.958790489842     2.059151008754
    O            3.562276896122    -1.835331125191     1.535122543012
    C            3.280607230118    -2.135078824414     0.191787661888
    C            2.418765224306    -1.079067907859    -0.491399393690
    H            4.241174038307    -2.199234690235    -0.302997582260
    H            2.809090574185    -3.113772634767     0.110422935133
    C            1.016644427760    -0.939739675229     0.105255123384
    H            2.935011137523    -0.124168852988    -0.436977634520
    H            2.338630056353    -1.336962718658    -1.546083052244
    C            0.153160760303     0.090306333936    -0.623079912346
    H            1.093133174759    -0.653027601913     1.152055743977
    H            0.515166873711    -1.907253043723     0.083281899696
    C           -1.269129401597     0.204462093833    -0.064271138266
    H            0.636012734345     1.065226927292    -0.597083895039
    H            0.096940157955    -0.174209017290    -1.677930204341
    C           -1.991955509753     1.478422311523    -0.505238429095
    H           -1.846167342297    -0.669733825547    -0.359015483927
    H           -1.230374948466     0.188304094092     1.024050032360
    C           -3.427351942360     1.571876036044     0.015015417896
    H           -2.000935612984     1.533812535100    -1.593016908823
    H           -1.428071003524     2.343726422330    -0.161745259320
    C           -4.137208396614     2.854539185830    -0.416921051488
    H           -3.993767499104     0.711148467335    -0.334207782104
    H           -3.420866831691     1.511813396860     1.101395523445
    H           -4.190072840514     2.927777964489    -1.499549803913
    H           -5.152145282670     2.891268973302    -0.033268400076
    H           -3.613950809930     3.734078657543    -0.052438914352

  Mulliken Charges: (a.u.)
   Center  Symbol    Alpha    Beta     Spin     Total
       1     H     0.27985  0.27985  0.00000  0.44031
       2     O     4.37098  4.37098  0.00000 -0.74196
       3     C     2.99739  2.99739  0.00000  0.00521
       4     C     3.16140  3.16140  0.00000 -0.32280
       5     H     0.41439  0.41439  0.00000  0.17122
       6     H     0.43202  0.43202  0.00000  0.13595
       7     C     3.16176  3.16176  0.00000 -0.32352
       8     H     0.41488  0.41488  0.00000  0.17023
       9     H     0.42409  0.42409  0.00000  0.15182
      10     C     3.15162  3.15162  0.00000 -0.30323
      11     H     0.42488  0.42488  0.00000  0.15024
      12     H     0.42470  0.42470  0.00000  0.15059
      13     C     3.15222  3.15222  0.00000 -0.30444
      14     H     0.42095  0.42095  0.00000  0.15810
      15     H     0.42277  0.42277  0.00000  0.15445
      16     C     3.15146  3.15146  0.00000 -0.30291
      17     H     0.42272  0.42272  0.00000  0.15456
      18     H     0.42462  0.42462  0.00000  0.15076
      19     C     3.15160  3.15160  0.00000 -0.30319
      20     H     0.42402  0.42402  0.00000  0.15195
      21     H     0.42322  0.42322  0.00000  0.15356
      22     C     3.23929  3.23929  0.00000 -0.47858
      23     H     0.42320  0.42320  0.00000  0.15360
      24     H     0.42320  0.42320  0.00000  0.15359
      25     H     0.42176  0.42176  0.00000  0.15647
      26     H     0.41933  0.41933  0.00000  0.16133
      27     H     0.42166  0.42166  0.00000  0.15667

   Total alpha = 37.00000, Total beta = 37.00000, Total charge =  0.00000
