  ==> Input File <==

--------------------------------------------------------------------------
set {
	reference rhf
	basis 6-31G*
}

set_num_threads( 1 )
memory 2 gb

molecule MOL {
0 1

H	 1.796423	 -1.297385	 0.476638
C	 1.951159	 -0.223429	 0.317018
C	 0.692068	 0.589600	 0.160137
O	 3.052352	 0.221535	 0.278148
C	 -0.558097	 -0.297372	 0.091132
H	 0.791645	 1.202255	 -0.728243
H	 0.616171	 1.253469	 1.020572
C	 -1.850991	 0.512573	 -0.019058
H	 -0.476753	 -0.965681	 -0.762987
H	 -0.604799	 -0.930658	 0.975228
C	 -3.096943	 -0.368295	 -0.099594
H	 -1.800724	 1.150330	 -0.898172
H	 -1.931651	 1.177355	 0.838044
H	 -3.060452	 -1.020287	 -0.967456
H	 -3.996858	 0.233488	 -0.175704
H	 -3.191959	 -0.995686	 0.782074

	symmetry c1
}
set optking {
	frozen_dihedral = ("
		9 5 8 12,
		6 3 5 9
	")
}

ee = energy('scf')
oeprop('DIPOLE', 'QUADRUPOLE', 'MULLIKEN_CHARGES')
f=open( 'psi4out.xyz', 'w' )
f.write( "16  " )
f.write( str(ee) + "\n" )
f.write( MOL.save_string_xyz() )
f.close()
--------------------------------------------------------------------------

    Molecular point group: c1

    Geometry (in Angstrom), charge = 0, multiplicity = 1:

       Center              X                  Y                   Z               Mass
    ------------   -----------------  -----------------  -----------------  -----------------
           H          1.767183829909    -1.366001609464     0.355706586710     1.007825032070
           C          1.921919829909    -0.292045609464     0.196086586710    12.000000000000
           C          0.662828829909     0.520983390536     0.039205586710    12.000000000000
           O          3.023112829909     0.152918390536     0.157216586710    15.994914619560
           C         -0.587336170091    -0.365988609464    -0.029799413290    12.000000000000
           H          0.762405829909     1.133638390536    -0.849174413290     1.007825032070
           H          0.586931829909     1.184852390536     0.899640586710     1.007825032070
           C         -1.880230170091     0.443956390536    -0.139989413290    12.000000000000
           H         -0.505992170091    -1.034297609464    -0.883918413290     1.007825032070
           H         -0.634038170091    -0.999274609464     0.854296586710     1.007825032070
           C         -3.126182170091    -0.436911609464    -0.220525413290    12.000000000000
           H         -1.829963170091     1.081713390536    -1.019103413290     1.007825032070
           H         -1.960890170091     1.108738390536     0.717112586710     1.007825032070
           H         -3.089691170091    -1.088903609464    -1.088387413290     1.007825032070
           H         -4.026097170091     0.164871390536    -0.296635413290     1.007825032070
           H         -3.221198170091    -1.064302609464     0.661142586710     1.007825032070

  Charge       = 0
  Multiplicity = 1
  Basis Set: 6-31G*
  Basis Set:

    Orbital Energies (a.u.)
    -----------------------

    Doubly Occupied:

       1A    -20.561672     2A    -11.327164     3A    -11.236105
       4A    -11.234539     5A    -11.229267     6A    -11.218638
       7A     -1.402068     8A     -1.097152     9A     -1.019430
      10A     -0.904428    11A     -0.812138    12A     -0.796275
      13A     -0.665584    14A     -0.658161    15A     -0.631926
      16A     -0.603134    17A     -0.589320    18A     -0.541696
      19A     -0.537587    20A     -0.495934    21A     -0.488303
      22A     -0.486128    23A     -0.478808    24A     -0.409836

  @DF-RHF Final Energy:  -270.01847377686636

   => Energetics <=

    Nuclear Repulsion Energy =            228.2454915220494058
    One-Electron Energy =                -817.6773252981171254
    Two-Electron Energy =                 319.4133599992008499
    DFT Exchange-Correlation Energy =       0.0000000000000000
    Empirical Dispersion Energy =           0.0000000000000000
    PCM Polarization Energy =               0.0000000000000000
    EFP Energy =                            0.0000000000000000
    Total Energy =                       -270.0184737768668697

  Mulliken Charges: (a.u.)
   Center  Symbol    Alpha    Beta     Spin     Total
       1     H     0.42961  0.42961  0.00000  0.14078
       2     C     2.83368  2.83368  0.00000  0.33264
       3     C     3.20552  3.20552  0.00000 -0.41104
       4     O     4.24111  4.24111  0.00000 -0.48223
       5     C     3.16632  3.16632  0.00000 -0.33264
       6     H     0.39784  0.39784  0.00000  0.20432
       7     H     0.40003  0.40003  0.00000  0.19994
       8     C     3.15177  3.15177  0.00000 -0.30353
       9     H     0.41811  0.41811  0.00000  0.16378
      10     H     0.41898  0.41898  0.00000  0.16203
      11     C     3.24010  3.24010  0.00000 -0.48021
      12     H     0.41968  0.41968  0.00000  0.16064
      13     H     0.42025  0.42025  0.00000  0.15950
      14     H     0.42012  0.42012  0.00000  0.15976
      15     H     0.41646  0.41646  0.00000  0.16707
      16     H     0.42040  0.42040  0.00000  0.15919

   Total alpha = 24.00000, Total beta = 24.00000, Total charge = -0.00000
