                              Psi4 1.0.54 Driver

  ==> Input File <==

--------------------------------------------------------------------------
set {
	reference rhf
	basis cc-pvtz
}

set_num_threads( 4 )
memory 2 gb

molecule MOL {
0 1

H	 -4.010597	 -0.575330	 0.460806
C	 -2.948177	 -0.423352	 0.479330
C	 -2.423090	 0.706202	 1.081021
C	 -2.108702	 -1.357023	 -0.098185
H	 -3.075292	 1.430479	 1.529080
C	 -1.057777	 0.900798	 1.104428
H	 -2.516903	 -2.232664	 -0.564550
C	 -0.741380	 -1.163591	 -0.075559
H	 -0.634378	 1.769570	 1.565976
C	 -0.211931	 -0.033151	 0.526356
H	 -0.088478	 -1.884723	 -0.521896
C	 1.255894	 0.223245	 0.578034
O	 1.968286	 -0.725612	 -0.000027
O	 1.740928	 1.178959	 1.084522
C	 3.373556	 -0.568203	 0.000011
H	 3.695416	 -0.031588	 -0.879663
H	 3.782700	 -1.565294	 -0.000152
H	 3.695405	 -0.031851	 0.879862

	symmetry c1
}
set optking {
	frozen_dihedral = ("
		12 13 15 16
	")
}

ee,wfn = optimize('scf', return_wfn=True)
oeprop( wfn, 'DIPOLE', 'QUADRUPOLE', 'MULLIKEN_CHARGES')
f=open( 'psi4out.xyz', 'w' )
f.write( "18  " )
f.write( str(ee) + "\n" )
f.write( MOL.save_string_xyz() )
f.close()
--------------------------------------------------------------------------

    Molecular point group: c1
  Charge       = 0
  Multiplicity = 1
  Basis Set: CC-PVTZ
  Basis Set:
  @DF-RHF Final Energy:  -457.50889936596690
    Total Energy =                       -457.5088993659666130
    Molecular point group: c1
  Basis Set: CC-PVTZ
  Basis Set:
  Basis Set: CC-PVTZ
  Basis Set:
  @DF-RHF Final Energy:  -457.50191692154567
    Total Energy =                       -457.5019169215456714
  Basis Set: CC-PVTZ
  Basis Set:
  Basis Set: CC-PVTZ
  Basis Set:
  @DF-RHF Final Energy:  -457.50906493651974
    Total Energy =                       -457.5090649365197351
  Basis Set: CC-PVTZ
  Basis Set:
  Basis Set: CC-PVTZ
  Basis Set:
  @DF-RHF Final Energy:  -457.50894840928635
    Total Energy =                       -457.5089484092864041
  Basis Set: CC-PVTZ
  Basis Set:
  Basis Set: CC-PVTZ
  Basis Set:
  @DF-RHF Final Energy:  -457.50899391982938
    Total Energy =                       -457.5089939198298907
  Basis Set: CC-PVTZ
  Basis Set:
  Basis Set: CC-PVTZ
  Basis Set:
  @DF-RHF Final Energy:  -457.50914775100142
    Total Energy =                       -457.5091477510013647
  Basis Set: CC-PVTZ
  Basis Set:
  Charge       = 0
  Multiplicity = 1
  Basis Set: CC-PVTZ
  Basis Set:

    Orbital Energies (a.u.)
    -----------------------

    Doubly Occupied:

       1A    -20.600504     2A    -20.534018     3A    -11.372458
       4A    -11.280702     5A    -11.244795     6A    -11.243339
       7A    -11.242487     8A    -11.239841     9A    -11.235886
      10A    -11.235120    11A     -1.475725    12A     -1.368778
      13A     -1.170563    14A     -1.051693    15A     -1.028857
      16A     -0.981213    17A     -0.863008    18A     -0.838259
      19A     -0.780797    20A     -0.745022    21A     -0.688130
      22A     -0.680518    23A     -0.676254    24A     -0.634178
      25A     -0.629908    26A     -0.601108    27A     -0.587720
      28A     -0.568063    29A     -0.529175    30A     -0.520162
      31A     -0.509790    32A     -0.501899    33A     -0.462548
      34A     -0.449329    35A     -0.350107    36A     -0.346059

  @DF-RHF Final Energy:  -457.50914877741559

   => Energetics <=

    Nuclear Repulsion Energy =            493.7866839437666613
    One-Electron Energy =               -1602.0556400332852718
    Two-Electron Energy =                 650.7598073121031348
    DFT Exchange-Correlation Energy =       0.0000000000000000
    Empirical Dispersion Energy =           0.0000000000000000
    PCM Polarization Energy =               0.0000000000000000
    EFP Energy =                            0.0000000000000000
    Total Energy =                       -457.5091487774155894
    Molecular point group: c1
  Basis Set: CC-PVTZ
  Basis Set:

  -Total Gradient:
     Atom            X                  Y                   Z
    ------   -----------------  -----------------  -----------------
       1       -0.000000998845    -0.000001095957    -0.000000464110
       2        0.000002646372     0.000016150330     0.000005046335
       3       -0.000018569002    -0.000010735260    -0.000002580966
       4        0.000001512014    -0.000006369209    -0.000001459297
       5       -0.000002545231     0.000002047657     0.000001136940
       6        0.000000981768     0.000000458730    -0.000002885848
       7       -0.000002885011    -0.000001584169    -0.000000004090
       8       -0.000011831605    -0.000003296152    -0.000004100927
       9       -0.000000719021    -0.000001409773     0.000000895785
      10       -0.000017693161     0.000002379739     0.000005872823
      11       -0.000006760786     0.000004196964     0.000001515908
      12        0.000014608481    -0.000531939366     0.001380134579
      13       -0.000018330620     0.000459034151    -0.002140486474
      14        0.000013248296    -0.000045660857    -0.000028923984
      15        0.000045047558     0.001662042917     0.001418576380
      16        0.000004290296    -0.001552892680    -0.000623842635
      17        0.000017519453     0.000014783722    -0.000003912490
      18       -0.000019520952    -0.000006110790    -0.000004517927

  **** Optimization is complete! (in 7 steps) ****
    Final optimized geometry and variables:
    Molecular point group: c1

    Geometry (in Angstrom), charge = 0, multiplicity = 1:

    H           -4.040260756308    -0.256038843752     0.068620697927
    C           -2.971811959275    -0.152845436857     0.063071995249
    C           -2.390379096258     1.028371230449     0.487887763737
    C           -2.180731186033    -1.200514694099    -0.368708281425
    H           -3.004893734016     1.841411476506     0.822807069662
    C           -1.017415379243     1.160294123643     0.480304693789
    H           -2.632306933653    -2.116217348499    -0.698139351575
    C           -0.805668217097    -1.069951467692    -0.376730175387
    H           -0.551027291107     2.067890663461     0.805651204476
    C           -0.219832514105     0.111758535372     0.048301141731
    H           -0.190572907572    -1.879609887167    -0.710814419725
    C            1.259379371372     0.305416957382     0.060341578233
    O            1.918871876630    -0.751737869207    -0.375813761773
    O            1.787529857271     1.303124122243     0.421170053456
    C            3.332869654000    -0.708369430013    -0.380787466070
    H            3.682420553983    -0.317091598776    -1.325999283538
    H            3.666848523454    -1.728275377983    -0.272383098638
    H            3.704319987786    -0.101880090753     0.427519619932

  Mulliken Charges: (a.u.)
   Center  Symbol    Alpha    Beta     Spin     Total
       1     H     0.42032  0.42032  0.00000  0.15936
       2     C     3.06974  3.06974  0.00000 -0.13948
       3     C     3.07555  3.07555  0.00000 -0.15110
       4     C     3.07494  3.07494  0.00000 -0.14988
       5     H     0.42043  0.42043  0.00000  0.15914
       6     C     3.07587  3.07587  0.00000 -0.15174
       7     H     0.42193  0.42193  0.00000  0.15614
       8     C     3.08205  3.08205  0.00000 -0.16411
       9     H     0.40651  0.40651  0.00000  0.18699
      10     C     3.01611  3.01611  0.00000 -0.03221
      11     H     0.41114  0.41114  0.00000  0.17772
      12     C     2.77792  2.77792  0.00000  0.44416
      13     O     4.14930  4.14930  0.00000 -0.29859
      14     O     4.21150  4.21150  0.00000 -0.42300
      15     C     3.03854  3.03854  0.00000 -0.07707
      16     H     0.45540  0.45540  0.00000  0.08920
      17     H     0.44772  0.44772  0.00000  0.10456
      18     H     0.44504  0.44504  0.00000  0.10992

   Total alpha = 36.00000, Total beta = 36.00000, Total charge = -0.00000

*** Psi4 exiting successfully. Buy a developer a beer!
