                              Psi4 1.0.54 Driver

  ==> Input File <==

--------------------------------------------------------------------------
set {
	reference rhf
	basis cc-pvtz
}

set_num_threads( 4 )
memory 2 gb

molecule MOL {
0 1

H	 3.721907	 -0.933076	 -0.066039
O	 2.824271	 -1.154299	 0.131461
C	 2.076458	 -0.067370	 -0.038225
C	 0.626018	 -0.337582	 0.258241
O	 2.538288	 0.965419	 -0.381593
C	 -0.267326	 0.883135	 0.076490
H	 0.325620	 -1.161483	 -0.378003
H	 0.574537	 -0.713685	 1.275261
C	 -1.726822	 0.642622	 0.463839
H	 -0.210803	 1.217591	 -0.953497
H	 0.129920	 1.693110	 0.675679
C	 -2.055099	 -0.784650	 0.898775
H	 -2.347371	 0.894171	 -0.391085
H	 -2.010529	 1.333462	 1.254850
C	 -3.541747	 -0.990093	 1.171076
H	 -1.731909	 -1.476145	 0.125201
H	 -1.495567	 -1.042224	 1.792383
H	 -3.747858	 -2.009708	 1.475354
H	 -4.133740	 -0.782409	 0.286141
H	 -3.888996	 -0.332705	 1.961275

	symmetry c1
}
set optking {
	frozen_dihedral = ("
		12 9 6 10
	")
}

ee,wfn = optimize('scf', return_wfn=True)
oeprop( wfn, 'DIPOLE', 'QUADRUPOLE', 'MULLIKEN_CHARGES')
f=open( 'psi4out.xyz', 'w' )
f.write( "20  " )
f.write( str(ee) + "\n" )
f.write( MOL.save_string_xyz() )
f.close()
--------------------------------------------------------------------------

    Molecular point group: c1
  Charge       = 0
  Multiplicity = 1
  Basis Set: CC-PVTZ
  Basis Set:
  @DF-RHF Final Energy:  -384.08414083507756
    Total Energy =                       -384.0841408350770507
    Molecular point group: c1
  Basis Set: CC-PVTZ
  Basis Set:
  Basis Set: CC-PVTZ
  Basis Set:
  @DF-RHF Final Energy:  -384.07574642683721
    Total Energy =                       -384.0757464268370995
  Basis Set: CC-PVTZ
  Basis Set:
  Basis Set: CC-PVTZ
  Basis Set:
  @DF-RHF Final Energy:  -384.08586490075538
    Total Energy =                       -384.0858649007553254
  Basis Set: CC-PVTZ
  Basis Set:
  Basis Set: CC-PVTZ
  Basis Set:
  @DF-RHF Final Energy:  -384.08640381682682
    Total Energy =                       -384.0864038168263050
  Basis Set: CC-PVTZ
  Basis Set:
  @DF-RHF Final Energy:  -384.08605373014262
    Total Energy =                       -384.0860537301430213
  Basis Set: CC-PVTZ
  Basis Set:
  @DF-RHF Final Energy:  -384.08626013354166
    Total Energy =                       -384.0862601335418276
  Basis Set: CC-PVTZ
  Basis Set:
  Basis Set: CC-PVTZ
  Basis Set:
  @DF-RHF Final Energy:  -384.08644697970749
    Total Energy =                       -384.0864469797074889
  Basis Set: CC-PVTZ
  Basis Set:
  Basis Set: CC-PVTZ
  Basis Set:
  @DF-RHF Final Energy:  -384.08645084438592
    Total Energy =                       -384.0864508443861496
  Basis Set: CC-PVTZ
  Basis Set:
  Charge       = 0
  Multiplicity = 1
  Basis Set: CC-PVTZ
  Basis Set:

    Orbital Energies (a.u.)
    -----------------------

    Doubly Occupied:

       1A    -20.603502     2A    -20.540257     3A    -11.373069
       4A    -11.238608     5A    -11.220895     6A    -11.219710
       7A    -11.218337     8A    -11.210794     9A     -1.477134
      10A     -1.368647    11A     -1.094001    12A     -1.042056
      13A     -0.960827    14A     -0.871915    15A     -0.823448
      16A     -0.768530    17A     -0.703428    18A     -0.690821
      19A     -0.671992    20A     -0.639509    21A     -0.598021
      22A     -0.593702    23A     -0.582485    24A     -0.548674
      25A     -0.543692    26A     -0.519982    27A     -0.499444
      28A     -0.483950    29A     -0.470991    30A     -0.460423
      31A     -0.453463    32A     -0.446818

  @DF-RHF Final Energy:  -384.08645117002743

   => Energetics <=

    Nuclear Repulsion Energy =            377.3069550732750486
    One-Electron Energy =               -1270.9085611606606108
    Two-Electron Energy =                 509.5151549173576200
    DFT Exchange-Correlation Energy =       0.0000000000000000
    Empirical Dispersion Energy =           0.0000000000000000
    PCM Polarization Energy =               0.0000000000000000
    EFP Energy =                            0.0000000000000000
    Total Energy =                       -384.0864511700279422
    Molecular point group: c1
  Basis Set: CC-PVTZ
  Basis Set:

  -Total Gradient:
     Atom            X                  Y                   Z
    ------   -----------------  -----------------  -----------------
       1        0.000003294406     0.000001423679    -0.000000535720
       2       -0.000009821722    -0.000014059945    -0.000009958296
       3       -0.000002327677     0.000006840361     0.000029544525
       4        0.000015376667    -0.000026384767    -0.000007998860
       5       -0.000002770072     0.000011440568    -0.000009600623
       6        0.000039734770    -0.001112828436    -0.000185899165
       7        0.000004023313    -0.000000862486     0.000007891911
       8        0.000010769268    -0.000000218316    -0.000005129917
       9       -0.000217665326     0.000139395125    -0.001038960046
      10       -0.000002294873     0.000939561938     0.000458967574
      11       -0.000003336888     0.000002875003    -0.000003960241
      12        0.000142372404     0.000025917192     0.000777397885
      13        0.000002313473     0.000012389342    -0.000005275429
      14        0.000014053467     0.000001352926    -0.000007576653
      15        0.000013196730     0.000008972513    -0.000002148313
      16       -0.000003313597     0.000003556338     0.000003859494
      17       -0.000005631644    -0.000005464909     0.000001024113
      18        0.000009671499     0.000004130269    -0.000003064533
      19       -0.000003527632     0.000001942545    -0.000001301757
      20       -0.000004116566     0.000000021057     0.000002724050

  **** Optimization is complete! (in 9 steps) ****
    Final optimized geometry and variables:
    Molecular point group: c1

    Geometry (in Angstrom), charge = 0, multiplicity = 1:

    H            3.601159419785    -1.044579957356    -0.550452267602
    O            2.696331567748    -1.231915361151    -0.350725345285
    C            2.017601529420    -0.087597325498    -0.363841593617
    C            0.560617021712    -0.304284148985    -0.052574736866
    O            2.538158291321     0.948137265777    -0.596694427266
    C           -0.245120045650     0.990264177279    -0.063221760849
    H            0.191998263921    -1.022789605734    -0.774819117887
    H            0.519697323766    -0.802514941621     0.908906588540
    C           -1.759981159590     0.865711083237     0.248577058378
    H           -0.113577561930     1.463173519408    -1.027564388557
    H            0.208837734028     1.669429816899     0.646526278200
    C           -2.333548028089    -0.535664968767     0.465708538781
    H           -2.317167945995     1.335180441453    -0.555095751120
    H           -1.978577183700     1.452135080853     1.134958272015
    C           -3.829601433903    -0.500020275885     0.761772890676
    H           -2.163721208747    -1.151164390983    -0.412175330770
    H           -1.823942563452    -1.026175700400     1.288627916118
    H           -4.222323574924    -1.498649330392     0.914155458983
    H           -4.380057638255    -0.049047690950    -0.057030508830
    H           -4.037922960868     0.077779956232     1.655995208793

  Mulliken Charges: (a.u.)
   Center  Symbol    Alpha    Beta     Spin     Total
       1     H     0.38259  0.38259  0.00000  0.23482
       2     O     4.15930  4.15930  0.00000 -0.31860
       3     C     2.80951  2.80951  0.00000  0.38097
       4     C     3.11330  3.11330  0.00000 -0.22659
       5     O     4.19119  4.19119  0.00000 -0.38237
       6     C     3.09142  3.09142  0.00000 -0.18285
       7     H     0.43554  0.43554  0.00000  0.12892
       8     H     0.43588  0.43588  0.00000  0.12824
       9     C     3.09501  3.09501  0.00000 -0.19001
      10     H     0.44253  0.44253  0.00000  0.11495
      11     H     0.44249  0.44249  0.00000  0.11502
      12     C     3.08986  3.08986  0.00000 -0.17972
      13     H     0.44920  0.44920  0.00000  0.10160
      14     H     0.45005  0.45005  0.00000  0.09989
      15     C     3.15106  3.15106  0.00000 -0.30212
      16     H     0.45263  0.45263  0.00000  0.09474
      17     H     0.45266  0.45266  0.00000  0.09468
      18     H     0.44739  0.44739  0.00000  0.10523
      19     H     0.45412  0.45412  0.00000  0.09177
      20     H     0.45428  0.45428  0.00000  0.09144

   Total alpha = 32.00000, Total beta = 32.00000, Total charge = -0.00000

*** Psi4 exiting successfully. Buy a developer a beer!
