  ==> Input File <==

--------------------------------------------------------------------------
set {
	reference rhf
	basis cc-pvtz
}

set_num_threads( 4 )
memory 2 gb

molecule MOL {
0 1

H	 3.579485	 0.820046	 -1.041724
N	 2.806031	 0.189691	 -1.035579
C	 1.860978	 0.530248	 0.016256
H	 3.175251	 -0.728172	 -0.899373
C	 0.644130	 -0.381765	 -0.031064
H	 1.545385	 1.556152	 -0.141318
H	 2.302273	 0.488259	 1.012976
C	 -0.678115	 0.376691	 0.025731
H	 0.693998	 -0.977147	 -0.936845
H	 0.693309	 -1.082142	 0.800523
C	 -1.900706	 -0.535531	 -0.022488
H	 -0.725296	 1.079516	 -0.802982
H	 -0.715474	 0.974884	 0.933278
C	 -3.220513	 0.226854	 0.028039
H	 -1.865036	 -1.134397	 -0.928236
H	 -1.857948	 -1.236381	 0.806820
H	 -3.309098	 0.911849	 -0.808725
H	 -4.066838	 -0.449485	 -0.008086
H	 -3.301685	 0.809374	 0.939860

	symmetry c1
}
set optking {
	frozen_dihedral = ("
		6 3 5 9
	")
}

ee = optimize('scf')
oeprop('DIPOLE', 'QUADRUPOLE', 'MULLIKEN_CHARGES')
f=open( 'psi4out.xyz', 'w' )
f.write( "19  " )
f.write( str(ee) + "\n" )
f.write( MOL.save_string_xyz() )
f.close()
--------------------------------------------------------------------------

    Molecular point group: c1
  Charge       = 0
  Multiplicity = 1
  Basis Set: CC-PVTZ
  Basis Set:
  @DF-RHF Final Energy:  -251.44264371907744
    Total Energy =                       -251.4426437190775232
    Molecular point group: c1
  Basis Set: CC-PVTZ
  Basis Set:
  Basis Set: CC-PVTZ
  Basis Set:
  @DF-RHF Final Energy:  -251.44291042315461
    Total Energy =                       -251.4429104231546717
  Basis Set: CC-PVTZ
  Basis Set:
  Basis Set: CC-PVTZ
  Basis Set:
  @DF-RHF Final Energy:  -251.44298231609017
    Total Energy =                       -251.4429823160905926
  Basis Set: CC-PVTZ
  Basis Set:
  Basis Set: CC-PVTZ
  Basis Set:
  @DF-RHF Final Energy:  -251.44298336929512
    Total Energy =                       -251.4429833692952343
  Basis Set: CC-PVTZ
  Basis Set:
  Charge       = 0
  Multiplicity = 1
  Basis Set: CC-PVTZ
  Basis Set:

    Orbital Energies (a.u.)
    -----------------------

    Doubly Occupied:

       1A    -15.527236     2A    -11.237899     3A    -11.210903
       4A    -11.209806     5A    -11.207486     6A    -11.204711
       7A     -1.177552     8A     -1.073079     9A     -0.997612
      10A     -0.900271    11A     -0.814346    12A     -0.789738
      13A     -0.655650    14A     -0.651818    15A     -0.614225
      16A     -0.593240    17A     -0.554483    18A     -0.549804
      19A     -0.539811    20A     -0.490675    21A     -0.482867
      22A     -0.463395    23A     -0.459199    24A     -0.453004
      25A     -0.381891

  @DF-RHF Final Energy:  -251.44298350513583

   => Energetics <=

    Nuclear Repulsion Energy =            246.1126245110565947
    One-Electron Energy =                -826.6298146270603411
    Two-Electron Energy =                 329.0742066108679182
    DFT Exchange-Correlation Energy =       0.0000000000000000
    Empirical Dispersion Energy =           0.0000000000000000
    PCM Polarization Energy =               0.0000000000000000
    EFP Energy =                            0.0000000000000000
    Total Energy =                       -251.4429835051358850
    Molecular point group: c1
  Basis Set: CC-PVTZ
  Basis Set:

  -Total Gradient:
     Atom            X                  Y                   Z
    ------   -----------------  -----------------  -----------------
       1        0.000025871112     0.000009531286    -0.000009334406
       2       -0.000029738742     0.000014972298     0.000012036310
       3        0.000770420570    -0.000852046775    -0.003271527196
       4        0.000001517407    -0.000008516148     0.000010031499
       5       -0.001898281366     0.002637544016    -0.001055272186
       6       -0.000374357225     0.000299148122     0.002890047434
       7        0.000013764947    -0.000010023418     0.000004337810
       8        0.000013649294    -0.000003856311    -0.000004307162
       9        0.001472496180    -0.002088320420     0.001407787816
      10        0.000003247246     0.000009011170     0.000003905238
      11        0.000003387255     0.000000714977     0.000018188205
      12        0.000006026584    -0.000001956624     0.000003395529
      13        0.000005235440    -0.000007755812    -0.000002184154
      14       -0.000011072244    -0.000004263862    -0.000011625284
      15        0.000000375051     0.000003327726     0.000005636137
      16        0.000001255125     0.000000402017     0.000000314846
      17       -0.000001415070     0.000003601684     0.000000684173
      18       -0.000004105464     0.000002886805    -0.000003268058
      19        0.000001723897    -0.000004400732     0.000001153450

  **** Optimization is complete! (in 5 steps) ****
    Final optimized geometry and variables:
    Molecular point group: c1

    Geometry (in Angstrom), charge = 0, multiplicity = 1:

    H            3.680891571150     0.729687390215    -0.796238750591
    N            2.887540670559     0.125480479533    -0.843974659191
    C            1.915669729805     0.462323692937     0.185911534523
    H            3.224031280238    -0.807110514975    -0.720883409861
    C            0.681311869830    -0.449928458532     0.119820364506
    H            1.615162031871     1.493808041319     0.041967951609
    H            2.339411758432     0.417613192619     1.189222376040
    C           -0.643510394839     0.303050615118     0.186207748900
    H            0.732234192207    -1.032503739436    -0.793741002346
    H            0.718891046488    -1.170102777076     0.932903519963
    C           -1.863433434428    -0.612640840011     0.166193000268
    H           -0.699290647533     0.995854042682    -0.649617832687
    H           -0.667540104568     0.911120376665     1.088227396674
    C           -3.184697132101     0.147137085295     0.220213199010
    H           -1.836132784670    -1.224427096794    -0.731333078793
    H           -1.809652253420    -1.301135435541     1.005236323611
    H           -3.284257715820     0.819314274951    -0.625561330345
    H           -4.029660338847    -0.531734429557     0.203750134178
    H           -3.257010671793     0.742860710228     1.124233707216

  Mulliken Charges: (a.u.)
   Center  Symbol    Alpha    Beta     Spin     Total
       1     H     0.43058  0.43058  0.00000  0.13883
       2     N     3.68530  3.68530  0.00000 -0.37061
       3     C     3.03111  3.03111  0.00000 -0.06222
       4     H     0.43103  0.43103  0.00000  0.13795
       5     C     3.08744  3.08744  0.00000 -0.17489
       6     H     0.45909  0.45909  0.00000  0.08182
       7     H     0.46624  0.46624  0.00000  0.06751
       8     C     3.09020  3.09020  0.00000 -0.18041
       9     H     0.45218  0.45218  0.00000  0.09565
      10     H     0.45580  0.45580  0.00000  0.08840
      11     C     3.08478  3.08478  0.00000 -0.16957
      12     H     0.45181  0.45181  0.00000  0.09637
      13     H     0.45561  0.45561  0.00000  0.08878
      14     C     3.15006  3.15006  0.00000 -0.30012
      15     H     0.45385  0.45385  0.00000  0.09230
      16     H     0.45544  0.45544  0.00000  0.08911
      17     H     0.45483  0.45483  0.00000  0.09035
      18     H     0.44884  0.44884  0.00000  0.10231
      19     H     0.45579  0.45579  0.00000  0.08843

   Total alpha = 25.00000, Total beta = 25.00000, Total charge =  0.00000
