  ==> Input File <==

--------------------------------------------------------------------------
set {
	reference rhf
	basis cc-pvtz
}

set_num_threads( 4 )
memory 2 gb

molecule MOL {
0 1

O	 0.074770	 1.259872	 0.000487
C	 0.029490	 0.077183	 0.000078
C	 -1.232113	 -0.748027	 0.000015
O	 1.106773	 -0.690081	 -0.000204
C	 -2.501422	 0.088592	 -0.000052
H	 -1.188777	 -1.400384	 -0.865133
H	 -1.188857	 -1.400312	 0.865225
H	 -2.548170	 0.725504	 -0.873205
H	 -3.371613	 -0.556398	 -0.000040
H	 -2.548215	 0.725571	 0.873047
C	 1.999630	 -0.555400	 1.087136
H	 2.388786	 0.450660	 1.138478
H	 2.799125	 -1.254855	 0.904392
H	 1.504695	 -0.789707	 2.017934

	symmetry c1
}
set optking {
	frozen_dihedral = ("
		11 4 2 3
	")
}

ee = optimize('scf')
oeprop('DIPOLE', 'QUADRUPOLE', 'MULLIKEN_CHARGES')
f=open( 'psi4out.xyz', 'w' )
f.write( "14  " )
f.write( str(ee) + "\n" )
f.write( MOL.save_string_xyz() )
f.close()
--------------------------------------------------------------------------

    Molecular point group: c1
  Charge       = 0
  Multiplicity = 1
  Basis Set: CC-PVTZ
  Basis Set:
  @DF-RHF Final Energy:  -305.97316627936328
    Total Energy =                       -305.9731662793630562
    Molecular point group: c1
  Basis Set: CC-PVTZ
  Basis Set:
  Basis Set: CC-PVTZ
  Basis Set:
  @DF-RHF Final Energy:  -305.97224227152316
    Total Energy =                       -305.9722422715234416
  Basis Set: CC-PVTZ
  Basis Set:
  Basis Set: CC-PVTZ
  Basis Set:
  @DF-RHF Final Energy:  -305.97380329416399
    Total Energy =                       -305.9738032941638153
  Basis Set: CC-PVTZ
  Basis Set:
  Basis Set: CC-PVTZ
  Basis Set:
  @DF-RHF Final Energy:  -305.97400326867250
    Total Energy =                       -305.9740032686723907
  Basis Set: CC-PVTZ
  Basis Set:
  Basis Set: CC-PVTZ
  Basis Set:
  @DF-RHF Final Energy:  -305.97401502232560
    Total Energy =                       -305.9740150223254886
  Basis Set: CC-PVTZ
  Basis Set:
  Charge       = 0
  Multiplicity = 1
  Basis Set: CC-PVTZ
  Basis Set:

    Orbital Energies (a.u.)
    -----------------------

    Doubly Occupied:

       1A    -20.582558     2A    -20.543278     3A    -11.368009
       4A    -11.284896     5A    -11.240176     6A    -11.216777
       7A     -1.465003     8A     -1.368869     9A     -1.064789
      10A     -0.977269    11A     -0.887347    12A     -0.767671
      13A     -0.702706    14A     -0.679804    15A     -0.675202
      16A     -0.621142    17A     -0.613083    18A     -0.556360
      19A     -0.542253    20A     -0.523628    21A     -0.511234
      22A     -0.498119    23A     -0.458768    24A     -0.440165

  @DF-RHF Final Energy:  -305.97401581253320

   => Energetics <=

    Nuclear Repulsion Energy =            247.0939079318152949
    One-Electron Energy =                -906.9576364615929833
    Two-Electron Energy =                 353.8897127172446062
    DFT Exchange-Correlation Energy =       0.0000000000000000
    Empirical Dispersion Energy =           0.0000000000000000
    PCM Polarization Energy =               0.0000000000000000
    EFP Energy =                            0.0000000000000000
    Total Energy =                       -305.9740158125331391
    Molecular point group: c1
  Basis Set: CC-PVTZ
  Basis Set:

  -Total Gradient:
     Atom            X                  Y                   Z
    ------   -----------------  -----------------  -----------------
       1        0.000015323209    -0.000028437760    -0.000180797919
       2       -0.001848138753    -0.001843259702    -0.006843623684
       3        0.000325274611    -0.000346836845     0.006100136496
       4        0.004892365943     0.007234955997    -0.002448579908
       5        0.000013394888     0.000022101191     0.000015337262
       6        0.000022341493     0.000012282577     0.000013274429
       7       -0.000017244350    -0.000020668123    -0.000000125880
       8        0.000006193059     0.000002112235    -0.000001510223
       9        0.000001400434     0.000002777122     0.000003970282
      10       -0.000010385734    -0.000001576775    -0.000007076597
      11       -0.003457871417    -0.005032061016     0.003386516077
      12       -0.000006658851    -0.000015148200    -0.000002357201
      13        0.000005667029    -0.000010747930    -0.000035061753
      14        0.000058338437     0.000024507230    -0.000000101381

  **** Optimization is complete! (in 6 steps) ****
    Final optimized geometry and variables:
    Molecular point group: c1

    Geometry (in Angstrom), charge = 0, multiplicity = 1:

    O            0.129663991837     1.347689953888    -0.067225411874
    C            0.083365374315     0.175044227497    -0.175570807351
    C           -1.178638395779    -0.645556133619    -0.181215233587
    O            1.185680367651    -0.588865727449    -0.236202165235
    C           -2.451900750778     0.180317559903    -0.262677475528
    H           -1.110258218873    -1.359341898485    -0.994153955428
    H           -1.149013422368    -1.236427199459     0.730050712299
    H           -2.480913614020     0.758887160448    -1.176878648713
    H           -3.319645004057    -0.467586611636    -0.242480984747
    H           -2.520855522015     0.872176050559     0.565598608566
    C            2.094923363426    -0.482504205219     0.839068542615
    H            2.435473477474     0.535398622974     0.959443204470
    H            2.929231181910    -1.122184142199     0.601349491813
    H            1.632208438591    -0.823623844846     1.757887988003

  Mulliken Charges: (a.u.)
   Center  Symbol    Alpha    Beta     Spin     Total
       1     O     4.17859  4.17859  0.00000 -0.35718
       2     C     2.79490  2.79490  0.00000  0.41020
       3     C     3.09672  3.09672  0.00000 -0.19345
       4     O     4.16580  4.16580  0.00000 -0.33159
       5     C     3.13977  3.13977  0.00000 -0.27955
       6     H     0.43847  0.43847  0.00000  0.12305
       7     H     0.44626  0.44626  0.00000  0.10749
       8     H     0.44864  0.44864  0.00000  0.10272
       9     H     0.45042  0.45042  0.00000  0.09916
      10     H     0.44705  0.44705  0.00000  0.10591
      11     C     3.03496  3.03496  0.00000 -0.06992
      12     H     0.44714  0.44714  0.00000  0.10572
      13     H     0.44500  0.44500  0.00000  0.11000
      14     H     0.46628  0.46628  0.00000  0.06744

   Total alpha = 24.00000, Total beta = 24.00000, Total charge = -0.00000
