  ==> Input File <==

--------------------------------------------------------------------------
set {
	reference rhf
	basis 6-31G*
}

set_num_threads( 1 )
memory 2 gb

molecule MOL {
0 1

O	 -0.930882	 2.136812	 1.774024
C	 -0.869704	 1.985170	 0.591782
C	 0.367765	 1.386022	 -0.053198
C	 -2.023678	 2.348122	 -0.315954
C	 0.379448	 -0.143569	 0.099626
H	 1.234562	 1.806095	 0.445307
H	 0.418933	 1.654561	 -1.104528
C	 1.631333	 -0.777471	 -0.511575
H	 0.309354	 -0.378398	 1.155717
H	 -0.504466	 -0.566045	 -0.375722
C	 2.915987	 -0.544314	 0.291766
H	 1.766672	 -0.399098	 -1.523130
H	 1.471257	 -1.849544	 -0.605828
C	 3.373361	 0.914346	 0.347591
H	 3.708709	 -1.142521	 -0.150311
H	 2.780642	 -0.921148	 1.303579
H	 3.506512	 1.320010	 -0.651625
H	 4.322697	 0.999599	 0.867103
H	 2.660624	 1.545032	 0.868198
H	 -1.735532	 3.174481	 -0.960442
H	 -2.882647	 2.635778	 0.274141
H	 -2.282077	 1.513757	 -0.961608

	symmetry c1
}
set optking {
	frozen_dihedral = ("
		6 3 2 1,
		6 3 5 8,
		12 8 11 15
	")
}

ee = energy('scf')
oeprop('DIPOLE', 'QUADRUPOLE', 'MULLIKEN_CHARGES')
f=open( 'psi4out.xyz', 'w' )
f.write( "22  " )
f.write( str(ee) + "\n" )
f.write( MOL.save_string_xyz() )
f.close()
--------------------------------------------------------------------------

    Molecular point group: c1

    Geometry (in Angstrom), charge = 0, multiplicity = 1:

       Center              X                  Y                   Z               Mass
    ------------   -----------------  -----------------  -----------------  -----------------
           O         -1.538181833309     1.210784666101     1.490550741463    15.994914619560
           C         -1.477003833309     1.059142666101     0.308308741463    12.000000000000
           C         -0.239534833309     0.459994666101    -0.336671258537    12.000000000000
           C         -2.630977833309     1.422094666101    -0.599427258537    12.000000000000
           C         -0.227851833309    -1.069596333899    -0.183847258537    12.000000000000
           H          0.627262166691     0.880067666101     0.161833741463     1.007825032070
           H         -0.188366833309     0.728533666101    -1.388001258537     1.007825032070
           C          1.024033166691    -1.703498333899    -0.795048258537    12.000000000000
           H         -0.297945833309    -1.304425333899     0.872243741463     1.007825032070
           H         -1.111765833309    -1.492072333899    -0.659195258537     1.007825032070
           C          2.308687166691    -1.470341333899     0.008292741463    12.000000000000
           H          1.159372166691    -1.325125333899    -1.806603258537     1.007825032070
           H          0.863957166691    -2.775571333899    -0.889301258537     1.007825032070
           C          2.766061166691    -0.011681333899     0.064117741463    12.000000000000
           H          3.101409166691    -2.068548333899    -0.433784258537     1.007825032070
           H          2.173342166691    -1.847175333899     1.020105741463     1.007825032070
           H          2.899212166691     0.393982666101    -0.935098258537     1.007825032070
           H          3.715397166691     0.073571666101     0.583629741463     1.007825032070
           H          2.053324166691     0.619004666101     0.584724741463     1.007825032070
           H         -2.342831833309     2.248453666101    -1.243915258537     1.007825032070
           H         -3.489946833309     1.709750666101    -0.009332258537     1.007825032070
           H         -2.889376833309     0.587729666101    -1.245081258537     1.007825032070

  Charge       = 0
  Multiplicity = 1
  Basis Set: 6-31G*
  Basis Set:

    Orbital Energies (a.u.)
    -----------------------

    Doubly Occupied:

       1A    -20.546051     2A    -11.322712     3A    -11.229318
       4A    -11.226967     5A    -11.223890     6A    -11.222425
       7A    -11.220636     8A    -11.211225     9A     -1.391928
      10A     -1.099050    11A     -1.039464    12A     -0.997215
      13A     -0.947835    14A     -0.853900    15A     -0.786658
      16A     -0.734638    17A     -0.666248    18A     -0.651465
      19A     -0.626224    20A     -0.606703    21A     -0.597335
      22A     -0.587585    23A     -0.556432    24A     -0.551266
      25A     -0.537173    26A     -0.526064    27A     -0.497266
      28A     -0.485407    29A     -0.470659    30A     -0.464748
      31A     -0.447529    32A     -0.393464

  @DF-RHF Final Energy:  -348.08306620091787

   => Energetics <=

    Nuclear Repulsion Energy =            383.9652297045084879
    One-Electron Energy =               -1232.6576095124878520
    Two-Electron Energy =                 500.6093136070609262
    DFT Exchange-Correlation Energy =       0.0000000000000000
    Empirical Dispersion Energy =           0.0000000000000000
    PCM Polarization Energy =               0.0000000000000000
    EFP Energy =                            0.0000000000000000
    Total Energy =                       -348.0830662009184380

  Mulliken Charges: (a.u.)
   Center  Symbol    Alpha    Beta     Spin     Total
       1     O     4.26367  4.26367  0.00000 -0.52735
       2     C     2.73516  2.73516  0.00000  0.52969
       3     C     3.20226  3.20226  0.00000 -0.40451
       4     C     3.28937  3.28937  0.00000 -0.57875
       5     C     3.16335  3.16335  0.00000 -0.32670
       6     H     0.40158  0.40158  0.00000  0.19685
       7     H     0.41763  0.41763  0.00000  0.16475
       8     C     3.15610  3.15610  0.00000 -0.31219
       9     H     0.40602  0.40602  0.00000  0.18795
      10     H     0.41849  0.41849  0.00000  0.16303
      11     C     3.15222  3.15222  0.00000 -0.30445
      12     H     0.42355  0.42355  0.00000  0.15290
      13     H     0.41718  0.41718  0.00000  0.16565
      14     C     3.24648  3.24648  0.00000 -0.49295
      15     H     0.41898  0.41898  0.00000  0.16204
      16     H     0.41946  0.41946  0.00000  0.16109
      17     H     0.42225  0.42225  0.00000  0.15549
      18     H     0.41653  0.41653  0.00000  0.16693
      19     H     0.41492  0.41492  0.00000  0.17017
      20     H     0.40722  0.40722  0.00000  0.18557
      21     H     0.39758  0.39758  0.00000  0.20484
      22     H     0.41002  0.41002  0.00000  0.17996

   Total alpha = 32.00000, Total beta = 32.00000, Total charge =  0.00000
