                              Psi4 1.0.54 Driver

  ==> Input File <==

--------------------------------------------------------------------------
set {
	reference rhf
	basis cc-pvtz
}

set_num_threads( 4 )
memory 2 gb

molecule MOL {
0 1

H	 -3.643285	 -0.869372	 0.172113
O	 -3.515113	 -0.019339	 -0.206321
C	 -2.302264	 0.528872	 0.237390
C	 -1.175688	 -0.398187	 -0.171891
H	 -2.148018	 1.514076	 -0.197759
H	 -2.310727	 0.646384	 1.319032
C	 0.196029	 0.106276	 0.266738
H	 -1.201873	 -0.515469	 -1.250677
H	 -1.365975	 -1.378728	 0.252664
C	 1.330220	 -0.826136	 -0.155230
H	 0.359542	 1.097229	 -0.145561
H	 0.212134	 0.218135	 1.348778
C	 2.719700	 -0.407669	 0.328325
H	 1.339388	 -0.911200	 -1.239363
H	 1.119001	 -1.821953	 0.224128
C	 3.241564	 0.893452	 -0.276737
H	 3.418299	 -1.204729	 0.093035
H	 2.711776	 -0.323368	 1.411960
H	 3.254204	 0.841071	 -1.360784
H	 2.634460	 1.745075	 0.005842
H	 4.254264	 1.092401	 0.054971

	symmetry c1
}
set optking {
	frozen_dihedral = ("
		1 2 3 5
	")
}

ee,wfn = optimize('scf', return_wfn=True)
oeprop( wfn, 'DIPOLE', 'QUADRUPOLE', 'MULLIKEN_CHARGES')
f=open( 'psi4out.xyz', 'w' )
f.write( "21  " )
f.write( str(ee) + "\n" )
f.write( MOL.save_string_xyz() )
f.close()
--------------------------------------------------------------------------

    Molecular point group: c1
  Charge       = 0
  Multiplicity = 1
  Basis Set: CC-PVTZ
  Basis Set:
  @DF-RHF Final Energy:  -310.33103592773392
    Total Energy =                       -310.3310359277337511
    Molecular point group: c1
  Basis Set: CC-PVTZ
  Basis Set:
  Basis Set: CC-PVTZ
  Basis Set:
  @DF-RHF Final Energy:  -310.05391015249626
    Total Energy =                       -310.0539101524962575
  Basis Set: CC-PVTZ
  Basis Set:
  Basis Set: CC-PVTZ
  Basis Set:
  @DF-RHF Final Energy:  -310.20301126166231
    Total Energy =                       -310.2030112616621977
  Basis Set: CC-PVTZ
  Basis Set:
  Basis Set: CC-PVTZ
  Basis Set:
  @DF-RHF Final Energy:  -310.31327358010191
    Total Energy =                       -310.3132735801019635
  Basis Set: CC-PVTZ
  Basis Set:
  @DF-RHF Final Energy:  -310.33040301586112
    Total Energy =                       -310.3304030158611795
  Basis Set: CC-PVTZ
  Basis Set:
  @DF-RHF Final Energy:  -310.33254307694835
    Total Energy =                       -310.3325430769485820
  Basis Set: CC-PVTZ
  Basis Set:
  Basis Set: CC-PVTZ
  Basis Set:
  @DF-RHF Final Energy:  -310.33280447787081
    Total Energy =                       -310.3328044778710364
  Basis Set: CC-PVTZ
  Basis Set:
  Basis Set: CC-PVTZ
  Basis Set:
  @DF-RHF Final Energy:  -310.33281649270270
    Total Energy =                       -310.3328164927028183
  Basis Set: CC-PVTZ
  Basis Set:
  Charge       = 0
  Multiplicity = 1
  Basis Set: CC-PVTZ
  Basis Set:

    Orbital Energies (a.u.)
    -----------------------

    Doubly Occupied:

       1A    -20.545236     2A    -11.264656     3A    -11.216918
       4A    -11.215628     5A    -11.214964     6A    -11.214695
       7A    -11.207832     8A     -1.363369     9A     -1.090470
      10A     -1.036169    11A     -0.956443    12A     -0.880427
      13A     -0.820403    14A     -0.781628    15A     -0.692642
      16A     -0.650548    17A     -0.622307    18A     -0.609641
      19A     -0.596081    20A     -0.578289    21A     -0.539999
      22A     -0.535013    23A     -0.506286    24A     -0.492255
      25A     -0.484139    26A     -0.465065    27A     -0.459544
      28A     -0.458074    29A     -0.425287

  @DF-RHF Final Energy:  -310.33281641956000

   => Energetics <=

    Nuclear Repulsion Energy =            312.7451032926273911
    One-Electron Energy =               -1040.3078174015117838
    Two-Electron Energy =                 417.2298976893242752
    DFT Exchange-Correlation Energy =       0.0000000000000000
    Empirical Dispersion Energy =           0.0000000000000000
    PCM Polarization Energy =               0.0000000000000000
    EFP Energy =                            0.0000000000000000
    Total Energy =                       -310.3328164195601175
    Molecular point group: c1
  Basis Set: CC-PVTZ
  Basis Set:

  -Total Gradient:
     Atom            X                  Y                   Z
    ------   -----------------  -----------------  -----------------
       1        0.000131064014     0.000121930351    -0.000238455055
       2       -0.000145902899    -0.000105441361     0.000251258066
       3       -0.000096942042    -0.000054879760     0.000194324403
       4       -0.000009691575    -0.000008602481     0.000024069118
       5        0.000095718588     0.000021761633    -0.000220104026
       6        0.000006590066     0.000006179704     0.000004551975
       7       -0.000020284789    -0.000000349860    -0.000040569643
       8       -0.000006250725     0.000001310665     0.000005536768
       9       -0.000000086798    -0.000003474804    -0.000011037616
      10        0.000006610178     0.000045115258     0.000018792931
      11       -0.000029525530    -0.000048806950    -0.000025082494
      12        0.000020912559     0.000011509272     0.000012531554
      13       -0.000026003608     0.000005407787     0.000044465352
      14       -0.000020505372     0.000021794710     0.000003032322
      15        0.000004119915     0.000007455950    -0.000022708925
      16        0.000027114249    -0.000015209698     0.000001578170
      17        0.000020602576    -0.000019136571     0.000010204495
      18        0.000003669160     0.000008939340     0.000019371444
      19       -0.000005627541     0.000016171973    -0.000010429814
      20        0.000053686106    -0.000002149739    -0.000004303005
      21       -0.000009266536    -0.000009525422    -0.000017026020

  **** Optimization is complete! (in 9 steps) ****
    Final optimized geometry and variables:
    Molecular point group: c1

    Geometry (in Angstrom), charge = 0, multiplicity = 1:

    H           -3.498601873517    -1.494119914157    -0.381510554356
    O           -3.513064110911    -0.561985983431    -0.261711079466
    C           -2.340105471947    -0.145221378664     0.382756990829
    C           -1.081863073383    -0.494860378959    -0.395255192448
    H           -2.424764151908     0.928813236689     0.486720531276
    H           -2.287251103350    -0.563502843174     1.385886682709
    C            0.192436761174     0.000325777380     0.283107298888
    H           -1.162923080419    -0.071543280717    -1.391583429213
    H           -1.030023230032    -1.575222562456    -0.519587457932
    C            1.456830120042    -0.350668916881    -0.499017784303
    H            0.125318546424     1.075489813683     0.415759300852
    H            0.260871726073    -0.427487760880     1.280864279938
    C            2.766121918079     0.049571272631     0.183116407898
    H            1.409701178057     0.111607681572    -1.482190966007
    H            1.472058946972    -1.423597393290    -0.669883743398
    C            2.983560992538     1.555038751726     0.314507607116
    H            3.590084974530    -0.371961884282    -0.384372307399
    H            2.812082949985    -0.408591616418     1.167664004056
    H            2.933837821920     2.041596912450    -0.654387676625
    H            2.243105632161     2.018232355066     0.955357881464
    H            3.958144090708     1.766415546106     0.739307415536

  Mulliken Charges: (a.u.)
   Center  Symbol    Alpha    Beta     Spin     Total
       1     H     0.39512  0.39512  0.00000  0.20977
       2     O     4.20108  4.20108  0.00000 -0.40217
       3     C     2.96651  2.96651  0.00000  0.06698
       4     C     3.09449  3.09449  0.00000 -0.18898
       5     H     0.45512  0.45512  0.00000  0.08976
       6     H     0.47180  0.47180  0.00000  0.05641
       7     C     3.10287  3.10287  0.00000 -0.20574
       8     H     0.44864  0.44864  0.00000  0.10272
       9     H     0.46249  0.46249  0.00000  0.07503
      10     C     3.09411  3.09411  0.00000 -0.18823
      11     H     0.45065  0.45065  0.00000  0.09870
      12     H     0.45476  0.45476  0.00000  0.09047
      13     C     3.09027  3.09027  0.00000 -0.18055
      14     H     0.45274  0.45274  0.00000  0.09452
      15     H     0.44951  0.44951  0.00000  0.10099
      16     C     3.15228  3.15228  0.00000 -0.30456
      17     H     0.44828  0.44828  0.00000  0.10343
      18     H     0.45481  0.45481  0.00000  0.09038
      19     H     0.45449  0.45449  0.00000  0.09101
      20     H     0.45379  0.45379  0.00000  0.09242
      21     H     0.44619  0.44619  0.00000  0.10762

   Total alpha = 29.00000, Total beta = 29.00000, Total charge = -0.00000

*** Psi4 exiting successfully. Buy a developer a beer!
