                              Psi4 1.0.54 Driver

  ==> Input File <==

--------------------------------------------------------------------------
set {
	reference rhf
	basis cc-pvtz
}

set_num_threads( 4 )
memory 2 gb

molecule MOL {
0 1

H	 -3.162190	 0.493205	 -0.000107
C	 -2.363908	 -0.234727	 0.000005
O	 -1.158738	 0.454634	 -0.000087
H	 -2.464314	 -0.863616	 -0.882153
H	 -2.464327	 -0.863359	 0.882345
C	 -0.028611	 -0.359694	 0.000037
C	 0.104884	 -1.028527	 -1.353194
H	 -0.110136	 -1.112241	 0.784680
H	 0.860092	 0.234157	 0.214954
C	 1.323603	 -1.940958	 -1.434084
H	 -0.799105	 -1.594382	 -1.549508
H	 0.163462	 -0.258690	 -2.114686
H	 1.273419	 -2.734107	 -0.695516
H	 1.394473	 -2.405186	 -2.410041
H	 2.242426	 -1.389446	 -1.264772

	symmetry c1
}
set optking {
	frozen_dihedral = ("
		8 6 3 2
	")
}

ee,wfn = optimize('scf', return_wfn=True)
oeprop( wfn, 'DIPOLE', 'QUADRUPOLE', 'MULLIKEN_CHARGES')
f=open( 'psi4out.xyz', 'w' )
f.write( "15  " )
f.write( str(ee) + "\n" )
f.write( MOL.save_string_xyz() )
f.close()
--------------------------------------------------------------------------

    Molecular point group: c1
  Charge       = 0
  Multiplicity = 1
  Basis Set: CC-PVTZ
  Basis Set:
  @DF-RHF Final Energy:  -232.22171599864055
    Total Energy =                       -232.2217159986404340
    Molecular point group: c1
  Basis Set: CC-PVTZ
  Basis Set:
  Basis Set: CC-PVTZ
  Basis Set:
  @DF-RHF Final Energy:  -232.04670164461933
    Total Energy =                       -232.0467016446193043
  Basis Set: CC-PVTZ
  Basis Set:
  Basis Set: CC-PVTZ
  Basis Set:
  @DF-RHF Final Energy:  -232.16255157502314
    Total Energy =                       -232.1625515750230875
  Basis Set: CC-PVTZ
  Basis Set:
  Basis Set: CC-PVTZ
  Basis Set:
  @DF-RHF Final Energy:  -232.20023735499632
    Total Energy =                       -232.2002373549963750
  Basis Set: CC-PVTZ
  Basis Set:
  @DF-RHF Final Energy:  -232.22163831394332
    Total Energy =                       -232.2216383139432878
  Basis Set: CC-PVTZ
  Basis Set:
  @DF-RHF Final Energy:  -232.22510798138200
    Total Energy =                       -232.2251079813820525
  Basis Set: CC-PVTZ
  Basis Set:
  Basis Set: CC-PVTZ
  Basis Set:
  @DF-RHF Final Energy:  -232.22523251588066
    Total Energy =                       -232.2252325158805206
  Basis Set: CC-PVTZ
  Basis Set:
  Basis Set: CC-PVTZ
  Basis Set:
  @DF-RHF Final Energy:  -232.22524925077269
    Total Energy =                       -232.2252492507726060
  Basis Set: CC-PVTZ
  Basis Set:
  Charge       = 0
  Multiplicity = 1
  Basis Set: CC-PVTZ
  Basis Set:

    Orbital Energies (a.u.)
    -----------------------

    Doubly Occupied:

       1A    -20.545934     2A    -11.264274     3A    -11.260958
       4A    -11.215249     5A    -11.212922     6A     -1.378240
       7A     -1.057612     8A     -0.960150     9A     -0.883094
      10A     -0.805262    11A     -0.671051    12A     -0.659113
      13A     -0.636365    14A     -0.602968    15A     -0.565767
      16A     -0.532007    17A     -0.521311    18A     -0.498276
      19A     -0.484784    20A     -0.457229    21A     -0.409411

  @DF-RHF Final Energy:  -232.22525053986479

   => Energetics <=

    Nuclear Repulsion Energy =            191.7681919674895141
    One-Electron Energy =                -694.7429321703031064
    Two-Electron Energy =                 270.7494896629490313
    DFT Exchange-Correlation Energy =       0.0000000000000000
    Empirical Dispersion Energy =           0.0000000000000000
    PCM Polarization Energy =               0.0000000000000000
    EFP Energy =                            0.0000000000000000
    Total Energy =                       -232.2252505398645326
    Molecular point group: c1
  Basis Set: CC-PVTZ
  Basis Set:

  -Total Gradient:
     Atom            X                  Y                   Z
    ------   -----------------  -----------------  -----------------
       1        0.000010666463    -0.000029905109     0.000000281165
       2       -0.000064593886    -0.000142306283    -0.000428164424
       3        0.000398026350     0.000324431793     0.000683707676
       4       -0.000037367162    -0.000036818351    -0.000041388571
       5       -0.000014291595     0.000009461943     0.000027987400
       6       -0.000897551758    -0.000417963256    -0.000342062341
       7        0.000073380089     0.000018819912    -0.000021238796
       8        0.000557658236     0.000263249036     0.000088677323
       9        0.000019800608     0.000027984513     0.000001282577
      10       -0.000006849397    -0.000014239924     0.000013224273
      11       -0.000016505002    -0.000008885304     0.000006389809
      12       -0.000017597580     0.000021764015    -0.000007977678
      13        0.000006240718    -0.000024087381     0.000004036938
      14       -0.000016241067    -0.000006076945     0.000011682800
      15        0.000005224983     0.000014571345     0.000003561850

  **** Optimization is complete! (in 9 steps) ****
    Final optimized geometry and variables:
    Molecular point group: c1

    Geometry (in Angstrom), charge = 0, multiplicity = 1:

    H           -1.311840401732     2.751504984912     0.413526700722
    C           -1.137191071011     1.695458982835     0.561247825898
    O            0.111325335097     1.399651500149     0.026704484590
    H           -1.936804220128     1.145039291504     0.074827908674
    H           -1.172149270028     1.483887823876     1.628160444725
    C            0.595359420737     0.112561691012     0.265639869932
    C           -0.080499311173    -0.971865923614    -0.562305861436
    H            0.519802623298    -0.122663610942     1.327314947779
    H            1.649749539902     0.144443400439     0.020221026371
    C            0.573669234274    -2.334141176311    -0.354346404505
    H           -1.132655936762    -1.037160167207    -0.307024269887
    H           -0.027649519004    -0.688392023166    -1.608313155009
    H            0.518447363942    -2.643898667839     0.684102127129
    H            0.085028990112    -3.095272896052    -0.950292608048
    H            1.620663824506    -2.314705399138    -0.637531313691

  Mulliken Charges: (a.u.)
   Center  Symbol    Alpha    Beta     Spin     Total
       1     H     0.44477  0.44477  0.00000  0.11046
       2     C     3.03431  3.03431  0.00000 -0.06862
       3     O     4.17684  4.17684  0.00000 -0.35368
       4     H     0.47016  0.47016  0.00000  0.05967
       5     H     0.47269  0.47269  0.00000  0.05463
       6     C     2.97679  2.97679  0.00000  0.04641
       7     C     3.08826  3.08826  0.00000 -0.17652
       8     H     0.47191  0.47191  0.00000  0.05618
       9     H     0.44912  0.44912  0.00000  0.10177
      10     C     3.15276  3.15276  0.00000 -0.30552
      11     H     0.45667  0.45667  0.00000  0.08665
      12     H     0.45007  0.45007  0.00000  0.09986
      13     H     0.45532  0.45532  0.00000  0.08936
      14     H     0.44671  0.44671  0.00000  0.10659
      15     H     0.45362  0.45362  0.00000  0.09277

   Total alpha = 21.00000, Total beta = 21.00000, Total charge = -0.00000

*** Psi4 exiting successfully. Buy a developer a beer!
