  ==> Input File <==

--------------------------------------------------------------------------
set {
	reference rhf
	basis cc-pvtz
}

set_num_threads( 4 )
memory 2 gb

molecule MOL {
0 1

O	 1.487870	 -0.142240	 -0.706521
C	 0.576499	 0.134701	 -0.003900
C	 -0.765656	 -0.550508	 -0.002152
O	 0.617982	 1.112264	 0.886393
C	 -1.945526	 0.411052	 0.000603
H	 -0.794329	 -1.203792	 -0.868145
H	 -0.791555	 -1.205429	 0.862701
C	 -3.282915	 -0.321280	 0.002596
H	 -1.880300	 1.059126	 -0.864925
H	 -1.877207	 1.057892	 0.866807
H	 -3.388495	 -0.952755	 -0.873419
H	 -4.107811	 0.380864	 0.004116
H	 -3.385717	 -0.953283	 0.878571
C	 1.821801	 1.845964	 0.988940
H	 2.640438	 1.198224	 1.265202
H	 1.655354	 2.583892	 1.756694
H	 2.054904	 2.328804	 0.051619

	symmetry c1
}
set optking {
	frozen_dihedral = ("
		1 2 3 6
	")
}

ee = optimize('scf')
oeprop('DIPOLE', 'QUADRUPOLE', 'MULLIKEN_CHARGES')
f=open( 'psi4out.xyz', 'w' )
f.write( "17  " )
f.write( str(ee) + "\n" )
f.write( MOL.save_string_xyz() )
f.close()
--------------------------------------------------------------------------

    Molecular point group: c1
  Charge       = 0
  Multiplicity = 1
  Basis Set: CC-PVTZ
  Basis Set:
  @DF-RHF Final Energy:  -345.03335053246087
    Total Energy =                       -345.0333505324611565
    Molecular point group: c1
  Basis Set: CC-PVTZ
  Basis Set:
  Basis Set: CC-PVTZ
  Basis Set:
  @DF-RHF Final Energy:  -345.03202915462998
    Total Energy =                       -345.0320291546296403
  Basis Set: CC-PVTZ
  Basis Set:
  Basis Set: CC-PVTZ
  Basis Set:
  @DF-RHF Final Energy:  -345.03367219907437
    Total Energy =                       -345.0336721990742035
  Basis Set: CC-PVTZ
  Basis Set:
  Basis Set: CC-PVTZ
  Basis Set:
  @DF-RHF Final Energy:  -345.03382772247505
    Total Energy =                       -345.0338277224751664
  Basis Set: CC-PVTZ
  Basis Set:
  Basis Set: CC-PVTZ
  Basis Set:
  @DF-RHF Final Energy:  -345.03383011589762
    Total Energy =                       -345.0338301158976719
  Basis Set: CC-PVTZ
  Basis Set:
  Charge       = 0
  Multiplicity = 1
  Basis Set: CC-PVTZ
  Basis Set:

    Orbital Energies (a.u.)
    -----------------------

    Doubly Occupied:

       1A    -20.597761     2A    -20.532683     3A    -11.364254
       4A    -11.279151     5A    -11.233752     6A    -11.227674
       7A    -11.216100     8A     -1.472696     9A     -1.364937
      10A     -1.085143    11A     -0.999463    12A     -0.942975
      13A     -0.832113    14A     -0.776601    15A     -0.699150
      16A     -0.684484    17A     -0.676218    18A     -0.639199
      19A     -0.597479    20A     -0.577079    21A     -0.553592
      22A     -0.542826    23A     -0.526511    24A     -0.513093
      25A     -0.490117    26A     -0.482864    27A     -0.459560
      28A     -0.434650

  @DF-RHF Final Energy:  -345.03383063220144

   => Energetics <=

    Nuclear Repulsion Energy =            314.7661330524717869
    One-Electron Energy =               -1093.9956792347354622
    Two-Electron Energy =                 434.1957155500625163
    DFT Exchange-Correlation Energy =       0.0000000000000000
    Empirical Dispersion Energy =           0.0000000000000000
    PCM Polarization Energy =               0.0000000000000000
    EFP Energy =                            0.0000000000000000
    Total Energy =                       -345.0338306322011590
    Molecular point group: c1
  Basis Set: CC-PVTZ
  Basis Set:

  -Total Gradient:
     Atom            X                  Y                   Z
    ------   -----------------  -----------------  -----------------
       1        0.000247578618    -0.000507812191     0.000582926090
       2       -0.000420328427     0.000790009729    -0.000956623443
       3        0.000459026659    -0.000861235590     0.000749567857
       4        0.000011614889     0.000050890803     0.000041818228
       5        0.000026801036    -0.000034505279     0.000010075672
       6       -0.000298103047     0.000559136048    -0.000423940045
       7        0.000005236950    -0.000007900923     0.000006355393
       8       -0.000011914282     0.000009007799    -0.000009852124
       9       -0.000010917777    -0.000001759499     0.000001287663
      10        0.000000514508     0.000002862069     0.000000072219
      11        0.000000616871    -0.000000397149     0.000001210648
      12       -0.000006263346    -0.000001238081     0.000000199417
      13        0.000007993732     0.000004785370    -0.000001090554
      14       -0.000020538452    -0.000007838183    -0.000008213962
      15        0.000002655747     0.000000705233     0.000002016999
      16        0.000000293598     0.000001020608     0.000002435436
      17        0.000005732725     0.000004269238     0.000001754510

  **** Optimization is complete! (in 6 steps) ****
    Final optimized geometry and variables:
    Molecular point group: c1

    Geometry (in Angstrom), charge = 0, multiplicity = 1:

    O            1.653849031549    -0.509482731930    -0.888938989654
    C            0.756608495737    -0.212189036644    -0.175608291629
    C           -0.581671476420    -0.906381170861    -0.155611735095
    O            0.838219208352     0.756325175256     0.721111796808
    C           -1.788045952361     0.033305996593    -0.167102767441
    H           -0.601733839370    -1.566520326238    -1.010996789088
    H           -0.605657966898    -1.522707486191     0.738406104625
    C           -3.105838169956    -0.732775671057    -0.198589200655
    H           -1.727295503691     0.683598617706    -1.034396977929
    H           -1.756094505419     0.674339257382     0.704079349483
    H           -3.175128066012    -1.361683053292    -1.079471900666
    H           -3.948730733942    -0.052226863623    -0.210432684766
    H           -3.207976924004    -1.371240501905     0.672578777548
    C            2.063266685421     1.455635093429     0.810709393702
    H            2.867075946824     0.783544555837     1.071994273142
    H            1.928503164328     2.194068709058     1.584339897019
    H            2.296838782354     1.936350117826    -0.127526842851

  Mulliken Charges: (a.u.)
   Center  Symbol    Alpha    Beta     Spin     Total
       1     O     4.19934  4.19934  0.00000 -0.39869
       2     C     2.81118  2.81118  0.00000  0.37763
       3     C     3.07953  3.07953  0.00000 -0.15907
       4     O     4.14794  4.14794  0.00000 -0.29589
       5     C     3.08904  3.08904  0.00000 -0.17809
       6     H     0.43677  0.43677  0.00000  0.12646
       7     H     0.44766  0.44766  0.00000  0.10467
       8     C     3.15160  3.15160  0.00000 -0.30319
       9     H     0.45032  0.45032  0.00000  0.09936
      10     H     0.44342  0.44342  0.00000  0.11315
      11     H     0.45328  0.45328  0.00000  0.09345
      12     H     0.44612  0.44612  0.00000  0.10776
      13     H     0.45456  0.45456  0.00000  0.09088
      14     C     3.03618  3.03618  0.00000 -0.07237
      15     H     0.45316  0.45316  0.00000  0.09367
      16     H     0.44591  0.44591  0.00000  0.10819
      17     H     0.45396  0.45396  0.00000  0.09208

   Total alpha = 28.00000, Total beta = 28.00000, Total charge =  0.00000
