  ==> Input File <==

--------------------------------------------------------------------------
set {
	reference rhf
	basis 6-31G*
}

set_num_threads( 4 )
memory 2 gb

molecule MOL {
0 1

H	 1.739043	 1.964587	 -1.232165
O	 0.832453	 1.818787	 -1.003355
C	 0.702312	 0.627605	 -0.264544
C	 -0.714990	 0.596302	 0.266387
H	 1.401514	 0.612714	 0.567171
H	 0.889047	 -0.242095	 -0.890863
O	 -1.405996	 -0.526611	 -0.195820
H	 -1.257453	 1.468809	 -0.075599
H	 -0.688972	 0.618407	 1.353696
H	 -0.890587	 -1.292708	 0.022039

	symmetry c1
}
set optking {
	frozen_dihedral = ("
		5 3 4 7
	")
}

ee = optimize('scf')
oeprop('DIPOLE', 'QUADRUPOLE', 'MULLIKEN_CHARGES')
f=open( 'psi4out.xyz', 'w' )
f.write( "10  " )
f.write( str(ee) + "\n" )
f.write( MOL.save_string_xyz() )
f.close()
--------------------------------------------------------------------------

    Molecular point group: c1
  Charge       = 0
  Multiplicity = 1
  Basis Set: 6-31G*
  Basis Set:
  @DF-RHF Final Energy:  -228.91203924984913
    Total Energy =                       -228.9120392498491015
    Molecular point group: c1
  Basis Set: 6-31G*
  Basis Set:
  Basis Set: 6-31G*
  Basis Set:
  @DF-RHF Final Energy:  -228.91351147985901
    Total Energy =                       -228.9135114798589825
  Basis Set: 6-31G*
  Basis Set:
  Basis Set: 6-31G*
  Basis Set:
  @DF-RHF Final Energy:  -228.91413802969302
    Total Energy =                       -228.9141380296930492
  Basis Set: 6-31G*
  Basis Set:
  Basis Set: 6-31G*
  Basis Set:
  @DF-RHF Final Energy:  -228.91421595312943
    Total Energy =                       -228.9142159531294851
  Basis Set: 6-31G*
  Basis Set:
  Basis Set: 6-31G*
  Basis Set:
  @DF-RHF Final Energy:  -228.91421977551232
    Total Energy =                       -228.9142197755122652
  Basis Set: 6-31G*
  Basis Set:
  Charge       = 0
  Multiplicity = 1
  Basis Set: 6-31G*
  Basis Set:

    Orbital Energies (a.u.)
    -----------------------

    Doubly Occupied:

       1A    -20.558697     2A    -20.556870     3A    -11.272833
       4A    -11.269021     5A     -1.371529     6A     -1.357352
       7A     -0.994946     8A     -0.846611     9A     -0.711287
      10A     -0.697146    11A     -0.637688    12A     -0.593120
      13A     -0.581885    14A     -0.527620    15A     -0.487426
      16A     -0.442688    17A     -0.436067

  @DF-RHF Final Energy:  -228.91422000332966

   => Energetics <=

    Nuclear Repulsion Energy =            131.2184470225822679
    One-Electron Energy =                -573.5797565671266511
    Two-Electron Energy =                 213.4470895412147513
    DFT Exchange-Correlation Energy =       0.0000000000000000
    Empirical Dispersion Energy =           0.0000000000000000
    PCM Polarization Energy =               0.0000000000000000
    EFP Energy =                            0.0000000000000000
    Total Energy =                       -228.9142200033296319
    Molecular point group: c1
  Basis Set: 6-31G*
  Basis Set:

  -Total Gradient:
     Atom            X                  Y                   Z
    ------   -----------------  -----------------  -----------------
       1       -0.000016622938    -0.000018156299     0.000012291789
       2       -0.000006280622    -0.000004898353     0.000001880490
       3        0.000018159644    -0.001081306446    -0.000374279953
       4        0.000321718664    -0.000388493289     0.000866086582
       5       -0.000055605811     0.001001959736     0.000086024819
       6        0.000008315301    -0.000000103946     0.000008833191
       7       -0.000247965417     0.000491477860    -0.000615435690
       8       -0.000016705575    -0.000014319561    -0.000000723759
       9       -0.000011038262    -0.000000874556     0.000009994145
      10        0.000006025021     0.000014714854     0.000005328386

  **** Optimization is complete! (in 6 steps) ****
    Final optimized geometry and variables:
    Molecular point group: c1

    Geometry (in Angstrom), charge = 0, multiplicity = 1:

    H            1.858988196492     1.338219152405    -0.972792470586
    O            0.977596036069     1.253730428976    -0.637845953852
    C            0.848517374503     0.037662596153     0.053454354202
    C           -0.591471890711    -0.071127773357     0.570850901684
    H            1.560229898968     0.004556679508     0.876461067172
    H            1.046986792910    -0.804690544859    -0.603551765486
    O           -1.280683245836    -1.183916101420     0.063721949598
    H           -1.130862836680     0.800954128674     0.232752310774
    H           -0.612263189397    -0.076159281120     1.657579731762
    H           -0.973461437748    -1.972420044098     0.487819977241

  Mulliken Charges: (a.u.)
   Center  Symbol    Alpha    Beta     Spin     Total
       1     H     0.28024  0.28024  0.00000  0.43952
       2     O     4.37081  4.37081  0.00000 -0.74161
       3     C     3.00831  3.00831  0.00000 -0.01663
       4     C     3.01151  3.01151  0.00000 -0.02302
       5     H     0.43156  0.43156  0.00000  0.13688
       6     H     0.42239  0.42239  0.00000  0.15522
       7     O     4.36831  4.36831  0.00000 -0.73662
       8     H     0.39597  0.39597  0.00000  0.20807
       9     H     0.42769  0.42769  0.00000  0.14461
      10     H     0.28321  0.28321  0.00000  0.43357

   Total alpha = 17.00000, Total beta = 17.00000, Total charge = -0.00000
