                              Psi4 1.0.54 Driver

  ==> Input File <==

--------------------------------------------------------------------------
set {
	reference rhf
	basis cc-pvtz
}

set_num_threads( 4 )
memory 2 gb

molecule MOL {
0 1

O	 -2.081319	 -0.951530	 -0.502732
N	 -1.613558	 0.006676	 0.014756
C	 -0.329345	 -0.171618	 0.743966
O	 -2.068523	 1.100482	 -0.024385
C	 0.835904	 0.041968	 -0.213982
H	 -0.346048	 -1.174374	 1.137184
H	 -0.333613	 0.555559	 1.538590
C	 2.177039	 -0.130175	 0.494460
H	 0.754456	 -0.665923	 -1.030569
H	 0.765464	 1.037260	 -0.637266
C	 2.056375	 -0.941814	 1.779435
H	 2.593261	 0.846836	 0.721720
H	 2.879456	 -0.616793	 -0.175779
H	 1.385512	 -0.461871	 2.483208
H	 1.671673	 -1.935617	 1.579248
H	 3.020534	 -1.049960	 2.260956

	symmetry c1
}
set optking {
	frozen_dihedral = ("
		11 8 5 9
	")
}

ee,wfn = optimize('scf', return_wfn=True)
oeprop( wfn, 'DIPOLE', 'QUADRUPOLE', 'MULLIKEN_CHARGES')
f=open( 'psi4out.xyz', 'w' )
f.write( "16  " )
f.write( str(ee) + "\n" )
f.write( MOL.save_string_xyz() )
f.close()
--------------------------------------------------------------------------

    Molecular point group: c1
  Charge       = 0
  Multiplicity = 1
  Basis Set: CC-PVTZ
  Basis Set:
  @DF-RHF Final Energy:  -360.89870165066390
    Total Energy =                       -360.8987016506638383
    Molecular point group: c1
  Basis Set: CC-PVTZ
  Basis Set:
  Basis Set: CC-PVTZ
  Basis Set:
  @DF-RHF Final Energy:  -360.72997714257309
    Total Energy =                       -360.7299771425727499
  Basis Set: CC-PVTZ
  Basis Set:
  Basis Set: CC-PVTZ
  Basis Set:
  @DF-RHF Final Energy:  -360.85558363797628
    Total Energy =                       -360.8555836379763377
  Basis Set: CC-PVTZ
  Basis Set:
  Basis Set: CC-PVTZ
  Basis Set:
  @DF-RHF Final Energy:  -360.89931843623646
    Total Energy =                       -360.8993184362367401
  Basis Set: CC-PVTZ
  Basis Set:
  @DF-RHF Final Energy:  -360.90180590307904
    Total Energy =                       -360.9018059030793211
  @DF-RHF Final Energy:  -360.87561423086521
    Total Energy =                       -360.8756142308650396
  @DF-RHF Final Energy:  -360.88882830470163
    Total Energy =                       -360.8888283047016898
  @DF-RHF Final Energy:  -360.90084260905650
    Total Energy =                       -360.9008426090565536
  @DF-RHF Final Energy:  -360.90223579962606
    Total Energy =                       -360.9022357996258847
  Basis Set: CC-PVTZ
  Basis Set:
  @DF-RHF Final Energy:  -360.90227616348466
    Total Energy =                       -360.9022761634846006
  Basis Set: CC-PVTZ
  Basis Set:
  Basis Set: CC-PVTZ
  Basis Set:
  @DF-RHF Final Energy:  -360.90227842254058
    Total Energy =                       -360.9022784225403484
  Basis Set: CC-PVTZ
  Basis Set:
  Basis Set: CC-PVTZ
  Basis Set:
  @DF-RHF Final Energy:  -360.90227975044684
    Total Energy =                       -360.9022797504466666
  Basis Set: CC-PVTZ
  Basis Set:
  Charge       = 0
  Multiplicity = 1
  Basis Set: CC-PVTZ
  Basis Set:

    Orbital Energies (a.u.)
    -----------------------

    Doubly Occupied:

       1A    -20.589481     2A    -20.589402     3A    -15.835960
       4A    -11.296182     5A    -11.250480     6A    -11.241968
       7A    -11.229974     8A     -1.634888     9A     -1.419202
      10A     -1.135173    11A     -1.056371    12A     -0.952885
      13A     -0.857455    14A     -0.815500    15A     -0.761435
      16A     -0.737521    17A     -0.721930    18A     -0.673621
      19A     -0.619352    20A     -0.607180    21A     -0.577036
      22A     -0.555394    23A     -0.510439    24A     -0.502404
      25A     -0.490247    26A     -0.482173    27A     -0.472096
      28A     -0.451201

  @DF-RHF Final Energy:  -360.90228040472721

   => Energetics <=

    Nuclear Repulsion Energy =            316.8452024745758990
    One-Electron Energy =               -1119.3610644879177016
    Two-Electron Energy =                 441.6135816086142540
    DFT Exchange-Correlation Energy =       0.0000000000000000
    Empirical Dispersion Energy =           0.0000000000000000
    PCM Polarization Energy =               0.0000000000000000
    EFP Energy =                            0.0000000000000000
    Total Energy =                       -360.9022804047275486
    Molecular point group: c1
  Basis Set: CC-PVTZ
  Basis Set:

  -Total Gradient:
     Atom            X                  Y                   Z
    ------   -----------------  -----------------  -----------------
       1       -0.000039745466    -0.000122995624     0.000002057050
       2        0.000126968442    -0.000073885473     0.000012817958
       3        0.000149530314     0.000008486902     0.000054816979
       4       -0.000142144043     0.000180856665    -0.000064079215
       5       -0.001823700140    -0.001754372861     0.006662783509
       6       -0.000013847452     0.000001419633    -0.000010708834
       7       -0.000004243422     0.000007064888    -0.000000138836
       8        0.002318133844    -0.004907095995    -0.002682337686
       9        0.000938157836     0.002804174930    -0.004976775992
      10       -0.000009535437    -0.000012627230    -0.000003733657
      11       -0.001504327454     0.003885808797     0.001017612623
      12        0.000018405281    -0.000004015784     0.000004316844
      13       -0.000003022155    -0.000013862482    -0.000013037798
      14       -0.000014185861    -0.000000553756    -0.000005005209
      15        0.000006513117     0.000008185956     0.000003439319
      16       -0.000002957405    -0.000006588569    -0.000002027052

  **** Optimization is complete! (in 13 steps) ****
    Final optimized geometry and variables:
    Molecular point group: c1

    Geometry (in Angstrom), charge = 0, multiplicity = 1:

    O           -1.741626334580    -1.396660340168    -0.301302579385
    N           -1.473464948498    -0.248813370406    -0.176586127029
    C           -0.165871940931     0.080128004725     0.453658783206
    O           -2.148380908276     0.657710958642    -0.534371127061
    C            0.900404748722     0.144413691843    -0.632754675410
    H            0.018883626733    -0.700017126614     1.170822544592
    H           -0.304868903338     1.029943861437     0.941803913303
    C            2.305457156826     0.550454045992    -0.138252487408
    H            0.944887114233    -0.800985203173    -1.158787424617
    H            0.574170065327     0.867475973714    -1.370703354961
    C            2.618410196359     0.274295906270     1.331596533953
    H            2.434016586541     1.613880212498    -0.307654614507
    H            3.039309004163     0.056337341958    -0.762426030068
    H            1.965140453552     0.828016048254     1.995320715012
    H            2.530546593289    -0.778923151325     1.576351253035
    H            3.634390074339     0.575299188426     1.555091637956

  Mulliken Charges: (a.u.)
   Center  Symbol    Alpha    Beta     Spin     Total
       1     O     4.17421  4.17421  0.00000 -0.34842
       2     N     3.27436  3.27436  0.00000  0.45128
       3     C     3.04342  3.04342  0.00000 -0.08685
       4     O     4.17407  4.17407  0.00000 -0.34813
       5     C     3.11105  3.11105  0.00000 -0.22210
       6     H     0.43239  0.43239  0.00000  0.13523
       7     H     0.43258  0.43258  0.00000  0.13483
       8     C     3.09258  3.09258  0.00000 -0.18516
       9     H     0.43545  0.43545  0.00000  0.12910
      10     H     0.43550  0.43550  0.00000  0.12899
      11     C     3.15999  3.15999  0.00000 -0.31997
      12     H     0.44754  0.44754  0.00000  0.10493
      13     H     0.44405  0.44405  0.00000  0.11190
      14     H     0.45348  0.45348  0.00000  0.09304
      15     H     0.44955  0.44955  0.00000  0.10090
      16     H     0.43978  0.43978  0.00000  0.12044

   Total alpha = 28.00000, Total beta = 28.00000, Total charge = -0.00000

*** Psi4 exiting successfully. Buy a developer a beer!
