  ==> Input File <==

--------------------------------------------------------------------------
set {
	reference rhf
	basis 6-31G*
}

set_num_threads( 4 )
memory 2 gb

molecule MOL {
0 1

O	 -2.821601	 1.309235	 -0.001213
C	 -2.668563	 0.129746	 -0.000350
C	 -3.801572	 -0.864014	 -0.000442
O	 -1.481751	 -0.454642	 0.000584
H	 -4.417280	 -0.689587	 -0.874708
H	 -3.443784	 -1.883046	 -0.000565
H	 -4.417179	 -0.689832	 0.873954
C	 -0.334255	 0.388708	 0.000906
C	 0.891947	 -0.504646	 0.000751
H	 -0.365390	 1.025305	 -0.873475
H	 -0.365484	 1.024911	 0.875569
C	 2.191998	 0.301789	 0.000897
H	 0.855148	 -1.151283	 -0.871571
H	 0.855132	 -1.151660	 0.872805
C	 2.739915	 0.549248	 -1.405829
H	 2.026756	 1.258230	 0.493847
H	 2.943566	 -0.219795	 0.590964
C	 4.037693	 1.355869	 -1.405700
H	 1.990267	 1.070710	 -1.996742
H	 2.907802	 -0.405537	 -1.899054
H	 3.893581	 2.330727	 -0.948647
H	 4.400901	 1.514965	 -2.416148
H	 4.818091	 0.843251	 -0.850533

	symmetry c1
}
set optking {
	frozen_dihedral = ("
		16 12 9 13
	")
}

ee = optimize('scf')
oeprop('DIPOLE', 'QUADRUPOLE', 'MULLIKEN_CHARGES')
f=open( 'psi4out.xyz', 'w' )
f.write( "23  " )
f.write( str(ee) + "\n" )
f.write( MOL.save_string_xyz() )
f.close()
--------------------------------------------------------------------------

    Molecular point group: c1
  Charge       = 0
  Multiplicity = 1
  Basis Set: 6-31G*
  Basis Set:
  @DF-RHF Final Energy:  -422.97608804879764
    Total Energy =                       -422.9760880487967825
    Molecular point group: c1
  Basis Set: 6-31G*
  Basis Set:
  Basis Set: 6-31G*
  Basis Set:
  @DF-RHF Final Energy:  -422.97628326018662
    Total Energy =                       -422.9762832601861646
  Basis Set: 6-31G*
  Basis Set:
  Basis Set: 6-31G*
  Basis Set:
  @DF-RHF Final Energy:  -422.97633087494336
    Total Energy =                       -422.9763308749439830
  Basis Set: 6-31G*
  Basis Set:
  Basis Set: 6-31G*
  Basis Set:
  @DF-RHF Final Energy:  -422.97622392774554
    Total Energy =                       -422.9762239277451954
  Basis Set: 6-31G*
  Basis Set:
  Basis Set: 6-31G*
  Basis Set:
  @DF-RHF Final Energy:  -422.97635320184872
    Total Energy =                       -422.9763532018488377
  Basis Set: 6-31G*
  Basis Set:
  Charge       = 0
  Multiplicity = 1
  Basis Set: 6-31G*
  Basis Set:

    Orbital Energies (a.u.)
    -----------------------

    Doubly Occupied:

       1A    -20.602995     2A    -20.540629     3A    -11.374185
       4A    -11.281489     5A    -11.232429     6A    -11.224409
       7A    -11.223836     8A    -11.221674     9A    -11.212769
      10A     -1.468040    11A     -1.360819    12A     -1.093621
      13A     -1.041016    14A     -1.002683    15A     -0.930365
      16A     -0.845924    17A     -0.797312    18A     -0.778681
      19A     -0.688409    20A     -0.684804    21A     -0.672451
      22A     -0.633963    23A     -0.616156    24A     -0.586478
      25A     -0.578135    26A     -0.572033    27A     -0.561364
      28A     -0.530828    29A     -0.526475    30A     -0.505071
      31A     -0.495681    32A     -0.477823    33A     -0.469114
      34A     -0.462520    35A     -0.449382    36A     -0.435717

  @DF-RHF Final Energy:  -422.97635345272801

   => Energetics <=

    Nuclear Repulsion Energy =            454.3708144005686904
    One-Electron Energy =               -1476.3357760235635396
    Two-Electron Energy =                 598.9886081702662750
    DFT Exchange-Correlation Energy =       0.0000000000000000
    Empirical Dispersion Energy =           0.0000000000000000
    PCM Polarization Energy =               0.0000000000000000
    EFP Energy =                            0.0000000000000000
    Total Energy =                       -422.9763534527286311
    Molecular point group: c1
  Basis Set: 6-31G*
  Basis Set:

  -Total Gradient:
     Atom            X                  Y                   Z
    ------   -----------------  -----------------  -----------------
       1        0.000001593589    -0.000004138951    -0.000003964534
       2       -0.000003240526     0.000002419156     0.000010226479
       3        0.000001538763     0.000000271828     0.000004617887
       4       -0.000014247426    -0.000007626852    -0.000003838531
       5        0.000001401806    -0.000001703035    -0.000002649565
       6        0.000000511412    -0.000000091902    -0.000000772532
       7       -0.000000256414     0.000002606117    -0.000002238401
       8        0.000007910500    -0.000008290017     0.000005620141
       9        0.001365460117    -0.002152081633     0.001147650399
      10        0.000001933614     0.000008681507    -0.000003866946
      11        0.000006018146     0.000004190386    -0.000006777943
      12        0.000609763480    -0.000871806773     0.002551037304
      13       -0.001241155480     0.001946309393    -0.001381185339
      14        0.000009613565    -0.000001893637    -0.000000219426
      15       -0.000022046324     0.000010816526     0.000015683554
      16       -0.000728977568     0.001078484887    -0.002336670483
      17       -0.000001688844    -0.000000792820     0.000003374846
      18        0.000009176271    -0.000006768476     0.000003192759
      19       -0.000010699932    -0.000003867414    -0.000000406252
      20        0.000003455362     0.000003970843     0.000003568271
      21       -0.000000564792    -0.000002713406    -0.000002996551
      22        0.000002043730    -0.000001434909    -0.000002082934
      23        0.000002456953     0.000005459184     0.000002697798

  **** Optimization is complete! (in 6 steps) ****
    Final optimized geometry and variables:
    Molecular point group: c1

    Geometry (in Angstrom), charge = 0, multiplicity = 1:

    O           -2.646005271237     1.068566769201     0.318421019774
    C           -2.502641073834    -0.112053502383     0.302152098063
    C           -3.643532327920    -1.095892704233     0.261988912934
    O           -1.320862787753    -0.706416074276     0.317291924769
    H           -4.240343460590    -0.900797640770    -0.620963818308
    H           -3.294164797395    -2.117783185483     0.250808579674
    H           -4.274908174139    -0.931919905081     1.127069315559
    C           -0.166742767832     0.126614590268     0.356928419530
    C            1.053230954923    -0.778598822942     0.364103669802
    H           -0.177800028614     0.782837223692    -0.503189622536
    H           -0.208607888390     0.743474914207     1.244789313176
    C            2.364725345555     0.025281064362     0.322800434000
    H            0.988270022313    -1.433666051469    -0.499589728498
    H            1.011414415824    -1.406297763738     1.247997871090
    C            2.879218102182     0.277560918834    -1.098365943067
    H            2.219574945874     0.987915815637     0.810404334665
    H            3.132201518991    -0.494540817564     0.888548528507
    C            4.147937461442     1.128356151135    -1.127914369316
    H            2.105670709661     0.765494362440    -1.687460329191
    H            3.072720531738    -0.677435904549    -1.581399048451
    H            3.974982704317     2.106836424683    -0.688972402241
    H            4.496080537783     1.279188225664    -2.144876873286
    H            4.950637521897     0.653942073916    -0.570318995333

  Mulliken Charges: (a.u.)
   Center  Symbol    Alpha    Beta     Spin     Total
       1     O     4.28393  4.28393  0.00000 -0.56785
       2     C     2.61547  2.61547  0.00000  0.76906
       3     C     3.28778  3.28778  0.00000 -0.57557
       4     O     4.31237  4.31237  0.00000 -0.62474
       5     H     0.39750  0.39750  0.00000  0.20499
       6     H     0.39986  0.39986  0.00000  0.20029
       7     H     0.39748  0.39748  0.00000  0.20503
       8     C     2.99873  2.99873  0.00000  0.00255
       9     C     3.16611  3.16611  0.00000 -0.33223
      10     H     0.41030  0.41030  0.00000  0.17939
      11     H     0.41035  0.41035  0.00000  0.17931
      12     C     3.16393  3.16393  0.00000 -0.32787
      13     H     0.41271  0.41271  0.00000  0.17458
      14     H     0.41168  0.41168  0.00000  0.17663
      15     C     3.15320  3.15320  0.00000 -0.30641
      16     H     0.42040  0.42040  0.00000  0.15920
      17     H     0.41608  0.41608  0.00000  0.16784
      18     C     3.24004  3.24004  0.00000 -0.48008
      19     H     0.42187  0.42187  0.00000  0.15626
      20     H     0.42081  0.42081  0.00000  0.15838
      21     H     0.42049  0.42049  0.00000  0.15901
      22     H     0.41776  0.41776  0.00000  0.16447
      23     H     0.42112  0.42112  0.00000  0.15775

   Total alpha = 36.00000, Total beta = 36.00000, Total charge = -0.00000
