  ==> Input File <==

--------------------------------------------------------------------------
set {
	reference rhf
	basis 6-31G*
}

set_num_threads( 4 )
memory 2 gb

molecule MOL {
0 1

H	 -3.420663	 1.227371	 -1.044276
O	 -3.452007	 0.283848	 -0.965577
C	 -3.181085	 -0.079926	 0.364119
C	 -1.765924	 0.277073	 0.805136
H	 -3.327791	 -1.152017	 0.410903
H	 -3.905698	 0.375695	 1.036898
C	 -0.677594	 -0.417312	 -0.014550
H	 -1.637766	 1.358238	 0.744969
H	 -1.659588	 0.017670	 1.857098
C	 0.738335	 -0.034840	 0.421385
H	 -0.814977	 -0.178223	 -1.064632
H	 -0.802730	 -1.495410	 0.071702
C	 1.822265	 -0.738362	 -0.399735
H	 0.853533	 1.043532	 0.342250
H	 0.871597	 -0.279636	 1.474438
C	 3.258060	 -0.455774	 0.057203
H	 1.718003	 -0.459167	 -1.447053
H	 1.651028	 -1.811884	 -0.354513
C	 3.371208	 0.512024	 1.236597
H	 3.812489	 -0.046010	 -0.783625
H	 3.745562	 -1.394606	 0.312427
H	 2.881027	 1.456266	 1.014634
H	 4.411689	 0.725909	 1.461294
H	 2.920748	 0.109194	 2.137695

	symmetry c1
}
set optking {
	frozen_dihedral = ("
		20 16 13 17
	")
}

ee = optimize('scf')
oeprop('DIPOLE', 'QUADRUPOLE', 'MULLIKEN_CHARGES')
f=open( 'psi4out.xyz', 'w' )
f.write( "24  " )
f.write( str(ee) + "\n" )
f.write( MOL.save_string_xyz() )
f.close()
--------------------------------------------------------------------------

    Molecular point group: c1
  Charge       = 0
  Multiplicity = 1
  Basis Set: 6-31G*
  Basis Set:
  @DF-RHF Final Energy:  -349.23709026099522
    Total Energy =                       -349.2370902609955010
    Molecular point group: c1
  Basis Set: 6-31G*
  Basis Set:
  Basis Set: 6-31G*
  Basis Set:
  @DF-RHF Final Energy:  -349.23728873314064
    Total Energy =                       -349.2372887331407583
  Basis Set: 6-31G*
  Basis Set:
  Basis Set: 6-31G*
  Basis Set:
  @DF-RHF Final Energy:  -349.23909095579313
    Total Energy =                       -349.2390909557930172
  Basis Set: 6-31G*
  Basis Set:
  Basis Set: 6-31G*
  Basis Set:
  @DF-RHF Final Energy:  -349.23918862936569
    Total Energy =                       -349.2391886293657990
  Basis Set: 6-31G*
  Basis Set:
  @DF-RHF Final Energy:  -349.23920881724933
    Total Energy =                       -349.2392088172488229
  Basis Set: 6-31G*
  Basis Set:
  @DF-RHF Final Energy:  -349.23922969705552
    Total Energy =                       -349.2392296970552934
  Basis Set: 6-31G*
  Basis Set:
  Basis Set: 6-31G*
  Basis Set:
  @DF-RHF Final Energy:  -349.23923101984332
    Total Energy =                       -349.2392310198436007
  Basis Set: 6-31G*
  Basis Set:
  Basis Set: 6-31G*
  Basis Set:
  @DF-RHF Final Energy:  -349.23923225646143
    Total Energy =                       -349.2392322564617189
  Basis Set: 6-31G*
  Basis Set:
  Charge       = 0
  Multiplicity = 1
  Basis Set: 6-31G*
  Basis Set:

    Orbital Energies (a.u.)
    -----------------------

    Doubly Occupied:

       1A    -20.553526     2A    -11.267639     3A    -11.217350
       4A    -11.214315     5A    -11.212421     6A    -11.211736
       7A    -11.210888     8A    -11.207399     9A     -1.360118
      10A     -1.086450    11A     -1.045256    12A     -0.985230
      13A     -0.915007    14A     -0.854186    15A     -0.802092
      16A     -0.768497    17A     -0.678977    18A     -0.656632
      19A     -0.628271    20A     -0.617240    21A     -0.589865
      22A     -0.586893    23A     -0.552966    24A     -0.544763
      25A     -0.514210    26A     -0.510057    27A     -0.501798
      28A     -0.472404    29A     -0.468579    30A     -0.458133
      31A     -0.452501    32A     -0.443557    33A     -0.419083

  @DF-RHF Final Energy:  -349.23923277959659

   => Energetics <=

    Nuclear Repulsion Energy =            385.0017991131043118
    One-Electron Energy =               -1236.4659928295345708
    Two-Electron Energy =                 502.2249609368334404
    DFT Exchange-Correlation Energy =       0.0000000000000000
    Empirical Dispersion Energy =           0.0000000000000000
    PCM Polarization Energy =               0.0000000000000000
    EFP Energy =                            0.0000000000000000
    Total Energy =                       -349.2392327795968185
    Molecular point group: c1
  Basis Set: 6-31G*
  Basis Set:

  -Total Gradient:
     Atom            X                  Y                   Z
    ------   -----------------  -----------------  -----------------
       1        0.000000139200    -0.000000565196    -0.000000148575
       2        0.000003803603    -0.000002505542    -0.000001479242
       3       -0.000003522337     0.000009292726     0.000001949070
       4       -0.000004134633    -0.000003801529    -0.000001140706
       5        0.000001090280     0.000001394673     0.000001079492
       6       -0.000002801119     0.000000641147    -0.000000210293
       7       -0.000001619291    -0.000006903583     0.000007056432
       8        0.000002011851    -0.000000449465     0.000003510318
       9       -0.000002583206    -0.000003833183    -0.000000333173
      10        0.000007258472     0.000009995851    -0.000025913294
      11        0.000003016928    -0.000006022947     0.000001079871
      12       -0.000000270420    -0.000000516198    -0.000000399709
      13       -0.000013928799     0.000015043229     0.000007368091
      14        0.000007910339     0.000003880537     0.000006806752
      15        0.000000803707    -0.000006378142    -0.000005774688
      16        0.000011180362    -0.000011634521    -0.000003583053
      17       -0.000010547556    -0.000009986342     0.000000377575
      18       -0.000008765567    -0.000000602094     0.000002638465
      19        0.000006401556    -0.000004691548    -0.000008863284
      20        0.000003701264     0.000015718363     0.000010794455
      21        0.000005344668     0.000007268767     0.000007234548
      22       -0.000001375475    -0.000003713496    -0.000001870607
      23        0.000002178583     0.000001007753     0.000001194363
      24       -0.000005292395    -0.000002639261    -0.000001372808

  **** Optimization is complete! (in 9 steps) ****
    Final optimized geometry and variables:
    Molecular point group: c1

    Geometry (in Angstrom), charge = 0, multiplicity = 1:

    H           -3.371218775281     1.306643386896    -1.244449589438
    O           -3.404217339960     0.361593972777    -1.188461886224
    C           -3.171047003569    -0.032641665122     0.139738824394
    C           -1.769201387716     0.314093302043     0.628950740212
    H           -3.318237387044    -1.105448458259     0.157543082760
    H           -3.914849329738     0.407258115214     0.801893507682
    C           -0.657610342682    -0.360497135998    -0.176062023038
    H           -1.640460665254     1.396396751588     0.597903891499
    H           -1.692517322046     0.030005362201     1.677098171716
    C            0.744987691786     0.017609025055     0.305258308768
    H           -0.768896242605    -0.100777338258    -1.224277954014
    H           -0.781670422190    -1.440497458600    -0.114791502419
    C            1.840890741005    -0.676946667495    -0.510728864489
    H            0.861300382128     1.096966910320     0.243070088479
    H            0.842066940390    -0.240798986465     1.356992904118
    C            3.316746190410    -0.373602606446    -0.124752540697
    H            1.691835585596    -0.421282369933    -1.556431420187
    H            1.675576978727    -1.749327577883    -0.448308133151
    C            3.551856774204     0.594876741032     1.038458350418
    H            3.833323395987     0.018725879081    -0.995890776246
    H            3.816308946711    -1.308372118079     0.112506310916
    H            3.137594980123     1.577947274017     0.840726382124
    H            4.617856864379     0.718758236678     1.204059165675
    H            3.119240283734     0.232171997564     1.964958002590

  Mulliken Charges: (a.u.)
   Center  Symbol    Alpha    Beta     Spin     Total
       1     H     0.28340  0.28340  0.00000  0.43320
       2     O     4.36830  4.36830  0.00000 -0.73660
       3     C     2.99613  2.99613  0.00000  0.00774
       4     C     3.16886  3.16886  0.00000 -0.33772
       5     H     0.41634  0.41634  0.00000  0.16732
       6     H     0.42818  0.42818  0.00000  0.14364
       7     C     3.15216  3.15216  0.00000 -0.30433
       8     H     0.42834  0.42834  0.00000  0.14332
       9     H     0.42243  0.42243  0.00000  0.15514
      10     C     3.15394  3.15394  0.00000 -0.30787
      11     H     0.41213  0.41213  0.00000  0.17574
      12     H     0.42367  0.42367  0.00000  0.15265
      13     C     3.15646  3.15646  0.00000 -0.31292
      14     H     0.42382  0.42382  0.00000  0.15236
      15     H     0.42371  0.42371  0.00000  0.15259
      16     C     3.15545  3.15545  0.00000 -0.31089
      17     H     0.42072  0.42072  0.00000  0.15856
      18     H     0.42122  0.42122  0.00000  0.15757
      19     C     3.24151  3.24151  0.00000 -0.48302
      20     H     0.42063  0.42063  0.00000  0.15874
      21     H     0.42067  0.42067  0.00000  0.15865
      22     H     0.42125  0.42125  0.00000  0.15749
      23     H     0.41961  0.41961  0.00000  0.16078
      24     H     0.42107  0.42107  0.00000  0.15787

   Total alpha = 33.00000, Total beta = 33.00000, Total charge =  0.00000
