  ==> Input File <==

--------------------------------------------------------------------------
set {
	reference rhf
	basis 6-31G*
}

set_num_threads( 4 )
memory 2 gb

molecule MOL {
0 1

O	 2.392142	 2.085908	 0.205600
C	 1.352584	 2.474896	 0.642367
C	 0.096700	 1.622051	 0.623725
C	 1.219064	 3.856891	 1.248517
C	 0.291004	 0.242674	 0.000989
H	 -0.261976	 1.534737	 1.648477
H	 -0.675915	 2.178105	 0.094318
C	 -0.994322	 -0.586602	 0.000262
H	 1.070553	 -0.284982	 0.541371
H	 0.655924	 0.359043	 -1.014609
C	 -2.259874	 0.272531	 0.000494
H	 -1.004862	 -1.240012	 -0.870939
H	 -1.005220	 -1.241071	 0.870675
C	 -3.549786	 -0.549746	 -0.000374
H	 -2.250389	 0.926680	 -0.869574
H	 -2.250838	 0.925513	 0.871430
C	 -4.809590	 0.315458	 -0.000369
H	 -3.560515	 -1.202009	 -0.871156
H	 -3.561123	 -1.202955	 0.869711
H	 -4.844746	 0.956611	 -0.876632
H	 -5.706986	 -0.295590	 -0.001609
H	 -4.845960	 0.954827	 0.877144
H	 0.888423	 3.787677	 2.280750
H	 2.171632	 4.366604	 1.208019
H	 0.474784	 4.436274	 0.710003

	symmetry c1
}
set optking {
	frozen_dihedral = ("
		9 5 8 12
	")
}

ee = optimize('scf')
oeprop('DIPOLE', 'QUADRUPOLE', 'MULLIKEN_CHARGES')
f=open( 'psi4out.xyz', 'w' )
f.write( "25  " )
f.write( str(ee) + "\n" )
f.write( MOL.save_string_xyz() )
f.close()
--------------------------------------------------------------------------

    Molecular point group: c1
  Charge       = 0
  Multiplicity = 1
  Basis Set: 6-31G*
  Basis Set:
  @DF-RHF Final Energy:  -387.12632533849427
    Total Energy =                       -387.1263253384942118
    Molecular point group: c1
  Basis Set: 6-31G*
  Basis Set:
  Basis Set: 6-31G*
  Basis Set:
  @DF-RHF Final Energy:  -387.12677759569260
    Total Energy =                       -387.1267775956921469
  Basis Set: 6-31G*
  Basis Set:
  Basis Set: 6-31G*
  Basis Set:
  @DF-RHF Final Energy:  -387.12948376670664
    Total Energy =                       -387.1294837667069260
  Basis Set: 6-31G*
  Basis Set:
  Basis Set: 6-31G*
  Basis Set:
  @DF-RHF Final Energy:  -387.12982246648869
    Total Energy =                       -387.1298224664891450
  Basis Set: 6-31G*
  Basis Set:
  @DF-RHF Final Energy:  -387.12955053895536
    Total Energy =                       -387.1295505389550726
  @DF-RHF Final Energy:  -387.12933331516905
    Total Energy =                       -387.1293333151693332
  @DF-RHF Final Energy:  -387.12983824555965
    Total Energy =                       -387.1298382455605633
  @DF-RHF Final Energy:  -387.12983556101682
    Total Energy =                       -387.1298355610167619
  Basis Set: 6-31G*
  Basis Set:
  @DF-RHF Final Energy:  -387.12986692942849
    Total Energy =                       -387.1298669294294541
  Basis Set: 6-31G*
  Basis Set:
  Basis Set: 6-31G*
  Basis Set:
  @DF-RHF Final Energy:  -387.12986805521138
    Total Energy =                       -387.1298680552115457
  Basis Set: 6-31G*
  Basis Set:
  Basis Set: 6-31G*
  Basis Set:
  @DF-RHF Final Energy:  -387.12986915064272
    Total Energy =                       -387.1298691506428895
  Basis Set: 6-31G*
  Basis Set:
  Charge       = 0
  Multiplicity = 1
  Basis Set: 6-31G*
  Basis Set:

    Orbital Energies (a.u.)
    -----------------------

    Doubly Occupied:

       1A    -20.550154     2A    -11.325888     3A    -11.230902
       4A    -11.228027     5A    -11.217784     6A    -11.217572
       7A    -11.217138     8A    -11.216763     9A    -11.211127
      10A     -1.395484    11A     -1.093588    12A     -1.055239
      13A     -1.013591    14A     -0.967497    15A     -0.899354
      16A     -0.817268    17A     -0.786144    18A     -0.727438
      19A     -0.660854    20A     -0.654235    21A     -0.633527
      22A     -0.620887    23A     -0.596873    24A     -0.582920
      25A     -0.567756    26A     -0.562718    27A     -0.542918
      28A     -0.526320    29A     -0.521091    30A     -0.493255
      31A     -0.489502    32A     -0.477583    33A     -0.458915
      34A     -0.457606    35A     -0.445900    36A     -0.400581

  @DF-RHF Final Energy:  -387.12986925474809

   => Energetics <=

    Nuclear Repulsion Energy =            446.1204569939520752
    One-Electron Energy =               -1408.7718570257970896
    Two-Electron Energy =                 575.5215307770974960
    DFT Exchange-Correlation Energy =       0.0000000000000000
    Empirical Dispersion Energy =           0.0000000000000000
    PCM Polarization Energy =               0.0000000000000000
    EFP Energy =                            0.0000000000000000
    Total Energy =                       -387.1298692547475184
    Molecular point group: c1
  Basis Set: 6-31G*
  Basis Set:

  -Total Gradient:
     Atom            X                  Y                   Z
    ------   -----------------  -----------------  -----------------
       1       -0.000004955964    -0.000013682474     0.000015904560
       2       -0.000010715367     0.000024115350    -0.000037087066
       3       -0.000002784947    -0.000000012944     0.000010662076
       4       -0.000003158693     0.000003054482    -0.000004663029
       5        0.001361763336    -0.002687108147    -0.007332671900
       6       -0.000009257441    -0.000002463832    -0.000001616876
       7        0.000007545875     0.000007708090    -0.000002081363
       8        0.003332857063    -0.004700469856     0.005270005877
       9       -0.001639534216     0.002951804117     0.005397298779
      10       -0.000007269294    -0.000004263770     0.000005383246
      11        0.000003020371     0.000006578326     0.000006128963
      12       -0.003036609643     0.004410323567    -0.003350871935
      13        0.000001087443     0.000003887020    -0.000002527434
      14       -0.000002918287     0.000001938366     0.000013654452
      15       -0.000002800160     0.000000728325    -0.000000567827
      16        0.000004282214     0.000004204589     0.000003696326
      17        0.000001828751     0.000000560971    -0.000010113772
      18        0.000002216903    -0.000001307378     0.000002246651
      19        0.000000481336     0.000003128588     0.000003417224
      20       -0.000000557556     0.000004248631     0.000000490672
      21        0.000001584411    -0.000000713535    -0.000004171816
      22        0.000000780436    -0.000004206139     0.000001370420
      23        0.000004035690    -0.000002634971     0.000006587410
      24        0.000000854540    -0.000002630336     0.000002429415
      25       -0.000001776811    -0.000002787042     0.000007096947

  **** Optimization is complete! (in 12 steps) ****
    Final optimized geometry and variables:
    Molecular point group: c1

    Geometry (in Angstrom), charge = 0, multiplicity = 1:

    O            3.162148442888     0.929341532636    -0.121340162486
    C            2.163468117727     1.390067866141     0.340505484508
    C            0.843677638273     0.638144471020     0.340742960872
    C            2.147994345530     2.772012457713     0.961894795184
    C            0.934688366535    -0.746486426602    -0.304703858496
    H            0.508648532094     0.563871355600     1.374439742227
    H            0.110541207379     1.267953763166    -0.156916890181
    C           -0.359465571813    -1.586971804641    -0.238655701106
    H            1.720312664172    -1.273801682757     0.224168070034
    H            1.260567311161    -0.631889670640    -1.331646480523
    C           -1.679280986987    -0.805627769367    -0.283474070135
    H           -0.370080305541    -2.248356515999    -1.101167604051
    H           -0.350716456727    -2.211580924655     0.650407601740
    C           -2.901317900146    -1.725255294417    -0.335071123951
    H           -1.689195967564    -0.154376619178    -1.156477478373
    H           -1.767052261562    -0.156531445195     0.584375074364
    C           -4.223979865917    -0.960433422789    -0.371120937452
    H           -2.832514389242    -2.367597966154    -1.210226353749
    H           -2.890413823135    -2.386210229073     0.529133580366
    H           -4.279535034404    -0.313713292030    -1.242326631697
    H           -5.070159045181    -1.639414391126    -0.409536433408
    H           -4.340992054766    -0.336512147507     0.510607695547
    H            1.827279550463     2.718629669662     1.998176320604
    H            3.137234280915     3.205312500849     0.911950729019
    H            1.444646832306     3.414033475922     0.439644695062

  Mulliken Charges: (a.u.)
   Center  Symbol    Alpha    Beta     Spin     Total
       1     O     4.26119  4.26119  0.00000 -0.52237
       2     C     2.73568  2.73568  0.00000  0.52865
       3     C     3.21465  3.21465  0.00000 -0.42931
       4     C     3.28628  3.28628  0.00000 -0.57257
       5     C     3.15003  3.15003  0.00000 -0.30006
       6     H     0.41033  0.41033  0.00000  0.17934
       7     H     0.40788  0.40788  0.00000  0.18423
       8     C     3.15592  3.15592  0.00000 -0.31183
       9     H     0.40940  0.40940  0.00000  0.18120
      10     H     0.41123  0.41123  0.00000  0.17755
      11     C     3.15604  3.15604  0.00000 -0.31208
      12     H     0.41904  0.41904  0.00000  0.16191
      13     H     0.42104  0.42104  0.00000  0.15792
      14     C     3.15085  3.15085  0.00000 -0.30170
      15     H     0.42448  0.42448  0.00000  0.15105
      16     H     0.42456  0.42456  0.00000  0.15087
      17     C     3.23917  3.23917  0.00000 -0.47833
      18     H     0.42219  0.42219  0.00000  0.15561
      19     H     0.42274  0.42274  0.00000  0.15452
      20     H     0.42189  0.42189  0.00000  0.15622
      21     H     0.41865  0.41865  0.00000  0.16271
      22     H     0.42247  0.42247  0.00000  0.15506
      23     H     0.40903  0.40903  0.00000  0.18194
      24     H     0.39658  0.39658  0.00000  0.20683
      25     H     0.40868  0.40868  0.00000  0.18264

   Total alpha = 36.00000, Total beta = 36.00000, Total charge =  0.00000
