                              Psi4 1.0.54 Driver

  ==> Input File <==

--------------------------------------------------------------------------
set {
	reference rhf
	basis cc-pvtz
}

set_num_threads( 4 )
memory 2 gb

molecule MOL {
0 1

H	 3.889604	 0.356866	 -0.089510
N	 3.091268	 -0.241216	 -0.065538
C	 1.860978	 0.530248	 0.016256
H	 3.192566	 -0.835836	 0.730398
C	 0.644130	 -0.381765	 -0.031064
H	 1.835721	 1.204666	 -0.833114
H	 1.808789	 1.151975	 0.911067
C	 -0.678115	 0.376691	 0.025731
H	 0.693998	 -0.977147	 -0.936845
H	 0.693309	 -1.082142	 0.800523
C	 -1.878552	 -0.521811	 0.310069
H	 -0.836357	 0.894480	 -0.917566
H	 -0.621960	 1.148655	 0.789792
C	 -3.199189	 0.239194	 0.359682
H	 -1.936160	 -1.294059	 -0.451907
H	 -1.724674	 -1.037530	 1.254064
H	 -3.399108	 0.738021	 -0.582892
H	 -4.029556	 -0.427255	 0.563010
H	 -3.185711	 0.996847	 1.136287

	symmetry c1
}
set optking {
	frozen_dihedral = ("
		12 8 5 9
	")
}

ee,wfn = optimize('scf', return_wfn=True)
oeprop( wfn, 'DIPOLE', 'QUADRUPOLE', 'MULLIKEN_CHARGES')
f=open( 'psi4out.xyz', 'w' )
f.write( "19  " )
f.write( str(ee) + "\n" )
f.write( MOL.save_string_xyz() )
f.close()
--------------------------------------------------------------------------

    Molecular point group: c1
  Charge       = 0
  Multiplicity = 1
  Basis Set: CC-PVTZ
  Basis Set:
  @DF-RHF Final Energy:  -251.44751850862400
    Total Energy =                       -251.4475185086240572
    Molecular point group: c1
  Basis Set: CC-PVTZ
  Basis Set:
  Basis Set: CC-PVTZ
  Basis Set:
  @DF-RHF Final Energy:  -251.44758507783629
    Total Energy =                       -251.4475850778362087
  Basis Set: CC-PVTZ
  Basis Set:
  Basis Set: CC-PVTZ
  Basis Set:
  @DF-RHF Final Energy:  -251.44762010249940
    Total Energy =                       -251.4476201024995703
  Basis Set: CC-PVTZ
  Basis Set:
  Charge       = 0
  Multiplicity = 1
  Basis Set: CC-PVTZ
  Basis Set:

    Orbital Energies (a.u.)
    -----------------------

    Doubly Occupied:

       1A    -15.526340     2A    -11.237791     3A    -11.211874
       4A    -11.210465     5A    -11.207672     6A    -11.205411
       7A     -1.178104     8A     -1.074149     9A     -0.999507
      10A     -0.900889    11A     -0.813190    12A     -0.789477
      13A     -0.665930    14A     -0.643946    15A     -0.616495
      16A     -0.591875    17A     -0.563875    18A     -0.548428
      19A     -0.533664    20A     -0.495983    21A     -0.483061
      22A     -0.464800    23A     -0.461726    24A     -0.449949
      25A     -0.383816

  @DF-RHF Final Energy:  -251.44762110146195

   => Energetics <=

    Nuclear Repulsion Energy =            246.0773787341554453
    One-Electron Energy =                -826.5331542118902917
    Two-Electron Energy =                 329.0081543762728415
    DFT Exchange-Correlation Energy =       0.0000000000000000
    Empirical Dispersion Energy =           0.0000000000000000
    PCM Polarization Energy =               0.0000000000000000
    EFP Energy =                            0.0000000000000000
    Total Energy =                       -251.4476211014620048
    Molecular point group: c1
  Basis Set: CC-PVTZ
  Basis Set:

  -Total Gradient:
     Atom            X                  Y                   Z
    ------   -----------------  -----------------  -----------------
       1        0.000009180315     0.000015728252     0.000017334694
       2        0.000015965074    -0.000063878804     0.000042216456
       3       -0.000068850745     0.000040594525    -0.000031045764
       4        0.000010293370     0.000037994007    -0.000029132787
       5       -0.001431076377    -0.002543169004     0.001082130487
       6        0.000004707258    -0.000028741798     0.000061463829
       7        0.000028163575    -0.000022318877    -0.000058261783
       8        0.001524591208     0.002585695383     0.000745842083
       9        0.000957290232     0.001719380507    -0.001086277732
      10       -0.000007107458     0.000037593316    -0.000006447914
      11        0.000019055471     0.000026735779     0.000097498973
      12       -0.001031459334    -0.001767624815    -0.000808467106
      13       -0.000013727863    -0.000024937012     0.000012198245
      14       -0.000015216735     0.000003756143    -0.000049798121
      15       -0.000007472898     0.000025179264     0.000034240365
      16       -0.000032843668     0.000003324414    -0.000018133874
      17        0.000012132240     0.000001049307     0.000031472043
      18        0.000006152382    -0.000006723716    -0.000015468116
      19        0.000020223951    -0.000039636874    -0.000021363979

  **** Optimization is complete! (in 4 steps) ****
    Final optimized geometry and variables:
    Molecular point group: c1

    Geometry (in Angstrom), charge = 0, multiplicity = 1:

    H            3.880293792504     0.355100285928    -0.262457735426
    N            3.083377416776    -0.244306407223    -0.225524227684
    C            1.856117430079     0.523681173559    -0.086554512034
    H            3.211145453636    -0.855466905970     0.553930677108
    C            0.637843169850    -0.389141467037    -0.106411000234
    H            1.799857657156     1.213327815401    -0.922276997319
    H            1.835374356188     1.129219104811     0.820325689839
    C           -0.681759944722     0.376493311374    -0.046707504334
    H            0.681541262218    -0.982057383737    -1.013696654937
    H            0.699545100313    -1.081203989115     0.730544386089
    C           -1.887982693041    -0.523545943145     0.211895878395
    H           -0.834824468233     0.895095414720    -0.989831953033
    H           -0.633890972100     1.138602640773     0.727126747148
    C           -3.211816360766     0.233224316992     0.214489928691
    H           -1.920744448500    -1.303846786115    -0.543560364009
    H           -1.760454764396    -1.028993295129     1.165175641880
    H           -3.386712527714     0.719495616875    -0.739456372460
    H           -4.045553477228    -0.433415221419     0.403026893187
    H           -3.222231889101     1.000648767706     0.981505446022

  Mulliken Charges: (a.u.)
   Center  Symbol    Alpha    Beta     Spin     Total
       1     H     0.43023  0.43023  0.00000  0.13954
       2     N     3.68937  3.68937  0.00000 -0.37875
       3     C     3.02595  3.02595  0.00000 -0.05190
       4     H     0.43111  0.43111  0.00000  0.13778
       5     C     3.08233  3.08233  0.00000 -0.16467
       6     H     0.45735  0.45735  0.00000  0.08531
       7     H     0.46855  0.46855  0.00000  0.06290
       8     C     3.09324  3.09324  0.00000 -0.18649
       9     H     0.44837  0.44837  0.00000  0.10327
      10     H     0.46045  0.46045  0.00000  0.07910
      11     C     3.08357  3.08357  0.00000 -0.16713
      12     H     0.45402  0.45402  0.00000  0.09196
      13     H     0.45712  0.45712  0.00000  0.08576
      14     C     3.14986  3.14986  0.00000 -0.29972
      15     H     0.45391  0.45391  0.00000  0.09217
      16     H     0.45519  0.45519  0.00000  0.08962
      17     H     0.45513  0.45513  0.00000  0.08974
      18     H     0.44860  0.44860  0.00000  0.10280
      19     H     0.45565  0.45565  0.00000  0.08870

   Total alpha = 25.00000, Total beta = 25.00000, Total charge = -0.00000

*** Psi4 exiting successfully. Buy a developer a beer!
