  ==> Input File <==

--------------------------------------------------------------------------
set {
	reference rhf
	basis 6-31G*
}

set_num_threads( 4 )
memory 2 gb

molecule MOL {
0 1

H	 -2.098997	 -0.674324	 -0.616650
O	 -2.035884	 -0.060112	 0.102722
C	 -0.955155	 0.788182	 -0.092531
C	 0.353668	 0.040312	 -0.004810
H	 -0.985057	 1.290372	 -1.054184
H	 -0.974469	 1.533190	 0.688632
F	 1.295033	 0.661636	 -0.706496
F	 0.766075	 -0.025064	 1.250915
F	 0.263576	 -1.190284	 -0.466402

	symmetry c1
}
set optking {
	frozen_dihedral = ("
		7 4 3 5
	")
}

ee = optimize('scf')
oeprop('DIPOLE', 'QUADRUPOLE', 'MULLIKEN_CHARGES')
f=open( 'psi4out.xyz', 'w' )
f.write( "9  " )
f.write( str(ee) + "\n" )
f.write( MOL.save_string_xyz() )
f.close()
--------------------------------------------------------------------------

    Molecular point group: c1
  Charge       = 0
  Multiplicity = 1
  Basis Set: 6-31G*
  Basis Set:
  @DF-RHF Final Energy:  -450.65965322525051
    Total Energy =                       -450.6596532252505085
    Molecular point group: c1
  Basis Set: 6-31G*
  Basis Set:
  Basis Set: 6-31G*
  Basis Set:
  @DF-RHF Final Energy:  -450.66025823643253
    Total Energy =                       -450.6602582364324689
  Basis Set: 6-31G*
  Basis Set:
  Basis Set: 6-31G*
  Basis Set:
  @DF-RHF Final Energy:  -450.66048058705928
    Total Energy =                       -450.6604805870592827
  Basis Set: 6-31G*
  Basis Set:
  Basis Set: 6-31G*
  Basis Set:
  @DF-RHF Final Energy:  -450.66050264798611
    Total Energy =                       -450.6605026479858793
  Basis Set: 6-31G*
  Basis Set:
  Charge       = 0
  Multiplicity = 1
  Basis Set: 6-31G*
  Basis Set:

    Orbital Energies (a.u.)
    -----------------------

    Doubly Occupied:

       1A    -26.343716     2A    -26.343130     3A    -26.341931
       4A    -20.590327     5A    -11.501885     6A    -11.309512
       7A     -1.741255     8A     -1.639122     9A     -1.638241
      10A     -1.402923    11A     -1.046734    12A     -0.924458
      13A     -0.831319    14A     -0.828696    15A     -0.809410
      16A     -0.724412    17A     -0.711994    18A     -0.698863
      19A     -0.664250    20A     -0.660825    21A     -0.643402
      22A     -0.628264    23A     -0.615917    24A     -0.528442
      25A     -0.480318

  @DF-RHF Final Energy:  -450.66050478375291

   => Energetics <=

    Nuclear Repulsion Energy =            276.7812788094059897
    One-Electron Energy =               -1175.5848751824548799
    Two-Electron Energy =                 448.1430915892958069
    DFT Exchange-Correlation Energy =       0.0000000000000000
    Empirical Dispersion Energy =           0.0000000000000000
    PCM Polarization Energy =               0.0000000000000000
    EFP Energy =                            0.0000000000000000
    Total Energy =                       -450.6605047837530833
    Molecular point group: c1
  Basis Set: 6-31G*
  Basis Set:

  -Total Gradient:
     Atom            X                  Y                   Z
    ------   -----------------  -----------------  -----------------
       1       -0.000014234963    -0.000011354667    -0.000005111532
       2        0.000096993762     0.000114697329    -0.000043917981
       3       -0.003048375337    -0.006120256753    -0.003686300547
       4        0.001816186729     0.003946852652     0.005307332945
       5        0.002192699002     0.004254322272     0.002130585573
       6        0.000014063797    -0.000003833781     0.000019498044
       7       -0.000942462505    -0.002297419716    -0.003720806209
       8       -0.000081446025    -0.000022598987    -0.000016821284
       9       -0.000033424455     0.000139591656     0.000015540987

  **** Optimization is complete! (in 5 steps) ****
    Final optimized geometry and variables:
    Molecular point group: c1

    Geometry (in Angstrom), charge = 0, multiplicity = 1:

    H           -2.077170929956    -0.725652137508    -0.559330191579
    O           -2.051310074761    -0.043325459108     0.098082524021
    C           -0.962586760475     0.783848842781    -0.119575968517
    C            0.356694738478     0.041852728063    -0.001323554935
    H           -0.976603285101     1.288613103582    -1.080160269371
    H           -0.980463929548     1.547600524437     0.644505671149
    F            1.305768652883     0.670440823991    -0.677731944241
    F            0.762925042107    -0.091070813509     1.244994917780
    F            0.255030011417    -1.176394318208    -0.520693624983

  Mulliken Charges: (a.u.)
   Center  Symbol    Alpha    Beta     Spin     Total
       1     H     0.27175  0.27175  0.00000  0.45649
       2     O     4.36050  4.36050  0.00000 -0.72101
       3     C     3.06093  3.06093  0.00000 -0.12187
       4     C     2.45895  2.45895  0.00000  1.08209
       5     H     0.40817  0.40817  0.00000  0.18365
       6     H     0.39482  0.39482  0.00000  0.21035
       7     F     4.68273  4.68273  0.00000 -0.36545
       8     F     4.67544  4.67544  0.00000 -0.35088
       9     F     4.68669  4.68669  0.00000 -0.37337

   Total alpha = 25.00000, Total beta = 25.00000, Total charge = -0.00000
