  ==> Input File <==

--------------------------------------------------------------------------
set {
	reference rhf
	basis 6-31G*
}

set_num_threads( 4 )
memory 2 gb

molecule MOL {
0 1

H	 3.636679	 -3.136092	 -1.545290
C	 3.349934	 -2.190885	 -1.995715
C	 1.990463	 -1.722415	 -1.478460
H	 4.125027	 -1.466023	 -1.765176
H	 3.335273	 -2.328919	 -3.073458
C	 1.552355	 -0.394127	 -2.099367
H	 2.033601	 -1.620343	 -0.398959
H	 1.242305	 -2.483912	 -1.693105
C	 0.186307	 0.091379	 -1.614120
H	 2.293142	 0.368568	 -1.886823
H	 1.511749	 -0.503726	 -3.180746
C	 0.169600	 0.576866	 -0.172154
H	 -0.145010	 0.928454	 -2.226742
H	 -0.568287	 -0.681825	 -1.740294
C	 -1.181045	 0.701995	 0.511084
O	 1.175706	 0.868227	 0.401662
C	 -2.285934	 -0.139295	 -0.145128
H	 -1.449051	 1.751551	 0.493206
H	 -1.071135	 0.403303	 1.551943
C	 -3.651768	 0.085446	 0.506485
H	 -2.346596	 0.110469	 -1.202272
H	 -2.034737	 -1.195320	 -0.088721
C	 -4.759797	 -0.746382	 -0.137905
H	 -3.908762	 1.140117	 0.445781
H	 -3.588286	 -0.154158	 1.565709
H	 -4.868882	 -0.505166	 -1.191300
H	 -4.548009	 -1.809175	 -0.062213
H	 -5.715422	 -0.564821	 0.343442

	symmetry c1
}
set optking {
	frozen_dihedral = ("
		16 12 15 17
	")
}

ee = optimize('scf')
oeprop('DIPOLE', 'QUADRUPOLE', 'MULLIKEN_CHARGES')
f=open( 'psi4out.xyz', 'w' )
f.write( "28  " )
f.write( str(ee) + "\n" )
f.write( MOL.save_string_xyz() )
f.close()
--------------------------------------------------------------------------

    Molecular point group: c1
  Charge       = 0
  Multiplicity = 1
  Basis Set: 6-31G*
  Basis Set:
  @DF-RHF Final Energy:  -426.16355156104567
    Total Energy =                       -426.1635515610453240
    Molecular point group: c1
  Basis Set: 6-31G*
  Basis Set:
  Basis Set: 6-31G*
  Basis Set:
  @DF-RHF Final Energy:  -426.16497129458548
    Total Energy =                       -426.1649712945852571
  Basis Set: 6-31G*
  Basis Set:
  Basis Set: 6-31G*
  Basis Set:
  @DF-RHF Final Energy:  -426.16691300914681
    Total Energy =                       -426.1669130091472653
  Basis Set: 6-31G*
  Basis Set:
  Basis Set: 6-31G*
  Basis Set:
  @DF-RHF Final Energy:  -426.16723645887794
    Total Energy =                       -426.1672364588782784
  Basis Set: 6-31G*
  Basis Set:
  @DF-RHF Final Energy:  -426.16728246682169
    Total Energy =                       -426.1672824668220301
  @DF-RHF Final Energy:  -426.16734096002233
    Total Energy =                       -426.1673409600225568
  @DF-RHF Final Energy:  -426.16736331038271
    Total Energy =                       -426.1673633103825978
  @DF-RHF Final Energy:  -426.16740142307924
    Total Energy =                       -426.1674014230791272
  Basis Set: 6-31G*
  Basis Set:
  @DF-RHF Final Energy:  -426.16741363869562
    Total Energy =                       -426.1674136386958480
  Basis Set: 6-31G*
  Basis Set:
  Basis Set: 6-31G*
  Basis Set:
  @DF-RHF Final Energy:  -426.16740616506820
    Total Energy =                       -426.1674061650680869
  Basis Set: 6-31G*
  Basis Set:
  Basis Set: 6-31G*
  Basis Set:
  @DF-RHF Final Energy:  -426.16741529125488
    Total Energy =                       -426.1674152912549971
  Basis Set: 6-31G*
  Basis Set:
  Charge       = 0
  Multiplicity = 1
  Basis Set: 6-31G*
  Basis Set:

    Orbital Energies (a.u.)
    -----------------------

    Doubly Occupied:

       1A    -20.546074     2A    -11.323884     3A    -11.230736
       4A    -11.230527     5A    -11.230016     6A    -11.226290
       7A    -11.216793     8A    -11.215772     9A    -11.210062
      10A    -11.204386    11A     -1.392859    12A     -1.095317
      13A     -1.076380    14A     -1.021682    15A     -0.990431
      16A     -0.906499    17A     -0.875263    18A     -0.809868
      19A     -0.799492    20A     -0.720892    21A     -0.666348
      22A     -0.657992    23A     -0.627612    24A     -0.618367
      25A     -0.607836    26A     -0.587458    27A     -0.580432
      28A     -0.571050    29A     -0.543820    30A     -0.528413
      31A     -0.523620    32A     -0.510935    33A     -0.493170
      34A     -0.486344    35A     -0.479766    36A     -0.474378
      37A     -0.469334    38A     -0.464526    39A     -0.454399
      40A     -0.391989

  @DF-RHF Final Energy:  -426.16741527972135

   => Energetics <=

    Nuclear Repulsion Energy =            532.1410845114687618
    One-Electron Energy =               -1632.4949716052447002
    Two-Electron Energy =                 674.1864718140544710
    DFT Exchange-Correlation Energy =       0.0000000000000000
    Empirical Dispersion Energy =           0.0000000000000000
    PCM Polarization Energy =               0.0000000000000000
    EFP Energy =                            0.0000000000000000
    Total Energy =                       -426.1674152797214674
    Molecular point group: c1
  Basis Set: 6-31G*
  Basis Set:

  -Total Gradient:
     Atom            X                  Y                   Z
    ------   -----------------  -----------------  -----------------
       1        0.000004877418     0.000001527961     0.000003023436
       2        0.000006237431     0.000000575933     0.000009669028
       3        0.000000723999    -0.000004260765    -0.000020170197
       4        0.000004838691     0.000002326919    -0.000003961704
       5       -0.000002767889    -0.000001285329     0.000004316910
       6        0.000006747455    -0.000002630499    -0.000005556416
       7       -0.000010941577     0.000001901149    -0.000000061077
       8        0.000004953080    -0.000005778120    -0.000003450459
       9        0.000002469863     0.000033183378    -0.000000464067
      10        0.000000880013    -0.000003182874    -0.000009708527
      11        0.000004042755    -0.000011263283    -0.000000365730
      12       -0.000140921978    -0.001440809961     0.000418978993
      13       -0.000000937966    -0.000004625678     0.000008720107
      14        0.000002768750     0.000001578374     0.000002806063
      15        0.000222746775    -0.000730787679     0.000842065470
      16        0.000047764674     0.001316928977    -0.000536217260
      17       -0.000137238524     0.000848797135    -0.000706418694
      18       -0.000001550630    -0.000008130390    -0.000005883293
      19       -0.000001885551     0.000004259504     0.000002281606
      20        0.000002041149    -0.000000820973    -0.000005654926
      21       -0.000006396112     0.000003172114     0.000002485257
      22        0.000006040437     0.000003514665    -0.000001476651
      23       -0.000008115464    -0.000003596282     0.000007730055
      24       -0.000000583390    -0.000001413166    -0.000001833558
      25       -0.000000224047     0.000003312805    -0.000000553362
      26        0.000000588707     0.000001246344     0.000002473831
      27       -0.000000349966     0.000000598390    -0.000002070871
      28       -0.000005808108    -0.000004338654    -0.000000703966

  **** Optimization is complete! (in 12 steps) ****
    Final optimized geometry and variables:
    Molecular point group: c1

    Geometry (in Angstrom), charge = 0, multiplicity = 1:

    H            4.441655189533    -2.536227092838    -1.038307893959
    C            4.018520348913    -1.623161250365    -1.445558790328
    C            2.604102584175    -1.386798611713    -0.917627771911
    H            4.677544480734    -0.803811371730    -1.173874853198
    H            4.026329535984    -1.709480609777    -2.528855004483
    C            1.973980072252    -0.111193597557    -1.481706718283
    H            2.628451883583    -1.329383549152     0.164772969427
    H            1.977800766160    -2.239649204145    -1.175165373084
    C            0.552280389879     0.148399732117    -0.983354937906
    H            2.598434448704     0.741325011203    -1.237553732813
    H            1.945731947006    -0.181595289571    -2.566865042020
    C            0.466848884000     0.629908883431     0.454950624842
    H            0.070154534583     0.909524072066    -1.596163432436
    H           -0.060527837234    -0.742408559190    -1.095484222047
    C           -0.903433020687     0.915176500264     1.060409876553
    O            1.446239378462     0.860057008269     1.098789936369
    C           -2.119267966153     0.209532824639     0.455252893558
    H           -1.037805870679     1.993544932461     0.983795992480
    H           -0.821308292770     0.699561610222     2.120088695840
    C           -3.416052856342     0.574475961114     1.181447041681
    H           -2.218948352559     0.465803141234    -0.596048392990
    H           -1.980919646824    -0.868895213962     0.498485927582
    C           -4.642218631694    -0.121830852893     0.592860299092
    H           -3.558662428866     1.652200604105     1.142686572138
    H           -3.323842099555     0.316478119444     2.233828404436
    H           -4.781730016298     0.144331218808    -0.451061512948
    H           -4.544164388715    -1.202227389970     0.648115881742
    H           -5.544698308881     0.155743903932     1.128006098835

  Mulliken Charges: (a.u.)
   Center  Symbol    Alpha    Beta     Spin     Total
       1     H     0.41953  0.41953  0.00000  0.16095
       2     C     3.24032  3.24032  0.00000 -0.48065
       3     C     3.15606  3.15606  0.00000 -0.31211
       4     H     0.41861  0.41861  0.00000  0.16278
       5     H     0.42418  0.42418  0.00000  0.15164
       6     C     3.14778  3.14778  0.00000 -0.29556
       7     H     0.40701  0.40701  0.00000  0.18598
       8     H     0.42851  0.42851  0.00000  0.14299
       9     C     3.21511  3.21511  0.00000 -0.43023
      10     H     0.40867  0.40867  0.00000  0.18266
      11     H     0.42236  0.42236  0.00000  0.15528
      12     C     2.73271  2.73271  0.00000  0.53458
      13     H     0.40666  0.40666  0.00000  0.18667
      14     H     0.40712  0.40712  0.00000  0.18575
      15     C     3.20249  3.20249  0.00000 -0.40497
      16     O     4.26892  4.26892  0.00000 -0.53784
      17     C     3.16137  3.16137  0.00000 -0.32273
      18     H     0.40408  0.40408  0.00000  0.19184
      19     H     0.39932  0.39932  0.00000  0.20136
      20     C     3.15229  3.15229  0.00000 -0.30459
      21     H     0.41927  0.41927  0.00000  0.16146
      22     H     0.41901  0.41901  0.00000  0.16198
      23     C     3.23992  3.23992  0.00000 -0.47984
      24     H     0.42096  0.42096  0.00000  0.15808
      25     H     0.41946  0.41946  0.00000  0.16107
      26     H     0.42105  0.42105  0.00000  0.15789
      27     H     0.42048  0.42048  0.00000  0.15905
      28     H     0.41675  0.41675  0.00000  0.16649

   Total alpha = 40.00000, Total beta = 40.00000, Total charge = -0.00000
