                              Psi4 1.0.54 Driver

  ==> Input File <==

--------------------------------------------------------------------------
set {
	reference rhf
	basis cc-pvtz
}

set_num_threads( 4 )
memory 2 gb

molecule MOL {
0 1

O	 1.847135	 1.295356	 0.032944
C	 1.702612	 0.122248	 0.095961
C	 0.378787	 -0.598253	 0.093356
O	 2.712452	 -0.728501	 0.178809
C	 -0.824290	 0.329213	 -0.000115
H	 0.398025	 -1.301558	 -0.732744
H	 0.340506	 -1.202172	 0.994054
C	 -2.146151	 -0.432825	 -0.000068
H	 -0.744576	 0.928227	 -0.900171
H	 -0.802015	 1.027908	 0.828510
C	 -3.366283	 0.483552	 0.000557
H	 -2.189286	 -1.084450	 -0.869996
H	 -2.188867	 -1.085083	 0.869399
C	 -4.687436	 -0.278003	 0.000108
H	 -3.325150	 1.134819	 -0.867957
H	 -3.325087	 1.133730	 0.869885
H	 -4.773783	 -0.912098	 -0.876078
H	 -5.531922	 0.401392	 0.000363
H	 -4.773901	 -0.912898	 0.875703
C	 4.017821	 -0.187032	 0.190988
H	 4.209327	 0.366901	 -0.716038
H	 4.688231	 -1.028076	 0.261993
H	 4.150834	 0.468418	 1.038872

	symmetry c1
}
set optking {
	frozen_dihedral = ("
		9 5 8 12
	")
}

ee,wfn = optimize('scf', return_wfn=True)
oeprop( wfn, 'DIPOLE', 'QUADRUPOLE', 'MULLIKEN_CHARGES')
f=open( 'psi4out.xyz', 'w' )
f.write( "23  " )
f.write( str(ee) + "\n" )
f.write( MOL.save_string_xyz() )
f.close()
--------------------------------------------------------------------------

    Molecular point group: c1
  Charge       = 0
  Multiplicity = 1
  Basis Set: CC-PVTZ
  Basis Set:
  @DF-RHF Final Energy:  -423.13104275425917
    Total Energy =                       -423.1310427542595107
    Molecular point group: c1
  Basis Set: CC-PVTZ
  Basis Set:
  Basis Set: CC-PVTZ
  Basis Set:
  @DF-RHF Final Energy:  -423.13104912345864
    Total Energy =                       -423.1310491234585243
  Basis Set: CC-PVTZ
  Basis Set:
  Basis Set: CC-PVTZ
  Basis Set:
  @DF-RHF Final Energy:  -423.13103209114485
    Total Energy =                       -423.1310320911446752
  Basis Set: CC-PVTZ
  Basis Set:
  Basis Set: CC-PVTZ
  Basis Set:
  @DF-RHF Final Energy:  -423.13105250639728
    Total Energy =                       -423.1310525063973955
  Basis Set: CC-PVTZ
  Basis Set:
  Charge       = 0
  Multiplicity = 1
  Basis Set: CC-PVTZ
  Basis Set:

    Orbital Energies (a.u.)
    -----------------------

    Doubly Occupied:

       1A    -20.596271     2A    -20.534083     3A    -11.364508
       4A    -11.278459     5A    -11.233716     6A    -11.217203
       7A    -11.215832     8A    -11.214465     9A    -11.207743
      10A     -1.472155    11A     -1.365733    12A     -1.094504
      13A     -1.044762    14A     -0.988027    15A     -0.932682
      16A     -0.844062    17A     -0.795482    18A     -0.769243
      19A     -0.699082    20A     -0.686913    21A     -0.675322
      22A     -0.653019    23A     -0.609831    24A     -0.600982
      25A     -0.573543    26A     -0.559427    27A     -0.558192
      28A     -0.525255    29A     -0.522284    30A     -0.508099
      31A     -0.485059    32A     -0.470119    33A     -0.467391
      34A     -0.463106    35A     -0.459102    36A     -0.438328

  @DF-RHF Final Energy:  -423.13105285208155

   => Energetics <=

    Nuclear Repulsion Energy =            452.9011528401590567
    One-Electron Energy =               -1473.8164382109064263
    Two-Electron Energy =                 597.7842325186657035
    DFT Exchange-Correlation Energy =       0.0000000000000000
    Empirical Dispersion Energy =           0.0000000000000000
    PCM Polarization Energy =               0.0000000000000000
    EFP Energy =                            0.0000000000000000
    Total Energy =                       -423.1310528520816661
    Molecular point group: c1
  Basis Set: CC-PVTZ
  Basis Set:

  -Total Gradient:
     Atom            X                  Y                   Z
    ------   -----------------  -----------------  -----------------
       1       -0.000012016979     0.000010774626    -0.000000478615
       2        0.000016350775    -0.000009486327     0.000005645319
       3       -0.000011173637     0.000008092625     0.000002933759
       4       -0.000011833682    -0.000004788166    -0.000001750890
       5       -0.000476196132     0.000809001088     0.000316349727
       6       -0.000000095122     0.000000652472     0.000001269781
       7        0.000006812042    -0.000003246983     0.000002488241
       8        0.000455770322    -0.000783308121     0.000391680015
       9        0.000322120362    -0.000555254863    -0.000347091710
      10       -0.000000870343    -0.000000551620     0.000002841886
      11        0.000011885471    -0.000006272091     0.000018822620
      12       -0.000301759072     0.000530892141    -0.000391694220
      13       -0.000003521882     0.000000244073     0.000002441726
      14       -0.000004699035    -0.000000122810    -0.000004904169
      15       -0.000000823910    -0.000003091585     0.000001733357
      16       -0.000005980029     0.000005341656     0.000001316943
      17        0.000000938528    -0.000001684958     0.000000399596
      18        0.000003110315     0.000000765613    -0.000002324442
      19        0.000001483477     0.000002525052     0.000000278568
      20        0.000012328723     0.000001766513    -0.000000504847
      21       -0.000001077217    -0.000000300475     0.000000566291
      22        0.000000491583    -0.000001746267     0.000000253143
      23       -0.000001244555    -0.000000201590    -0.000000272078

  **** Optimization is complete! (in 5 steps) ****
    Final optimized geometry and variables:
    Molecular point group: c1

    Geometry (in Angstrom), charge = 0, multiplicity = 1:

    O            1.848161627264     1.293308859400    -0.040177774798
    C            1.703708960644     0.120485812271     0.028513599555
    C            0.379648820790    -0.599464442699     0.037842033872
    O            2.713880589559    -0.730244255067     0.108158630071
    C           -0.823870460378     0.328419722276    -0.050501890989
    H            0.392763728496    -1.305613908120    -0.786017988564
    H            0.347737900349    -1.200228977954     0.940840475358
    C           -2.144887183603    -0.435316586604    -0.052768716174
    H           -0.743879341943     0.926185418149    -0.951265897513
    H           -0.800014747234     1.024978636116     0.779745874805
    C           -3.365280045073     0.481055436712    -0.065001008988
    H           -2.183636060519    -1.087273695770    -0.922558048686
    H           -2.193842395063    -1.083757135779     0.819053357358
    C           -4.686183919327    -0.280684740826    -0.083448174301
    H           -3.313606157742     1.134320603992    -0.931501986326
    H           -3.334954842555     1.129229991603     0.806231764347
    H           -4.762265611257    -0.911791864687    -0.962734408508
    H           -5.530765923981     0.398565843067    -0.090620604877
    H           -4.782636246147    -0.918626619388     0.788917256267
    C            4.019403114671    -0.189187899048     0.109629842866
    H            4.205224525169     0.361058839710    -0.800832477416
    H            4.690066384193    -1.030141345575     0.179605737487
    H            4.158250474640     0.469617837865     0.953986944751

  Mulliken Charges: (a.u.)
   Center  Symbol    Alpha    Beta     Spin     Total
       1     O     4.19704  4.19704  0.00000 -0.39409
       2     C     2.80693  2.80693  0.00000  0.38614
       3     C     3.10123  3.10123  0.00000 -0.20246
       4     O     4.14647  4.14647  0.00000 -0.29294
       5     C     3.08324  3.08324  0.00000 -0.16649
       6     H     0.44014  0.44014  0.00000  0.11971
       7     H     0.44017  0.44017  0.00000  0.11966
       8     C     3.08936  3.08936  0.00000 -0.17873
       9     H     0.44612  0.44612  0.00000  0.10776
      10     H     0.44654  0.44654  0.00000  0.10691
      11     C     3.08403  3.08403  0.00000 -0.16806
      12     H     0.45549  0.45549  0.00000  0.08902
      13     H     0.45598  0.45598  0.00000  0.08804
      14     C     3.15039  3.15039  0.00000 -0.30077
      15     H     0.45324  0.45324  0.00000  0.09352
      16     H     0.45335  0.45335  0.00000  0.09329
      17     H     0.45531  0.45531  0.00000  0.08938
      18     H     0.44773  0.44773  0.00000  0.10454
      19     H     0.45537  0.45537  0.00000  0.08926
      20     C     3.03780  3.03780  0.00000 -0.07560
      21     H     0.45435  0.45435  0.00000  0.09129
      22     H     0.44534  0.44534  0.00000  0.10932
      23     H     0.45436  0.45436  0.00000  0.09128

   Total alpha = 36.00000, Total beta = 36.00000, Total charge = -0.00000

*** Psi4 exiting successfully. Buy a developer a beer!
