                              Psi4 1.0.54 Driver

  ==> Input File <==

--------------------------------------------------------------------------
set {
	reference rhf
	basis cc-pvtz
}

set_num_threads( 4 )
memory 2 gb

molecule MOL {
0 1

H	 -0.687238	 1.757697	 -4.771124
C	 -0.294615	 1.470770	 -3.814204
C	 -0.568229	 2.239782	 -2.697335
C	 0.482977	 0.333821	 -3.701596
H	 -1.171862	 3.122140	 -2.785499
C	 -0.063355	 1.870439	 -1.468033
H	 0.694589	 -0.261873	 -4.568338
C	 0.989238	 -0.037318	 -2.471371
H	 -0.265339	 2.454217	 -0.593125
C	 0.717118	 0.730742	 -1.350414
H	 1.591780	 -0.917236	 -2.380718
C	 1.238974	 0.374429	 0.000004
O	 1.968286	 -0.725612	 -0.000027
O	 1.025152	 1.009050	 0.978123
C	 3.373556	 -0.568203	 0.000011
H	 3.695416	 -0.031588	 -0.879663
H	 3.782700	 -1.565294	 -0.000152
H	 3.695405	 -0.031851	 0.879862

	symmetry c1
}
set optking {
	frozen_dihedral = ("
		10 12 13 15
	")
}

ee,wfn = optimize('scf', return_wfn=True)
oeprop( wfn, 'DIPOLE', 'QUADRUPOLE', 'MULLIKEN_CHARGES')
f=open( 'psi4out.xyz', 'w' )
f.write( "18  " )
f.write( str(ee) + "\n" )
f.write( MOL.save_string_xyz() )
f.close()
--------------------------------------------------------------------------

    Molecular point group: c1
  Charge       = 0
  Multiplicity = 1
  Basis Set: CC-PVTZ
  Basis Set:
  @DF-RHF Final Energy:  -457.49153855649462
    Total Energy =                       -457.4915385564945609
    Molecular point group: c1
  Basis Set: CC-PVTZ
  Basis Set:
  Basis Set: CC-PVTZ
  Basis Set:
  @DF-RHF Final Energy:  -457.49142046583580
    Total Energy =                       -457.4914204658360859
  Basis Set: CC-PVTZ
  Basis Set:
  Basis Set: CC-PVTZ
  Basis Set:
  @DF-RHF Final Energy:  -457.49237808103095
    Total Energy =                       -457.4923780810308926
  Basis Set: CC-PVTZ
  Basis Set:
  Basis Set: CC-PVTZ
  Basis Set:
  @DF-RHF Final Energy:  -457.49238576844022
    Total Energy =                       -457.4923857684400446
  Basis Set: CC-PVTZ
  Basis Set:
  Basis Set: CC-PVTZ
  Basis Set:
  @DF-RHF Final Energy:  -457.49269249990897
    Total Energy =                       -457.4926924999091398
  Basis Set: CC-PVTZ
  Basis Set:
  Basis Set: CC-PVTZ
  Basis Set:
  @DF-RHF Final Energy:  -457.49269604029308
    Total Energy =                       -457.4926960402933673
  Basis Set: CC-PVTZ
  Basis Set:
  Charge       = 0
  Multiplicity = 1
  Basis Set: CC-PVTZ
  Basis Set:

    Orbital Energies (a.u.)
    -----------------------

    Doubly Occupied:

       1A    -20.581213     2A    -20.545069     3A    -11.373839
       4A    -11.288108     5A    -11.248504     6A    -11.247916
       7A    -11.247204     8A    -11.244205     9A    -11.240214
      10A    -11.239324    11A     -1.465323    12A     -1.370891
      13A     -1.174340    14A     -1.050255    15A     -1.033157
      16A     -0.975019    17A     -0.873168    18A     -0.843216
      19A     -0.781950    20A     -0.742462    21A     -0.689118
      22A     -0.679729    23A     -0.665222    24A     -0.641254
      25A     -0.633286    26A     -0.611090    27A     -0.601001
      28A     -0.561383    29A     -0.531221    30A     -0.525727
      31A     -0.507741    32A     -0.500548    33A     -0.464485
      34A     -0.447471    35A     -0.354315    36A     -0.350364

  @DF-RHF Final Energy:  -457.49269646001670

   => Energetics <=

    Nuclear Repulsion Energy =            496.2917376303988135
    One-Electron Energy =               -1606.9101951643997381
    Two-Electron Energy =                 653.1257610739846768
    DFT Exchange-Correlation Energy =       0.0000000000000000
    Empirical Dispersion Energy =           0.0000000000000000
    PCM Polarization Energy =               0.0000000000000000
    EFP Energy =                            0.0000000000000000
    Total Energy =                       -457.4926964600163046
    Molecular point group: c1
  Basis Set: CC-PVTZ
  Basis Set:

  -Total Gradient:
     Atom            X                  Y                   Z
    ------   -----------------  -----------------  -----------------
       1       -0.000009566246     0.000004044212     0.000002500226
       2        0.000003890748     0.000029384172     0.000014649777
       3       -0.000023350832    -0.000014403873    -0.000030320572
       4        0.000029248282     0.000007472891     0.000019967777
       5        0.000003338142     0.000007744643    -0.000007948039
       6        0.000013398103    -0.000017395087     0.000000745871
       7       -0.000005864394    -0.000004404996     0.000003536438
       8       -0.000044230458    -0.000006707955    -0.000025980540
       9       -0.000004935396     0.000005124338     0.000002584768
      10        0.002927761406     0.001735871156    -0.000788772925
      11        0.000010524093     0.000005092390     0.000011814402
      12       -0.004261678426    -0.002676325249    -0.000489140962
      13        0.001470121222     0.001114696564     0.005046086987
      14       -0.000019113682    -0.000010166241    -0.000047206031
      15       -0.000052382004    -0.000163652367    -0.003718929210
      16       -0.000010125674    -0.000005068831     0.000004194815
      17       -0.000010516722    -0.000001325454     0.000004411407
      18       -0.000016518162    -0.000009980314    -0.000002194184

  **** Optimization is complete! (in 7 steps) ****
    Final optimized geometry and variables:
    Molecular point group: c1

    Geometry (in Angstrom), charge = 0, multiplicity = 1:

    H           -1.718068386795     1.109744890126    -3.384331752032
    C           -1.306210635280     0.829824408248    -2.433439793919
    C           -1.401109114848     1.697426051721    -1.358248807418
    C           -0.686272590565    -0.395222329056    -2.285438247922
    H           -1.884837268194     2.647785571814    -1.474816654388
    C           -0.875158073667     1.337420841392    -0.136585688018
    H           -0.618663292176    -1.069278042413    -3.117230959877
    C           -0.154563337567    -0.755519242723    -1.061402643529
    H           -0.943888026872     1.995173185918     0.706024491643
    C           -0.243851370259     0.110246576321     0.016281131190
    H            0.318450778635    -1.708285771507    -0.940069690622
    C            0.322507585928    -0.237946330641     1.351105460203
    O            1.021820750783    -1.386844520724     1.386861531762
    O            0.195008184974     0.438817955215     2.307711373417
    C            2.428045819451    -1.259242918492     1.338487065131
    H            2.740570454264    -0.807048547379     0.404344988295
    H            2.830895473118    -2.256625649645     1.406252910583
    H            2.784349391758    -0.665803626795     2.169449619759

  Mulliken Charges: (a.u.)
   Center  Symbol    Alpha    Beta     Spin     Total
       1     H     0.41963  0.41963  0.00000  0.16075
       2     C     3.06949  3.06949  0.00000 -0.13899
       3     C     3.07493  3.07493  0.00000 -0.14985
       4     C     3.07548  3.07548  0.00000 -0.15097
       5     H     0.41995  0.41995  0.00000  0.16011
       6     C     3.07798  3.07798  0.00000 -0.15596
       7     H     0.42095  0.42095  0.00000  0.15810
       8     C     3.09040  3.09040  0.00000 -0.18080
       9     H     0.40650  0.40650  0.00000  0.18700
      10     C     3.02855  3.02855  0.00000 -0.05710
      11     H     0.40745  0.40745  0.00000  0.18509
      12     C     2.76022  2.76022  0.00000  0.47956
      13     O     4.17276  4.17276  0.00000 -0.34552
      14     O     4.18355  4.18355  0.00000 -0.36711
      15     C     3.04376  3.04376  0.00000 -0.08751
      16     H     0.46090  0.46090  0.00000  0.07821
      17     H     0.44198  0.44198  0.00000  0.11604
      18     H     0.44553  0.44553  0.00000  0.10893

   Total alpha = 36.00000, Total beta = 36.00000, Total charge = -0.00000

*** Psi4 exiting successfully. Buy a developer a beer!
