  ==> Input File <==

--------------------------------------------------------------------------
set {
	reference rhf
	basis 6-31G*
}

set_num_threads( 4 )
memory 2 gb

molecule MOL {
0 1

O	 -2.385144	 0.431799	 -1.076175
C	 -1.921153	 0.064240	 -0.045697
C	 -2.704128	 -0.550292	 1.082863
O	 -0.632575	 0.154573	 0.251549
H	 -2.588152	 0.049516	 1.978255
H	 -3.747148	 -0.609996	 0.810133
H	 -2.319375	 -1.540273	 1.298868
C	 0.160891	 -1.019931	 0.106212
C	 1.589627	 -0.672828	 0.480843
H	 0.089836	 -1.367806	 -0.916050
H	 -0.238459	 -1.792301	 0.749618
C	 2.246377	 0.346236	 -0.452210
H	 2.163194	 -1.597435	 0.473358
H	 1.604769	 -0.303424	 1.502885
C	 3.691736	 0.652107	 -0.061850
H	 2.219579	 -0.032311	 -1.472055
H	 1.666466	 1.263317	 -0.447249
H	 4.134505	 1.377213	 -0.737283
H	 4.305508	 -0.243868	 -0.089969
H	 3.748266	 1.059562	 0.943567

	symmetry c1
}
set optking {
	frozen_dihedral = ("
		1 2 4 8
	")
}

ee = optimize('scf')
oeprop('DIPOLE', 'QUADRUPOLE', 'MULLIKEN_CHARGES')
f=open( 'psi4out.xyz', 'w' )
f.write( "20  " )
f.write( str(ee) + "\n" )
f.write( MOL.save_string_xyz() )
f.close()
--------------------------------------------------------------------------

    Molecular point group: c1
  Charge       = 0
  Multiplicity = 1
  Basis Set: 6-31G*
  Basis Set:
  @DF-RHF Final Energy:  -383.92364312359865
    Total Energy =                       -383.9236431235988221
    Molecular point group: c1
  Basis Set: 6-31G*
  Basis Set:
  Basis Set: 6-31G*
  Basis Set:
  @DF-RHF Final Energy:  -383.92257163981890
    Total Energy =                       -383.9225716398186705
  Basis Set: 6-31G*
  Basis Set:
  Basis Set: 6-31G*
  Basis Set:
  @DF-RHF Final Energy:  -383.92469737006451
    Total Energy =                       -383.9246973700643366
  Basis Set: 6-31G*
  Basis Set:
  Basis Set: 6-31G*
  Basis Set:
  @DF-RHF Final Energy:  -383.92557723800968
    Total Energy =                       -383.9255772380099643
  Basis Set: 6-31G*
  Basis Set:
  Basis Set: 6-31G*
  Basis Set:
  @DF-RHF Final Energy:  -383.92559863947611
    Total Energy =                       -383.9255986394763340
  Basis Set: 6-31G*
  Basis Set:
  Basis Set: 6-31G*
  Basis Set:
  @DF-RHF Final Energy:  -383.92560448318909
    Total Energy =                       -383.9256044831893178
  Basis Set: 6-31G*
  Basis Set:
  Charge       = 0
  Multiplicity = 1
  Basis Set: 6-31G*
  Basis Set:

    Orbital Energies (a.u.)
    -----------------------

    Doubly Occupied:

       1A    -20.583928     2A    -20.555909     3A    -11.377382
       4A    -11.294558     5A    -11.237985     6A    -11.227891
       7A    -11.217488     8A    -11.211404     9A     -1.457831
      10A     -1.367115    11A     -1.083385    12A     -1.020631
      13A     -0.989949    14A     -0.882222    15A     -0.808730
      16A     -0.778035    17A     -0.696554    18A     -0.683280
      19A     -0.650132    20A     -0.635818    21A     -0.614809
      22A     -0.589940    23A     -0.580542    24A     -0.564863
      25A     -0.542757    26A     -0.526490    27A     -0.494589
      28A     -0.484413    29A     -0.480563    30A     -0.472907
      31A     -0.448075    32A     -0.436560

  @DF-RHF Final Energy:  -383.92560521218149

   => Energetics <=

    Nuclear Repulsion Energy =            384.2038766032284229
    One-Electron Energy =               -1284.2654935317104901
    Two-Electron Energy =                 516.1360117163003451
    DFT Exchange-Correlation Energy =       0.0000000000000000
    Empirical Dispersion Energy =           0.0000000000000000
    PCM Polarization Energy =               0.0000000000000000
    EFP Energy =                            0.0000000000000000
    Total Energy =                       -383.9256052121817220
    Molecular point group: c1
  Basis Set: 6-31G*
  Basis Set:

  -Total Gradient:
     Atom            X                  Y                   Z
    ------   -----------------  -----------------  -----------------
       1       -0.000159159417     0.000926677752     0.000535901717
       2        0.000056156037    -0.001547881769    -0.000419478086
       3       -0.000018884548     0.000097717604     0.000014382888
       4        0.000379556896     0.000813557013    -0.000908666521
       5        0.000010457435    -0.000034056496    -0.000006655280
       6        0.000004447422    -0.000021322834     0.000008566042
       7       -0.000005365002    -0.000034527381    -0.000010654379
       8       -0.000276631748    -0.000237313984     0.000727521304
       9        0.000023737419     0.000018087458     0.000047415232
      10       -0.000030530664    -0.000009625419    -0.000019592548
      11       -0.000006296902     0.000000818695     0.000016080685
      12       -0.000004931766     0.000023801396     0.000006284236
      13       -0.000014434295     0.000017052134     0.000008596121
      14        0.000015328548     0.000012256892     0.000014632182
      15        0.000011511068    -0.000010510902    -0.000021314731
      16       -0.000004840456    -0.000001458407    -0.000001554803
      17        0.000014246386    -0.000008204107     0.000014598292
      18        0.000008268097    -0.000004168945    -0.000003642266
      19        0.000006073984    -0.000001469914     0.000004638320
      20       -0.000008708500     0.000000571213    -0.000007058406

  **** Optimization is complete! (in 7 steps) ****
    Final optimized geometry and variables:
    Molecular point group: c1

    Geometry (in Angstrom), charge = 0, multiplicity = 1:

    O           -2.288803607126     0.592748202828    -1.078334714915
    C           -1.914352640302     0.132483949625    -0.057148719305
    C           -2.821770925556    -0.479200194581     0.978953811171
    O           -0.613749005888     0.186178168519     0.306623196212
    H           -2.745944157897     0.091830067772     1.897815227521
    H           -3.841742904227    -0.474400697945     0.624381666273
    H           -2.519481373821    -1.496219250659     1.203517202248
    C            0.180875481392    -0.974108037105     0.109105547863
    C            1.623522082076    -0.626456044421     0.426994869184
    H            0.080940782867    -1.302374614189    -0.920519114760
    H           -0.167061598648    -1.771215184576     0.759233899471
    C            2.226496018652     0.415517788499    -0.516209483791
    H            2.202669083059    -1.546614579697     0.380023757159
    H            1.674744207982    -0.273782198036     1.453539171063
    C            3.680291351378     0.739778903936    -0.175046980939
    H            2.167645123164     0.048728088465    -1.538730196605
    H            1.629455816442     1.319596114632    -0.478038223887
    H            4.085970885360     1.477938732740    -0.859383541117
    H            4.307700975603    -0.145498927090    -0.233777335282
    H            3.767173431205     1.139899133246     0.831200477397

  Mulliken Charges: (a.u.)
   Center  Symbol    Alpha    Beta     Spin     Total
       1     O     4.24767  4.24767  0.00000 -0.49535
       2     C     2.62682  2.62682  0.00000  0.74636
       3     C     3.29023  3.29023  0.00000 -0.58046
       4     O     4.31764  4.31764  0.00000 -0.63529
       5     H     0.39800  0.39800  0.00000  0.20399
       6     H     0.39570  0.39570  0.00000  0.20860
       7     H     0.40684  0.40684  0.00000  0.18632
       8     C     3.00312  3.00312  0.00000 -0.00624
       9     C     3.16202  3.16202  0.00000 -0.32405
      10     H     0.41403  0.41403  0.00000  0.17194
      11     H     0.42175  0.42175  0.00000  0.15651
      12     C     3.15530  3.15530  0.00000 -0.31060
      13     H     0.41972  0.41972  0.00000  0.16056
      14     H     0.41322  0.41322  0.00000  0.17356
      15     C     3.24099  3.24099  0.00000 -0.48199
      16     H     0.42208  0.42208  0.00000  0.15585
      17     H     0.40448  0.40448  0.00000  0.19103
      18     H     0.41651  0.41651  0.00000  0.16698
      19     H     0.42307  0.42307  0.00000  0.15386
      20     H     0.42080  0.42080  0.00000  0.15840

   Total alpha = 32.00000, Total beta = 32.00000, Total charge =  0.00000
