  ==> Input File <==

--------------------------------------------------------------------------
set {
	reference rhf
	basis 6-31G*
}

set_num_threads( 1 )
memory 2 gb

molecule MOL {
0 1

H	 -3.787928	 -0.291921	 -1.659066
C	 -2.772765	 -0.167926	 -1.326121
C	 -2.320808	 1.084189	 -0.937417
C	 -1.920693	 -1.260346	 -1.287057
H	 -2.982660	 1.930577	 -0.968193
C	 -1.015379	 1.242835	 -0.509436
H	 -2.272812	 -2.230189	 -1.588757
C	 -0.613535	 -1.103909	 -0.858996
H	 -0.648453	 2.204249	 -0.204937
C	 -0.157521	 0.149698	 -0.468760
H	 0.049286	 -1.946510	 -0.827166
C	 1.239129	 0.373821	 0.000060
O	 1.970282	 -0.730723	 0.000018
O	 1.664614	 1.432587	 0.341875
C	 3.377318	 -0.566646	 -0.000065
H	 3.695437	 -0.028981	 -0.881264
H	 3.789299	 -1.563704	 0.000236
H	 3.695516	 -0.028316	 0.880770

	symmetry c1
}
set optking {
	frozen_dihedral = ("
		12 13 15 16,
		13 12 10 6
	")
}

ee = energy('scf')
oeprop('DIPOLE', 'QUADRUPOLE', 'MULLIKEN_CHARGES')
f=open( 'psi4out.xyz', 'w' )
f.write( "18  " )
f.write( str(ee) + "\n" )
f.write( MOL.save_string_xyz() )
f.close()
--------------------------------------------------------------------------

    Molecular point group: c1

    Geometry (in Angstrom), charge = 0, multiplicity = 1:

       Center              X                  Y                   Z               Mass
    ------------   -----------------  -----------------  -----------------  -----------------
           H         -3.857596146615    -0.338055827906    -1.185172217924     1.007825032070
           C         -2.842433146615    -0.214060827906    -0.852227217924    12.000000000000
           C         -2.390476146615     1.038054172094    -0.463523217924    12.000000000000
           C         -1.990361146615    -1.306480827906    -0.813163217924    12.000000000000
           H         -3.052328146615     1.884442172094    -0.494299217924     1.007825032070
           C         -1.085047146615     1.196700172094    -0.035542217924    12.000000000000
           H         -2.342480146615    -2.276323827906    -1.114863217924     1.007825032070
           C         -0.683203146615    -1.150043827906    -0.385102217924    12.000000000000
           H         -0.718121146615     2.158114172094     0.268956782076     1.007825032070
           C         -0.227189146615     0.103563172094     0.005133782076    12.000000000000
           H         -0.020382146615    -1.992644827906    -0.353272217924     1.007825032070
           C          1.169460853385     0.327686172094     0.473953782076    12.000000000000
           O          1.900613853385    -0.776857827906     0.473911782076    15.994914619560
           O          1.594945853385     1.386452172094     0.815768782076    15.994914619560
           C          3.307649853385    -0.612780827906     0.473828782076    12.000000000000
           H          3.625768853385    -0.075115827906    -0.407370217924     1.007825032070
           H          3.719630853385    -1.609838827906     0.474129782076     1.007825032070
           H          3.625847853385    -0.074450827906     1.354663782076     1.007825032070

  Charge       = 0
  Multiplicity = 1
  Basis Set: 6-31G*
  Basis Set:

    Orbital Energies (a.u.)
    -----------------------

    Doubly Occupied:

       1A    -20.605263     2A    -20.545049     3A    -11.377953
       4A    -11.283701     5A    -11.245590     6A    -11.245546
       7A    -11.244279     8A    -11.241862     9A    -11.237667
      10A    -11.236900    11A     -1.471918    12A     -1.363956
      13A     -1.165436    14A     -1.047857    15A     -1.024987
      16A     -0.978190    17A     -0.860939    18A     -0.834543
      19A     -0.777841    20A     -0.739795    21A     -0.683206
      22A     -0.676617    23A     -0.671524    24A     -0.631513
      25A     -0.624109    26A     -0.598127    27A     -0.587022
      28A     -0.561195    29A     -0.528717    30A     -0.516843
      31A     -0.503104    32A     -0.498987    33A     -0.458672
      34A     -0.443649    35A     -0.345121    36A     -0.341158

  @DF-RHF Final Energy:  -457.34828682117279

   => Energetics <=

    Nuclear Repulsion Energy =            493.1776219096821023
    One-Electron Energy =               -1600.6539272951763451
    Two-Electron Energy =                 650.1280185643217919
    DFT Exchange-Correlation Energy =       0.0000000000000000
    Empirical Dispersion Energy =           0.0000000000000000
    PCM Polarization Energy =               0.0000000000000000
    EFP Energy =                            0.0000000000000000
    Total Energy =                       -457.3482868211724508

  Mulliken Charges: (a.u.)
   Center  Symbol    Alpha    Beta     Spin     Total
       1     H     0.39532  0.39532  0.00000  0.20936
       2     C     3.08991  3.08991  0.00000 -0.17982
       3     C     3.10708  3.10708  0.00000 -0.21415
       4     C     3.10711  3.10711  0.00000 -0.21422
       5     H     0.39533  0.39533  0.00000  0.20935
       6     C     3.08640  3.08640  0.00000 -0.17280
       7     H     0.39624  0.39624  0.00000  0.20753
       8     C     3.08717  3.08717  0.00000 -0.17433
       9     H     0.37596  0.37596  0.00000  0.24809
      10     C     3.07797  3.07797  0.00000 -0.15595
      11     H     0.38066  0.38066  0.00000  0.23868
      12     C     2.57976  2.57976  0.00000  0.84048
      13     O     4.31524  4.31524  0.00000 -0.63048
      14     O     4.28954  4.28954  0.00000 -0.57909
      15     C     3.09394  3.09394  0.00000 -0.18788
      16     H     0.41138  0.41138  0.00000  0.17724
      17     H     0.40765  0.40765  0.00000  0.18470
      18     H     0.40335  0.40335  0.00000  0.19330

   Total alpha = 36.00000, Total beta = 36.00000, Total charge = -0.00000
