  ==> Input File <==

--------------------------------------------------------------------------
set {
	reference rhf
	basis 6-31G*
}

set_num_threads( 4 )
memory 2 gb

molecule MOL {
0 1

H	 -2.172150	 0.880146	 0.502514
C	 -2.018062	 -0.000025	 -0.114509
O	 -0.774054	 0.001095	 -0.743181
H	 -2.760490	 0.003458	 -0.901350
H	 -2.173624	 -0.884374	 0.496163
C	 -0.439573	 -1.044834	 -1.637992
C	 0.968138	 -0.682948	 -2.106393
C	 -0.419919	 -2.399258	 -0.922213
C	 -1.396338	 -1.076228	 -2.834123
H	 1.642399	 -0.633663	 -1.258823
H	 0.962895	 0.287775	 -2.589139
H	 1.347333	 -1.417820	 -2.809128
H	 0.203787	 -2.346557	 -0.036074
H	 -0.017799	 -3.165051	 -1.577545
H	 -1.412389	 -2.718105	 -0.622387
H	 -1.458265	 -0.094308	 -3.291342
H	 -1.041255	 -1.778653	 -3.581150
H	 -2.396894	 -1.383992	 -2.549869

	symmetry c1
}
set optking {
	frozen_dihedral = ("
		6 3 2 5
	")
}

ee = optimize('scf')
oeprop('DIPOLE', 'QUADRUPOLE', 'MULLIKEN_CHARGES')
f=open( 'psi4out.xyz', 'w' )
f.write( "18  " )
f.write( str(ee) + "\n" )
f.write( MOL.save_string_xyz() )
f.close()
--------------------------------------------------------------------------

    Molecular point group: c1
  Charge       = 0
  Multiplicity = 1
  Basis Set: 6-31G*
  Basis Set:
  @DF-RHF Final Energy:  -271.17276183207179
    Total Energy =                       -271.1727618320719557
    Molecular point group: c1
  Basis Set: 6-31G*
  Basis Set:
  Basis Set: 6-31G*
  Basis Set:
  @DF-RHF Final Energy:  -271.17489097924596
    Total Energy =                       -271.1748909792457880
  Basis Set: 6-31G*
  Basis Set:
  Basis Set: 6-31G*
  Basis Set:
  @DF-RHF Final Energy:  -271.17546496732768
    Total Energy =                       -271.1754649673275708
  Basis Set: 6-31G*
  Basis Set:
  Basis Set: 6-31G*
  Basis Set:
  @DF-RHF Final Energy:  -271.17540319892760
    Total Energy =                       -271.1754031989273699
  Basis Set: 6-31G*
  Basis Set:
  @DF-RHF Final Energy:  -271.17549003158035
    Total Energy =                       -271.1754900315802956
  Basis Set: 6-31G*
  Basis Set:
  @DF-RHF Final Energy:  -271.17549315246094
    Total Energy =                       -271.1754931524606036
  Basis Set: 6-31G*
  Basis Set:
  Basis Set: 6-31G*
  Basis Set:
  @DF-RHF Final Energy:  -271.17549086262699
    Total Energy =                       -271.1754908626268161
  Basis Set: 6-31G*
  Basis Set:
  Basis Set: 6-31G*
  Basis Set:
  @DF-RHF Final Energy:  -271.17549453836182
    Total Energy =                       -271.1754945383618747
  Basis Set: 6-31G*
  Basis Set:
  Charge       = 0
  Multiplicity = 1
  Basis Set: 6-31G*
  Basis Set:

    Orbital Energies (a.u.)
    -----------------------

    Doubly Occupied:

       1A    -20.546936     2A    -11.281279     3A    -11.260514
       4A    -11.208860     5A    -11.208482     6A    -11.203193
       7A     -1.370105     8A     -1.073057     9A     -0.945751
      10A     -0.939770    11A     -0.912424    12A     -0.752339
      13A     -0.655193    14A     -0.644270    15A     -0.637297
      16A     -0.593054    17A     -0.574933    18A     -0.552676
      19A     -0.534080    20A     -0.523716    21A     -0.514576
      22A     -0.487027    23A     -0.486548    24A     -0.438834
      25A     -0.404688

  @DF-RHF Final Energy:  -271.17549469562755

   => Energetics <=

    Nuclear Repulsion Energy =            272.2801314807416020
    One-Electron Energy =                -907.4120487260586287
    Two-Electron Energy =                 363.9564225496895915
    DFT Exchange-Correlation Energy =       0.0000000000000000
    Empirical Dispersion Energy =           0.0000000000000000
    PCM Polarization Energy =               0.0000000000000000
    EFP Energy =                            0.0000000000000000
    Total Energy =                       -271.1754946956274352
    Molecular point group: c1
  Basis Set: 6-31G*
  Basis Set:

  -Total Gradient:
     Atom            X                  Y                   Z
    ------   -----------------  -----------------  -----------------
       1       -0.000016497321     0.000005509774     0.000004565676
       2        0.000032826166     0.000031131656     0.000095094685
       3       -0.000005606712     0.000047040366    -0.000039083954
       4        0.000014053383     0.000004230921     0.000001559298
       5       -0.000026081421     0.000001647318    -0.000030158231
       6       -0.000039723401    -0.000025974762     0.000036448578
       7       -0.000030476752    -0.000012041112     0.000012251597
       8        0.000033495629    -0.000015811123    -0.000017996703
       9        0.000020154649    -0.000018333895    -0.000042887484
      10       -0.000002193125    -0.000002915114     0.000004071908
      11       -0.000004741449     0.000001712508    -0.000000797851
      12       -0.000006412803    -0.000001078706     0.000002278703
      13       -0.000001189793    -0.000005891808     0.000008066612
      14        0.000005913000    -0.000006634135     0.000003254043
      15        0.000020220621     0.000002193952    -0.000017764791
      16        0.000000630408    -0.000000945856     0.000001062111
      17       -0.000008248249    -0.000002167541    -0.000017001422
      18        0.000013877170    -0.000001672445    -0.000002962778

  **** Optimization is complete! (in 9 steps) ****
    Final optimized geometry and variables:
    Molecular point group: c1

    Geometry (in Angstrom), charge = 0, multiplicity = 1:

    H           -1.364299980883     1.723246349116     1.897981613436
    C           -1.339120976019     0.859932170000     1.246534616302
    O           -0.084189428657     0.857301738457     0.639975796837
    H           -2.146724343246     0.953148341640     0.526609730286
    H           -1.511655867368    -0.026510906177     1.849493057416
    C            0.260210892439    -0.185443729205    -0.254885979609
    C            1.666850156073     0.186553051916    -0.718373674712
    C            0.287758952313    -1.539560080129     0.461315757802
    C           -0.691939975060    -0.224389511798    -1.454444947571
    H            2.337081727194     0.243115095800     0.131909542468
    H            1.655965626214     1.156092602600    -1.203440859541
    H            2.054832674546    -0.547000998595    -1.417674641325
    H            0.908631718449    -1.481708228776     1.349070087531
    H            0.697091132054    -2.302862369010    -0.192482047324
    H           -0.703095649339    -1.865473212483     0.758738923632
    H           -0.761823144549     0.757344061855    -1.910984755250
    H           -0.327426201841    -0.922457770028    -2.201011674920
    H           -1.690417888083    -0.542161629304    -1.173908323695

  Mulliken Charges: (a.u.)
   Center  Symbol    Alpha    Beta     Spin     Total
       1     H     0.41283  0.41283  0.00000  0.17434
       2     C     3.07970  3.07970  0.00000 -0.15941
       3     O     4.31845  4.31845  0.00000 -0.63689
       4     H     0.42920  0.42920  0.00000  0.14160
       5     H     0.42967  0.42967  0.00000  0.14065
       6     C     2.84224  2.84224  0.00000  0.31553
       7     C     3.23300  3.23300  0.00000 -0.46601
       8     C     3.24706  3.24706  0.00000 -0.49413
       9     C     3.24810  3.24810  0.00000 -0.49620
      10     H     0.41403  0.41403  0.00000  0.17194
      11     H     0.41422  0.41422  0.00000  0.17157
      12     H     0.42514  0.42514  0.00000  0.14972
      13     H     0.41327  0.41327  0.00000  0.17346
      14     H     0.41985  0.41985  0.00000  0.16030
      15     H     0.42033  0.42033  0.00000  0.15933
      16     H     0.41333  0.41333  0.00000  0.17334
      17     H     0.41943  0.41943  0.00000  0.16114
      18     H     0.42015  0.42015  0.00000  0.15971

   Total alpha = 25.00000, Total beta = 25.00000, Total charge = -0.00000
