  ==> Input File <==

--------------------------------------------------------------------------
set {
	reference rhf
	basis cc-pvtz
}

set_num_threads( 4 )
memory 2 gb

molecule MOL {
0 1

H	 1.113263	 2.266673	 2.703310
O	 1.755852	 2.064290	 2.046925
C	 1.233534	 1.312929	 1.061419
C	 2.076878	 0.941345	 0.024203
C	 -0.085483	 0.912285	 1.055239
H	 3.098968	 1.263666	 0.048675
C	 1.597828	 0.172654	 -1.011642
H	 -0.758003	 1.184283	 1.842025
C	 -0.532034	 0.141680	 0.000000
H	 2.256888	 -0.109720	 -1.808920
C	 0.276783	 -0.242045	 -1.040121
N	 -1.937041	 -0.281114	 0.000000
H	 -0.108962	 -0.838855	 -1.837454
O	 -2.159542	 -1.446261	 0.000000
O	 -2.764978	 0.565773	 0.000000

	symmetry c1
}
set optking {
	frozen_dihedral = ("
		11 9 12 14
	")
}

ee = optimize('scf')
oeprop('DIPOLE', 'QUADRUPOLE', 'MULLIKEN_CHARGES')
f=open( 'psi4out.xyz', 'w' )
f.write( "15  " )
f.write( str(ee) + "\n" )
f.write( MOL.save_string_xyz() )
f.close()
--------------------------------------------------------------------------

    Molecular point group: c1
  Charge       = 0
  Multiplicity = 1
  Basis Set: CC-PVTZ
  Basis Set:
  @DF-RHF Final Energy:  -509.21233494320211
    Total Energy =                       -509.2123349432018813
    Molecular point group: c1
  Basis Set: CC-PVTZ
  Basis Set:
  Basis Set: CC-PVTZ
  Basis Set:
  @DF-RHF Final Energy:  -509.20623338039667
    Total Energy =                       -509.2062333803963838
  Basis Set: CC-PVTZ
  Basis Set:
  Basis Set: CC-PVTZ
  Basis Set:
  @DF-RHF Final Energy:  -509.21252368619412
    Total Energy =                       -509.2125236861946860
  Basis Set: CC-PVTZ
  Basis Set:
  Basis Set: CC-PVTZ
  Basis Set:
  @DF-RHF Final Energy:  -509.21281898520158
    Total Energy =                       -509.2128189852016931
  Basis Set: CC-PVTZ
  Basis Set:
  Basis Set: CC-PVTZ
  Basis Set:
  @DF-RHF Final Energy:  -509.21282102160069
    Total Energy =                       -509.2128210216001207
  Basis Set: CC-PVTZ
  Basis Set:
  Charge       = 0
  Multiplicity = 1
  Basis Set: CC-PVTZ
  Basis Set:

    Orbital Energies (a.u.)
    -----------------------

    Doubly Occupied:

       1A    -20.610132     2A    -20.599412     3A    -20.598775
       4A    -15.850520     5A    -11.330122     6A    -11.313054
       7A    -11.264864     8A    -11.263916     9A    -11.258476
      10A    -11.252142    11A     -1.646842    12A     -1.443027
      13A     -1.429991    14A     -1.204421    15A     -1.096713
      16A     -1.049774    17A     -0.966944    18A     -0.885946
      19A     -0.833423    20A     -0.794005    21A     -0.766299
      22A     -0.740805    23A     -0.724532    24A     -0.712760
      25A     -0.673824    26A     -0.636300    27A     -0.623385
      28A     -0.596989    29A     -0.564953    30A     -0.549755
      31A     -0.534332    32A     -0.495208    33A     -0.489578
      34A     -0.460283    35A     -0.377244    36A     -0.346558

  @DF-RHF Final Energy:  -509.21282157330734

   => Energetics <=

    Nuclear Repulsion Energy =            504.2429461939117346
    One-Electron Energy =               -1694.9409247005867201
    Two-Electron Energy =                 681.4851569333677617
    DFT Exchange-Correlation Energy =       0.0000000000000000
    Empirical Dispersion Energy =           0.0000000000000000
    PCM Polarization Energy =               0.0000000000000000
    EFP Energy =                            0.0000000000000000
    Total Energy =                       -509.2128215733073375
    Molecular point group: c1
  Basis Set: CC-PVTZ
  Basis Set:

  -Total Gradient:
     Atom            X                  Y                   Z
    ------   -----------------  -----------------  -----------------
       1       -0.000000143158    -0.000002423140     0.000004468984
       2       -0.000006932854     0.000013812983    -0.000001342356
       3        0.000001210037    -0.000043196859    -0.000025334250
       4        0.000013132615    -0.000022295161     0.000024786623
       5       -0.000001522540    -0.000095812531    -0.000003379064
       6        0.000000748809    -0.000002139064    -0.000000770554
       7       -0.000031667399     0.000060905491    -0.000026929085
       8       -0.000015509640     0.000006402781     0.000024130696
       9        0.001441423685    -0.005324528566     0.004905125834
      10       -0.000000366244    -0.000007719583     0.000005151755
      11       -0.001018289985     0.003721308075    -0.002058839309
      12       -0.000441491291     0.001934844219    -0.007991710893
      13       -0.000006925502    -0.000018506080    -0.000016348084
      14        0.000008118856    -0.000220732471     0.005149421598
      15        0.000058214612     0.000000079902     0.000011568111

  **** Optimization is complete! (in 6 steps) ****
    Final optimized geometry and variables:
    Molecular point group: c1

    Geometry (in Angstrom), charge = 0, multiplicity = 1:

    H            1.227982264848     1.851849449651     2.450062462118
    O            1.871997502668     1.644018928868     1.796857907706
    C            1.352981658172     0.892773194789     0.811680071591
    C            2.196269659718     0.527925481463    -0.228297986266
    C            0.031419208881     0.493934220597     0.801782951856
    H            3.215615430989     0.858174357261    -0.206476617353
    C            1.718357239311    -0.238797606523    -1.265652634352
    H           -0.650285300808     0.789695441196     1.574934721756
    C           -0.398055253711    -0.298217162031    -0.239780996034
    H            2.374859709083    -0.506509833321    -2.070243758944
    C            0.402146929654    -0.672147185134    -1.285928753556
    N           -1.808181222286    -0.692062130197    -0.258573783207
    H            0.020593150572    -1.282483793780    -2.078186072165
    O           -2.045305917362    -1.851964631142    -0.290961003030
    O           -2.612235080572     0.176762903954    -0.203752611092

  Mulliken Charges: (a.u.)
   Center  Symbol    Alpha    Beta     Spin     Total
       1     H     0.38451  0.38451  0.00000  0.23098
       2     O     4.16727  4.16727  0.00000 -0.33455
       3     C     2.84266  2.84266  0.00000  0.31468
       4     C     3.10491  3.10491  0.00000 -0.20983
       5     C     3.14070  3.14070  0.00000 -0.28140
       6     H     0.41399  0.41399  0.00000  0.17201
       7     C     3.05094  3.05094  0.00000 -0.10188
       8     H     0.41947  0.41947  0.00000  0.16107
       9     C     2.92581  2.92581  0.00000  0.14838
      10     H     0.41632  0.41632  0.00000  0.16736
      11     C     3.10856  3.10856  0.00000 -0.21712
      12     N     3.28288  3.28288  0.00000  0.43425
      13     H     0.41087  0.41087  0.00000  0.17827
      14     O     4.16434  4.16434  0.00000 -0.32869
      15     O     4.16676  4.16676  0.00000 -0.33352

   Total alpha = 36.00000, Total beta = 36.00000, Total charge =  0.00000
