                              Psi4 1.0.54 Driver

  ==> Input File <==

--------------------------------------------------------------------------
set {
	reference rhf
	basis cc-pvtz
}

set_num_threads( 4 )
memory 2 gb

molecule MOL {
0 1

H	 -0.232996	 -0.490787	 -2.043604
C	 -0.626191	 -1.074571	 -1.214461
O	 -1.401606	 -0.295183	 -0.366624
H	 -1.254673	 -1.859465	 -1.609226
H	 0.210390	 -1.528981	 -0.686703
C	 -0.718530	 0.758693	 0.228682
C	 0.718529	 0.758687	 -0.228709
H	 -1.176498	 1.708665	 -0.046615
H	 -0.748705	 0.673525	 1.312779
O	 1.401606	 -0.295166	 0.366636
H	 0.748705	 0.673477	 -1.312803
H	 1.176496	 1.708671	 0.046552
C	 2.714315	 -0.441627	 -0.061017
H	 2.765292	 -0.641548	 -1.128869
H	 3.305661	 0.447341	 0.150952
H	 3.143725	 -1.278506	 0.470147

	symmetry c1
}
set optking {
	frozen_dihedral = ("
		2 3 6 7
	")
}

ee,wfn = optimize('scf', return_wfn=True)
oeprop( wfn, 'DIPOLE', 'QUADRUPOLE', 'MULLIKEN_CHARGES')
f=open( 'psi4out.xyz', 'w' )
f.write( "16  " )
f.write( str(ee) + "\n" )
f.write( MOL.save_string_xyz() )
f.close()
--------------------------------------------------------------------------

    Molecular point group: c1
  Charge       = 0
  Multiplicity = 1
  Basis Set: CC-PVTZ
  Basis Set:
  @DF-RHF Final Energy:  -307.06861408278974
    Total Energy =                       -307.0686140827898498
    Molecular point group: c1
  Basis Set: CC-PVTZ
  Basis Set:
  Basis Set: CC-PVTZ
  Basis Set:
  @DF-RHF Final Energy:  -307.05264172519026
    Total Energy =                       -307.0526417251902558
  Basis Set: CC-PVTZ
  Basis Set:
  Basis Set: CC-PVTZ
  Basis Set:
  @DF-RHF Final Energy:  -307.08445241159569
    Total Energy =                       -307.0844524115956915
  Basis Set: CC-PVTZ
  Basis Set:
  Basis Set: CC-PVTZ
  Basis Set:
  @DF-RHF Final Energy:  -307.08740859066972
    Total Energy =                       -307.0874085906697246
  Basis Set: CC-PVTZ
  Basis Set:
  @DF-RHF Final Energy:  -307.08807044101502
    Total Energy =                       -307.0880704410150202
  @DF-RHF Final Energy:  -307.08838748066415
    Total Energy =                       -307.0883874806642666
  Basis Set: CC-PVTZ
  Basis Set:
  @DF-RHF Final Energy:  -307.08850768971234
    Total Energy =                       -307.0885076897123440
  Basis Set: CC-PVTZ
  Basis Set:
  Basis Set: CC-PVTZ
  Basis Set:
  @DF-RHF Final Energy:  -307.08853851165350
    Total Energy =                       -307.0885385116534394
  Basis Set: CC-PVTZ
  Basis Set:
  Basis Set: CC-PVTZ
  Basis Set:
  @DF-RHF Final Energy:  -307.08854174116385
    Total Energy =                       -307.0885417411637945
  Basis Set: CC-PVTZ
  Basis Set:
  Charge       = 0
  Multiplicity = 1
  Basis Set: CC-PVTZ
  Basis Set:

    Orbital Energies (a.u.)
    -----------------------

    Doubly Occupied:

       1A    -20.557680     2A    -20.539422     3A    -11.275321
       4A    -11.269725     5A    -11.266949     6A    -11.254763
       7A     -1.394724     8A     -1.365898     9A     -1.031129
      10A     -0.951828    11A     -0.898874    12A     -0.811396
      13A     -0.695491    14A     -0.684053    15A     -0.658108
      16A     -0.637196    17A     -0.627634    18A     -0.591721
      19A     -0.559215    20A     -0.546802    21A     -0.517431
      22A     -0.494614    23A     -0.447618    24A     -0.427399
      25A     -0.405909

  @DF-RHF Final Energy:  -307.08854238153555

   => Energetics <=

    Nuclear Repulsion Energy =            264.3641789609833381
    One-Electron Energy =                -943.0836415350564721
    Two-Electron Energy =                 371.6309201925378147
    DFT Exchange-Correlation Energy =       0.0000000000000000
    Empirical Dispersion Energy =           0.0000000000000000
    PCM Polarization Energy =               0.0000000000000000
    EFP Energy =                            0.0000000000000000
    Total Energy =                       -307.0885423815352624
    Molecular point group: c1
  Basis Set: CC-PVTZ
  Basis Set:

  -Total Gradient:
     Atom            X                  Y                   Z
    ------   -----------------  -----------------  -----------------
       1       -0.000011770321     0.000014312471     0.000014553357
       2        0.000282180614    -0.000466364233     0.000333089470
       3       -0.000468443867     0.000885221303    -0.000690313116
       4       -0.000009826128    -0.000008172795    -0.000004992374
       5       -0.000000430776    -0.000000070716     0.000002680959
       6        0.000441982769    -0.000795669733     0.000676984051
       7       -0.000232559852     0.000382695380    -0.000305067158
       8        0.000004166718    -0.000004572226    -0.000000900894
       9       -0.000002882577    -0.000006724496     0.000000928023
      10        0.000043804922     0.000017139145    -0.000024928321
      11       -0.000008700096     0.000007458508    -0.000020446545
      12        0.000010278670     0.000001049367    -0.000003641521
      13       -0.000086902317    -0.000011587799     0.000033695940
      14        0.000010297836     0.000001305076    -0.000010251656
      15        0.000001289919    -0.000001514558     0.000000303834
      16        0.000027514485    -0.000014504693    -0.000001694049

  **** Optimization is complete! (in 10 steps) ****
    Final optimized geometry and variables:
    Molecular point group: c1

    Geometry (in Angstrom), charge = 0, multiplicity = 1:

    H           -1.078124449386    -0.334598657165    -2.017510751474
    C           -1.249450748430    -1.032262998823    -1.201979745104
    O           -1.798786184415    -0.410640117856    -0.082276394072
    H           -1.977229353842    -1.758753621821    -1.534011802318
    H           -0.322446406290    -1.541925621682    -0.974564425639
    C           -1.083667951344     0.552836776165     0.640041220215
    C            0.313200674353     0.912311637511     0.178699518831
    H           -1.667976089621     1.468502646445     0.629901979525
    H           -1.017616903202     0.216095756256     1.668377347452
    O            1.202829932078    -0.124084090831     0.449497802079
    H            0.330149233999     1.163891790699    -0.879238029401
    H            0.606852890255     1.807713565652     0.725204430467
    C            2.519485850963     0.142639996326     0.093411218891
    H            2.615434952425     0.322461990138    -0.975168685786
    H            2.906320970686     1.009987086933     0.623856686782
    H            3.114624839750    -0.719596177809     0.356012828876

  Mulliken Charges: (a.u.)
   Center  Symbol    Alpha    Beta     Spin     Total
       1     H     0.47422  0.47422  0.00000  0.05156
       2     C     3.03829  3.03829  0.00000 -0.07658
       3     O     4.18383  4.18383  0.00000 -0.36767
       4     H     0.44288  0.44288  0.00000  0.11424
       5     H     0.46024  0.46024  0.00000  0.07953
       6     C     2.95184  2.95184  0.00000  0.09633
       7     C     3.00346  3.00346  0.00000 -0.00691
       8     H     0.46827  0.46827  0.00000  0.06346
       9     H     0.46318  0.46318  0.00000  0.07364
      10     O     4.17560  4.17560  0.00000 -0.35120
      11     H     0.46299  0.46299  0.00000  0.07402
      12     H     0.45650  0.45650  0.00000  0.08701
      13     C     3.03777  3.03777  0.00000 -0.07555
      14     H     0.46983  0.46983  0.00000  0.06034
      15     H     0.46680  0.46680  0.00000  0.06640
      16     H     0.44431  0.44431  0.00000  0.11139

   Total alpha = 25.00000, Total beta = 25.00000, Total charge =  0.00000

*** Psi4 exiting successfully. Buy a developer a beer!
