                              Psi4 1.0.54 Driver

  ==> Input File <==

--------------------------------------------------------------------------
set {
	reference rhf
	basis cc-pvtz
}

set_num_threads( 4 )
memory 2 gb

molecule MOL {
0 1

H	 -3.258660	 -0.290394	 1.471450
C	 -3.307964	 -0.275695	 0.374072
C	 -2.653809	 0.914422	 -0.273689
O	 -3.855140	 -1.148880	 -0.205112
C	 -1.216901	 1.136108	 0.207794
H	 -2.700131	 0.790676	 -1.347875
H	 -3.256452	 1.781007	 -0.010713
C	 -0.247837	 0.040196	 -0.230469
H	 -0.872882	 2.093195	 -0.169002
H	 -1.209325	 1.218376	 1.291938
C	 1.181757	 0.280428	 0.247371
H	 -0.259600	 -0.030819	 -1.314870
H	 -0.591284	 -0.923375	 0.136958
C	 2.151032	 -0.811012	 -0.202643
H	 1.515939	 1.247397	 -0.115449
H	 1.191514	 0.341223	 1.333422
C	 3.580021	 -0.656538	 0.320835
H	 2.170545	 -0.847575	 -1.289412
H	 1.766632	 -1.772905	 0.124928
C	 4.382746	 0.464460	 -0.334971
H	 4.103851	 -1.594740	 0.166653
H	 3.552892	 -0.499104	 1.395910
H	 4.421397	 0.336848	 -1.412105
H	 3.958095	 1.440385	 -0.132669
H	 5.402582	 0.471944	 0.032239

	symmetry c1
}
set optking {
	frozen_dihedral = ("
		20 17 14 18
	")
}

ee,wfn = optimize('scf', return_wfn=True)
oeprop( wfn, 'DIPOLE', 'QUADRUPOLE', 'MULLIKEN_CHARGES')
f=open( 'psi4out.xyz', 'w' )
f.write( "25  " )
f.write( str(ee) + "\n" )
f.write( MOL.save_string_xyz() )
f.close()
--------------------------------------------------------------------------

    Molecular point group: c1
  Charge       = 0
  Multiplicity = 1
  Basis Set: CC-PVTZ
  Basis Set:
  @DF-RHF Final Energy:  -387.26022750227537
    Total Energy =                       -387.2602275022751428
    Molecular point group: c1
  Basis Set: CC-PVTZ
  Basis Set:
  Basis Set: CC-PVTZ
  Basis Set:
  @DF-RHF Final Energy:  -387.26024848587707
    Total Energy =                       -387.2602484858771277
  Basis Set: CC-PVTZ
  Basis Set:
  Basis Set: CC-PVTZ
  Basis Set:
  @DF-RHF Final Energy:  -387.26028185991453
    Total Energy =                       -387.2602818599143575
  Basis Set: CC-PVTZ
  Basis Set:
  Basis Set: CC-PVTZ
  Basis Set:
  @DF-RHF Final Energy:  -387.26025381719478
    Total Energy =                       -387.2602538171952347
  Basis Set: CC-PVTZ
  Basis Set:
  Basis Set: CC-PVTZ
  Basis Set:
  @DF-RHF Final Energy:  -387.26028263153904
    Total Energy =                       -387.2602826315392122
  Basis Set: CC-PVTZ
  Basis Set:
  Charge       = 0
  Multiplicity = 1
  Basis Set: CC-PVTZ
  Basis Set:

    Orbital Energies (a.u.)
    -----------------------

    Doubly Occupied:

       1A    -20.551362     2A    -11.320966     3A    -11.233784
       4A    -11.232839     5A    -11.221683     6A    -11.217717
       7A    -11.216203     8A    -11.215012     9A    -11.208922
      10A     -1.406383    11A     -1.105316    12A     -1.070990
      13A     -1.014767    14A     -0.943627    15A     -0.875081
      16A     -0.820422    17A     -0.788902    18A     -0.783259
      19A     -0.668069    20A     -0.663470    21A     -0.634671
      22A     -0.627526    23A     -0.603462    24A     -0.595797
      25A     -0.576973    26A     -0.550257    27A     -0.536176
      28A     -0.528408    29A     -0.508377    30A     -0.498107
      31A     -0.491612    32A     -0.480123    33A     -0.466266
      34A     -0.459109    35A     -0.442351    36A     -0.411877

  @DF-RHF Final Energy:  -387.26028271424400

   => Energetics <=

    Nuclear Repulsion Energy =            439.4606333819382371
    One-Electron Energy =               -1395.5021030016955592
    Two-Electron Energy =                 568.7811869055137777
    DFT Exchange-Correlation Energy =       0.0000000000000000
    Empirical Dispersion Energy =           0.0000000000000000
    PCM Polarization Energy =               0.0000000000000000
    EFP Energy =                            0.0000000000000000
    Total Energy =                       -387.2602827142435444
    Molecular point group: c1
  Basis Set: CC-PVTZ
  Basis Set:

  -Total Gradient:
     Atom            X                  Y                   Z
    ------   -----------------  -----------------  -----------------
       1        0.000008429529    -0.000007766623    -0.000008941230
       2       -0.000026827328     0.000032104881     0.000013537651
       3       -0.000004153502    -0.000011547841    -0.000005565358
       4        0.000016555256    -0.000001080652    -0.000001020145
       5        0.000005355187    -0.000008321070     0.000003947672
       6        0.000002719072    -0.000001096945     0.000000098274
       7        0.000000171429    -0.000003316322     0.000001325763
       8        0.000000809786     0.000006722946    -0.000006597579
       9       -0.000004385583     0.000001688698    -0.000000876287
      10       -0.000000549870    -0.000003096681    -0.000002858279
      11        0.000003702095    -0.000014209375     0.000011419819
      12       -0.000000824817    -0.000002097833    -0.000000902032
      13        0.000002504550     0.000002396885     0.000002031163
      14        0.000246263311    -0.001553941536    -0.000166782640
      15       -0.000001552573     0.000000468590     0.000000940528
      16       -0.000002121572     0.000005035208     0.000005447220
      17       -0.000395856100     0.000986006662     0.000766116640
      18       -0.000106679066     0.001084958566    -0.000059921172
      19        0.000005221819     0.000007245382     0.000002220785
      20        0.000258349474    -0.000519765323    -0.000554464417
      21       -0.000000162170    -0.000007424574     0.000003001465
      22       -0.000001820672     0.000003672310    -0.000004655103
      23       -0.000003650227    -0.000001307534     0.000005568139
      24        0.000001925259     0.000007562674    -0.000003071370
      25       -0.000003423305    -0.000002890491     0.000000000493

  **** Optimization is complete! (in 6 steps) ****
    Final optimized geometry and variables:
    Molecular point group: c1

    Geometry (in Angstrom), charge = 0, multiplicity = 1:

    H           -3.285392665940    -0.259203702821     1.448284161490
    C           -3.319857508342    -0.236687620185     0.350473941857
    C           -2.642719025256     0.949522804097    -0.280631630876
    O           -3.869738613278    -1.099293971296    -0.241836714279
    C           -1.210733842979     1.152072732360     0.223168227816
    H           -2.674683100479     0.832537988893    -1.356107555470
    H           -3.239460245143     1.821317928253    -0.021439301955
    C           -0.247894244862     0.047566550348    -0.207172790849
    H           -0.850297769388     2.107249514975    -0.143006991455
    H           -1.218244642948     1.228152779084     1.307749450667
    C            1.177837938290     0.270381700147     0.289928336734
    H           -0.246719788314    -0.019110504017    -1.291887372941
    H           -0.606259625997    -0.913744287853     0.152040585845
    C            2.140629842894    -0.834342989856    -0.143026191818
    H            1.530212603235     1.232340418109    -0.069854717373
    H            1.173315599326     0.333457188404     1.375699754484
    C            3.573707273716    -0.660864247817     0.364892806635
    H            2.151214027958    -0.888681638755    -1.229021220720
    H            1.756282321563    -1.787163101156     0.208960997412
    C            4.356544987682     0.456396474088    -0.320739333984
    H            4.107243879349    -1.594528028368     0.216343302449
    H            3.557918074516    -0.489940242611     1.437927534191
    H            4.405762291544     0.293054318327    -1.392318418606
    H            3.907937422961     1.428864235231    -0.155063518850
    H            5.373161206875     0.500037574701     0.052895596198

  Mulliken Charges: (a.u.)
   Center  Symbol    Alpha    Beta     Spin     Total
       1     H     0.46421  0.46421  0.00000  0.07158
       2     C     2.90484  2.90484  0.00000  0.19032
       3     C     3.08908  3.08908  0.00000 -0.17816
       4     O     4.16626  4.16626  0.00000 -0.33252
       5     C     3.11602  3.11602  0.00000 -0.23204
       6     H     0.44290  0.44290  0.00000  0.11421
       7     H     0.44051  0.44051  0.00000  0.11898
       8     C     3.08985  3.08985  0.00000 -0.17970
       9     H     0.44308  0.44308  0.00000  0.11384
      10     H     0.44987  0.44987  0.00000  0.10026
      11     C     3.09235  3.09235  0.00000 -0.18470
      12     H     0.44975  0.44975  0.00000  0.10051
      13     H     0.44806  0.44806  0.00000  0.10389
      14     C     3.09521  3.09521  0.00000 -0.19041
      15     H     0.45198  0.45198  0.00000  0.09603
      16     H     0.45434  0.45434  0.00000  0.09131
      17     C     3.09096  3.09096  0.00000 -0.18192
      18     H     0.45376  0.45376  0.00000  0.09247
      19     H     0.44730  0.44730  0.00000  0.10539
      20     C     3.15089  3.15089  0.00000 -0.30178
      21     H     0.44759  0.44759  0.00000  0.10482
      22     H     0.45509  0.45509  0.00000  0.08982
      23     H     0.45461  0.45461  0.00000  0.09078
      24     H     0.45511  0.45511  0.00000  0.08978
      25     H     0.44638  0.44638  0.00000  0.10724

   Total alpha = 36.00000, Total beta = 36.00000, Total charge = -0.00000

*** Psi4 exiting successfully. Buy a developer a beer!
