  ==> Input File <==

--------------------------------------------------------------------------
set {
	reference rhf
	basis cc-pvtz
}

set_num_threads( 4 )
memory 2 gb

molecule MOL {
0 1

H	 0.749998	 3.221528	 -2.123722
O	 0.197843	 2.746173	 -1.531087
C	 0.945118	 1.770660	 -0.851401
C	 0.027642	 1.012027	 0.090274
H	 1.739201	 2.237022	 -0.273729
H	 1.414047	 1.091626	 -1.558140
C	 -1.138737	 0.285728	 -0.581921
H	 -0.366804	 1.717680	 0.814134
H	 0.633341	 0.298911	 0.644176
C	 -1.933983	 -0.631436	 0.343653
H	 -0.763151	 -0.285569	 -1.422081
H	 -1.808359	 1.035291	 -0.992333
H	 -2.789188	 -1.049673	 -0.174718
H	 -1.335629	 -1.461368	 0.700418
H	 -2.305435	 -0.092167	 1.209725

	symmetry c1
}
set optking {
	frozen_dihedral = ("
		8 4 7 11
	")
}

ee = optimize('scf')
oeprop('DIPOLE', 'QUADRUPOLE', 'MULLIKEN_CHARGES')
f=open( 'psi4out.xyz', 'w' )
f.write( "15  " )
f.write( str(ee) + "\n" )
f.write( MOL.save_string_xyz() )
f.close()
--------------------------------------------------------------------------

    Molecular point group: c1
  Charge       = 0
  Multiplicity = 1
  Basis Set: CC-PVTZ
  Basis Set:
  @DF-RHF Final Energy:  -232.23832035849924
    Total Energy =                       -232.2383203584992657
    Molecular point group: c1
  Basis Set: CC-PVTZ
  Basis Set:
  Basis Set: CC-PVTZ
  Basis Set:
  @DF-RHF Final Energy:  -232.23873541956613
    Total Energy =                       -232.2387354195662397
  Basis Set: CC-PVTZ
  Basis Set:
  Basis Set: CC-PVTZ
  Basis Set:
  @DF-RHF Final Energy:  -232.23876256781787
    Total Energy =                       -232.2387625678179006
  Basis Set: CC-PVTZ
  Basis Set:
  Basis Set: CC-PVTZ
  Basis Set:
  @DF-RHF Final Energy:  -232.23876381139971
    Total Energy =                       -232.2387638114001334
  Basis Set: CC-PVTZ
  Basis Set:
  Charge       = 0
  Multiplicity = 1
  Basis Set: CC-PVTZ
  Basis Set:

    Orbital Energies (a.u.)
    -----------------------

    Doubly Occupied:

       1A    -20.546271     2A    -11.265918     3A    -11.210654
       4A    -11.207406     5A    -11.203376     6A     -1.364229
       7A     -1.066256     8A     -0.975195     9A     -0.857323
      10A     -0.787346    11A     -0.707924    12A     -0.641897
      13A     -0.609487    14A     -0.592800    15A     -0.548204
      16A     -0.532697    17A     -0.513064    18A     -0.476518
      19A     -0.466343    20A     -0.457602    21A     -0.433026

  @DF-RHF Final Energy:  -232.23876390096501

   => Energetics <=

    Nuclear Repulsion Energy =            188.8413751058420189
    One-Electron Energy =                -689.2332022109807212
    Two-Electron Energy =                 268.1530632041739182
    DFT Exchange-Correlation Energy =       0.0000000000000000
    Empirical Dispersion Energy =           0.0000000000000000
    PCM Polarization Energy =               0.0000000000000000
    EFP Energy =                            0.0000000000000000
    Total Energy =                       -232.2387639009647842
    Molecular point group: c1
  Basis Set: CC-PVTZ
  Basis Set:

  -Total Gradient:
     Atom            X                  Y                   Z
    ------   -----------------  -----------------  -----------------
       1       -0.000000106409     0.000004188238    -0.000000644865
       2       -0.000014390096    -0.000009526207    -0.000011282243
       3        0.000016165659     0.000029860414     0.000009833619
       4       -0.000021975126    -0.001293437617     0.001357720257
       5        0.000000033585    -0.000013377727     0.000000262262
       6        0.000000795504    -0.000002067110     0.000000798729
       7        0.000281113663    -0.001478868736     0.001067960838
       8       -0.000020059307     0.001302670380    -0.001311770422
       9       -0.000004188877     0.000000804573     0.000000517136
      10       -0.000004325129    -0.000011183511    -0.000011404218
      11       -0.000231373296     0.001448132254    -0.001102936813
      12       -0.000009401837     0.000013571460    -0.000003584147
      13        0.000011430785     0.000002710726     0.000006075158
      14        0.000000365578    -0.000001379588    -0.000002029778
      15       -0.000004084697     0.000007902452     0.000000484486

  **** Optimization is complete! (in 5 steps) ****
    Final optimized geometry and variables:
    Molecular point group: c1

    Geometry (in Angstrom), charge = 0, multiplicity = 1:

    H            1.107613454983     2.152702760392    -1.563022110727
    O            0.562375600130     1.689956485055    -0.954351175703
    C            1.296516296346     0.672750658431    -0.323684714928
    C            0.383899657608    -0.079184536754     0.625991586973
    H            2.129401293954     1.096996167996     0.231491754667
    H            1.707685902873    -0.012535685639    -1.062350000341
    C           -0.771723543895    -0.794481336476    -0.070020922383
    H           -0.007964950512     0.632864407140     1.346110000751
    H            0.987661668802    -0.796573459501     1.175527944553
    C           -1.559053872253    -1.702522350884     0.867691924088
    H           -0.386000548303    -1.371365584494    -0.906793661983
    H           -1.434178801395    -0.053839399864    -0.501587695466
    H           -2.383192846496    -2.180257870877     0.350520845635
    H           -0.929652779938    -2.484323159786     1.280458473445
    H           -1.972938761124    -1.140598959714     1.698642064861

  Mulliken Charges: (a.u.)
   Center  Symbol    Alpha    Beta     Spin     Total
       1     H     0.39571  0.39571  0.00000  0.20859
       2     O     4.19912  4.19912  0.00000 -0.39823
       3     C     2.97296  2.97296  0.00000  0.05408
       4     C     3.08814  3.08814  0.00000 -0.17628
       5     H     0.46614  0.46614  0.00000  0.06772
       6     H     0.47405  0.47405  0.00000  0.05190
       7     C     3.08232  3.08232  0.00000 -0.16463
       8     H     0.45204  0.45204  0.00000  0.09592
       9     H     0.45541  0.45541  0.00000  0.08917
      10     C     3.14945  3.14945  0.00000 -0.29891
      11     H     0.45903  0.45903  0.00000  0.08194
      12     H     0.44470  0.44470  0.00000  0.11059
      13     H     0.44885  0.44885  0.00000  0.10231
      14     H     0.45725  0.45725  0.00000  0.08549
      15     H     0.45483  0.45483  0.00000  0.09034

   Total alpha = 21.00000, Total beta = 21.00000, Total charge =  0.00000
