  ==> Input File <==

--------------------------------------------------------------------------
set {
	reference rhf
	basis cc-pvtz
}

set_num_threads( 4 )
memory 2 gb

molecule MOL {
0 1

H	 2.342730	 0.877684	 -1.045694
C	 2.360424	 0.000000	 -0.411793
C	 1.173749	 0.000000	 0.526870
H	 3.286567	 0.000000	 0.151574
H	 2.342730	 -0.877684	 -1.045694
O	 -0.000000	 0.000000	 -0.223739
H	 1.203779	 0.876757	 1.172538
H	 1.203779	 -0.876757	 1.172538
C	 -1.173749	 0.000000	 0.526870
C	 -1.339691	 1.352575	 1.184357
H	 -1.133728	 -0.783932	 1.282078
H	 -2.027218	 -0.214383	 -0.115098
H	 -0.500417	 1.563568	 1.835183
H	 -2.248457	 1.375601	 1.774896
H	 -1.394852	 2.133719	 0.436530

	symmetry c1
}
set optking {
	frozen_dihedral = ("
		11 9 6 3
	")
}

ee = optimize('scf')
oeprop('DIPOLE', 'QUADRUPOLE', 'MULLIKEN_CHARGES')
f=open( 'psi4out.xyz', 'w' )
f.write( "15  " )
f.write( str(ee) + "\n" )
f.write( MOL.save_string_xyz() )
f.close()
--------------------------------------------------------------------------

    Molecular point group: c1
  Charge       = 0
  Multiplicity = 1
  Basis Set: CC-PVTZ
  Basis Set:
  @DF-RHF Final Energy:  -232.22726116004711
    Total Energy =                       -232.2272611600471919
    Molecular point group: c1
  Basis Set: CC-PVTZ
  Basis Set:
  Basis Set: CC-PVTZ
  Basis Set:
  @DF-RHF Final Energy:  -232.22877025933380
    Total Energy =                       -232.2287702593338281
  Basis Set: CC-PVTZ
  Basis Set:
  Basis Set: CC-PVTZ
  Basis Set:
  @DF-RHF Final Energy:  -232.23056974420740
    Total Energy =                       -232.2305697442075143
  Basis Set: CC-PVTZ
  Basis Set:
  Basis Set: CC-PVTZ
  Basis Set:
  @DF-RHF Final Energy:  -232.23069395149503
    Total Energy =                       -232.2306939514950841
  Basis Set: CC-PVTZ
  Basis Set:
  Basis Set: CC-PVTZ
  Basis Set:
  @DF-RHF Final Energy:  -232.23070441392116
    Total Energy =                       -232.2307044139209893
  Basis Set: CC-PVTZ
  Basis Set:
  Charge       = 0
  Multiplicity = 1
  Basis Set: CC-PVTZ
  Basis Set:

    Orbital Energies (a.u.)
    -----------------------

    Doubly Occupied:

       1A    -20.543980     2A    -11.266273     3A    -11.265492
       4A    -11.209650     5A    -11.206577     6A     -1.378229
       7A     -1.041485     8A     -0.987467     9A     -0.864654
      10A     -0.810898    11A     -0.674981    12A     -0.651120
      13A     -0.642134    14A     -0.579179    15A     -0.548195
      16A     -0.545003    17A     -0.524422    18A     -0.503426
      19A     -0.487350    20A     -0.457241    21A     -0.411158

  @DF-RHF Final Energy:  -232.23070478918262

   => Energetics <=

    Nuclear Repulsion Energy =            192.8815762867437513
    One-Electron Energy =                -697.0267356221280579
    Two-Electron Energy =                 271.9144545462018527
    DFT Exchange-Correlation Energy =       0.0000000000000000
    Empirical Dispersion Energy =           0.0000000000000000
    PCM Polarization Energy =               0.0000000000000000
    EFP Energy =                            0.0000000000000000
    Total Energy =                       -232.2307047891824254
    Molecular point group: c1
  Basis Set: CC-PVTZ
  Basis Set:

  -Total Gradient:
     Atom            X                  Y                   Z
    ------   -----------------  -----------------  -----------------
       1        0.000003685658    -0.000000008396    -0.000003160881
       2        0.000008068564     0.000014398592     0.000003568672
       3        0.000000458364     0.000374145611     0.000013683466
       4        0.000001087214    -0.000000841399    -0.000001420763
       5       -0.000004935254     0.000001481047     0.000004099144
       6       -0.000089746566    -0.000660451790    -0.000084179293
       7       -0.000004849584    -0.000002132232    -0.000007865125
       8        0.000011477586    -0.000001949280     0.000010799648
       9        0.000250199198     0.000583082353     0.000405276442
      10        0.000016832616     0.000000616257     0.000006996193
      11       -0.000188272292    -0.000307674815    -0.000348983445
      12       -0.000005673876    -0.000017249087    -0.000003645163
      13       -0.000002933919     0.000018507123     0.000012446587
      14        0.000006718045    -0.000005754514    -0.000005123713
      15       -0.000002115753     0.000003830528    -0.000002491770

  **** Optimization is complete! (in 6 steps) ****
    Final optimized geometry and variables:
    Molecular point group: c1

    Geometry (in Angstrom), charge = 0, multiplicity = 1:

    H            2.190111029024     0.471042243161    -1.462812280085
    C            2.173268548766    -0.372880180921    -0.784414368667
    C            1.019474008611    -0.247792881182     0.187144440095
    H            3.115555035943    -0.402977738658    -0.248903405484
    H            2.079698770658    -1.278312569183    -1.370843575787
    O           -0.172210169663    -0.209899260165    -0.536725531527
    H            1.137851349438     0.651331212128     0.786163777405
    H            1.010703182692    -1.095086208857     0.871835525470
    C           -1.353740942468    -0.243947356717     0.205499256644
    C           -1.674731027882     1.061873678918     0.916042299147
    H           -1.320088021218    -1.064084961920     0.921161033701
    H           -2.139660826703    -0.469537385644    -0.503256830312
    H           -0.954480246105     1.294605001845     1.690589210803
    H           -2.650836644353     0.993726848171     1.383830048365
    H           -1.691695004476     1.881886362626     0.208047724348

  Mulliken Charges: (a.u.)
   Center  Symbol    Alpha    Beta     Spin     Total
       1     H     0.45123  0.45123  0.00000  0.09755
       2     C     3.13492  3.13492  0.00000 -0.26984
       3     C     2.96666  2.96666  0.00000  0.06667
       4     H     0.45949  0.45949  0.00000  0.08101
       5     H     0.45143  0.45143  0.00000  0.09714
       6     O     4.18181  4.18181  0.00000 -0.36363
       7     H     0.47200  0.47200  0.00000  0.05599
       8     H     0.47371  0.47371  0.00000  0.05258
       9     C     2.98281  2.98281  0.00000  0.03437
      10     C     3.14753  3.14753  0.00000 -0.29505
      11     H     0.47088  0.47088  0.00000  0.05825
      12     H     0.44975  0.44975  0.00000  0.10050
      13     H     0.45601  0.45601  0.00000  0.08798
      14     H     0.45171  0.45171  0.00000  0.09659
      15     H     0.45006  0.45006  0.00000  0.09989

   Total alpha = 21.00000, Total beta = 21.00000, Total charge = -0.00000
