  ==> Input File <==

--------------------------------------------------------------------------
set {
	reference rhf
	basis 6-31G*
}

set_num_threads( 4 )
memory 2 gb

molecule MOL {
0 1

H	 -1.836216	 1.387520	 -0.000064
C	 -1.301823	 0.443321	 -0.000031
O	 -0.003969	 0.658512	 0.000451
O	 -1.829879	 -0.616434	 -0.000857
C	 0.822925	 -0.316780	 -0.633773
C	 2.256685	 0.149826	 -0.503653
H	 0.522604	 -0.408640	 -1.668513
H	 0.666144	 -1.272840	 -0.153498
H	 2.393204	 1.112283	 -0.983311
H	 2.921091	 -0.566572	 -0.975427
H	 2.537596	 0.243955	 0.538996

	symmetry c1
}
set optking {
	frozen_dihedral = ("
		5 3 2 4
	")
}

ee = optimize('scf')
oeprop('DIPOLE', 'QUADRUPOLE', 'MULLIKEN_CHARGES')
f=open( 'psi4out.xyz', 'w' )
f.write( "11  " )
f.write( str(ee) + "\n" )
f.write( MOL.save_string_xyz() )
f.close()
--------------------------------------------------------------------------

    Molecular point group: c1
  Charge       = 0
  Multiplicity = 1
  Basis Set: 6-31G*
  Basis Set:
  @DF-RHF Final Energy:  -266.82350316450533
    Total Energy =                       -266.8235031645052686
    Molecular point group: c1
  Basis Set: 6-31G*
  Basis Set:
  Basis Set: 6-31G*
  Basis Set:
  @DF-RHF Final Energy:  -266.81583220686707
    Total Energy =                       -266.8158322068670145
  Basis Set: 6-31G*
  Basis Set:
  Basis Set: 6-31G*
  Basis Set:
  @DF-RHF Final Energy:  -266.82382650501000
    Total Energy =                       -266.8238265050100040
  Basis Set: 6-31G*
  Basis Set:
  Basis Set: 6-31G*
  Basis Set:
  @DF-RHF Final Energy:  -266.82404718004864
    Total Energy =                       -266.8240471800486375
  Basis Set: 6-31G*
  Basis Set:
  Basis Set: 6-31G*
  Basis Set:
  @DF-RHF Final Energy:  -266.82404995741683
    Total Energy =                       -266.8240499574169462
  Basis Set: 6-31G*
  Basis Set:
  Charge       = 0
  Multiplicity = 1
  Basis Set: 6-31G*
  Basis Set:

    Orbital Energies (a.u.)
    -----------------------

    Doubly Occupied:

       1A    -20.608081     2A    -20.559710     3A    -11.378867
       4A    -11.294021     5A    -11.227404     6A     -1.473202
       7A     -1.374651     8A     -1.052291     9A     -0.900568
      10A     -0.808394    11A     -0.737641    12A     -0.688363
      13A     -0.675908    14A     -0.600340    15A     -0.567587
      16A     -0.558029    17A     -0.519940    18A     -0.514268
      19A     -0.461040    20A     -0.452151

  @DF-RHF Final Energy:  -266.82405250532526

   => Energetics <=

    Nuclear Repulsion Energy =            178.7633957228956092
    One-Electron Energy =                -718.2699819252097768
    Two-Electron Energy =                 272.6825336969887417
    DFT Exchange-Correlation Energy =       0.0000000000000000
    Empirical Dispersion Energy =           0.0000000000000000
    PCM Polarization Energy =               0.0000000000000000
    EFP Energy =                            0.0000000000000000
    Total Energy =                       -266.8240525053253691
    Molecular point group: c1
  Basis Set: 6-31G*
  Basis Set:

  -Total Gradient:
     Atom            X                  Y                   Z
    ------   -----------------  -----------------  -----------------
       1        0.000021173265    -0.000013945642    -0.000007919935
       2        0.001062192358     0.002976394253    -0.017399614025
       3       -0.000345007205    -0.006245171559     0.013971647627
       4       -0.000668328879    -0.000681320181     0.009444883180
       5       -0.000057538454     0.003935123349    -0.006040251650
       6       -0.000000718872     0.000024347223     0.000011838324
       7        0.000001074110     0.000006777001     0.000027140822
       8       -0.000017825984    -0.000002911091     0.000001533907
       9        0.000006745264     0.000005511705    -0.000000869009
      10       -0.000004673360    -0.000004446035    -0.000001532747
      11        0.000002907758    -0.000000359022    -0.000006856494

  **** Optimization is complete! (in 6 steps) ****
    Final optimized geometry and variables:
    Molecular point group: c1

    Geometry (in Angstrom), charge = 0, multiplicity = 1:

    H           -1.797880367839     1.351265126172     0.320702265781
    C           -1.290758027610     0.398320986461     0.207749680228
    O            0.016762361538     0.558798028767     0.300308140986
    O           -1.855351772352    -0.636036501871     0.105382912583
    C            0.849545063509    -0.405488841611    -0.344989103142
    C            2.274184182355     0.098432321257    -0.265513907463
    H            0.521061864040    -0.513524090706    -1.370673042453
    H            0.736024658069    -1.361119009599     0.147202830623
    H            2.371176726576     1.058035484873    -0.759957244952
    H            2.942265647407    -0.607631847142    -0.747748004738
    H            2.582225374948     0.212134592293     0.767376679443

  Mulliken Charges: (a.u.)
   Center  Symbol    Alpha    Beta     Spin     Total
       1     H     0.41279  0.41279  0.00000  0.17441
       2     C     2.72777  2.72777  0.00000  0.54446
       3     O     4.29448  4.29448  0.00000 -0.58895
       4     O     4.25661  4.25661  0.00000 -0.51323
       5     C     3.00565  3.00565  0.00000 -0.01131
       6     C     3.24899  3.24899  0.00000 -0.49798
       7     H     0.41308  0.41308  0.00000  0.17384
       8     H     0.40541  0.40541  0.00000  0.18917
       9     H     0.41108  0.41108  0.00000  0.17784
      10     H     0.41520  0.41520  0.00000  0.16961
      11     H     0.40893  0.40893  0.00000  0.18213

   Total alpha = 20.00000, Total beta = 20.00000, Total charge =  0.00000
