                              Psi4 1.0.54 Driver

  ==> Input File <==

--------------------------------------------------------------------------
set {
	reference rhf
	basis cc-pvtz
}

set_num_threads( 4 )
memory 2 gb

molecule MOL {
0 1

H	 -3.681746	 -0.176583	 0.251351
C	 -3.339283	 0.143073	 -0.742341
C	 -2.404398	 1.322005	 -0.741399
O	 -3.715789	 -0.424439	 -1.708510
C	 -1.216901	 1.136108	 0.207794
H	 -2.078569	 1.504023	 -1.757292
H	 -2.988652	 2.180982	 -0.418739
C	 -0.247837	 0.040196	 -0.230469
H	 -0.685627	 2.078836	 0.280951
H	 -1.585725	 0.919356	 1.207385
C	 1.181757	 0.280428	 0.247371
H	 -0.259600	 -0.030819	 -1.314870
H	 -0.591284	 -0.923375	 0.136958
C	 2.151032	 -0.811012	 -0.202643
H	 1.515939	 1.247397	 -0.115449
H	 1.191514	 0.341223	 1.333422
C	 3.580021	 -0.656538	 0.320835
H	 2.170545	 -0.847575	 -1.289412
H	 1.766632	 -1.772905	 0.124928
C	 4.327657	 0.562694	 -0.213579
H	 4.138806	 -1.549270	 0.057813
H	 3.561991	 -0.620783	 1.406976
H	 4.355973	 0.557257	 -1.298551
H	 3.867136	 1.491650	 0.100501
H	 5.351524	 0.571613	 0.142204

	symmetry c1
}
set optking {
	frozen_dihedral = ("
		3 5 8 12
	")
}

ee,wfn = optimize('scf', return_wfn=True)
oeprop( wfn, 'DIPOLE', 'QUADRUPOLE', 'MULLIKEN_CHARGES')
f=open( 'psi4out.xyz', 'w' )
f.write( "25  " )
f.write( str(ee) + "\n" )
f.write( MOL.save_string_xyz() )
f.close()
--------------------------------------------------------------------------

    Molecular point group: c1
  Charge       = 0
  Multiplicity = 1
  Basis Set: CC-PVTZ
  Basis Set:
  @DF-RHF Final Energy:  -387.25800942267466
    Total Energy =                       -387.2580094226749452
    Molecular point group: c1
  Basis Set: CC-PVTZ
  Basis Set:
  Basis Set: CC-PVTZ
  Basis Set:
  @DF-RHF Final Energy:  -387.25799814099423
    Total Energy =                       -387.2579981409943457
  Basis Set: CC-PVTZ
  Basis Set:
  Basis Set: CC-PVTZ
  Basis Set:
  @DF-RHF Final Energy:  -387.25816119924133
    Total Energy =                       -387.2581611992419539
  Basis Set: CC-PVTZ
  Basis Set:
  Basis Set: CC-PVTZ
  Basis Set:
  @DF-RHF Final Energy:  -387.25761081201836
    Total Energy =                       -387.2576108120181289
  Basis Set: CC-PVTZ
  Basis Set:
  @DF-RHF Final Energy:  -387.25829161996444
    Total Energy =                       -387.2582916199642113
  Basis Set: CC-PVTZ
  Basis Set:
  @DF-RHF Final Energy:  -387.25827929741484
    Total Energy =                       -387.2582792974145605
  Basis Set: CC-PVTZ
  Basis Set:
  Basis Set: CC-PVTZ
  Basis Set:
  @DF-RHF Final Energy:  -387.25829817433578
    Total Energy =                       -387.2582981743357777
  Basis Set: CC-PVTZ
  Basis Set:
  Basis Set: CC-PVTZ
  Basis Set:
  @DF-RHF Final Energy:  -387.25829927885025
    Total Energy =                       -387.2582992788495631
  Basis Set: CC-PVTZ
  Basis Set:
  Charge       = 0
  Multiplicity = 1
  Basis Set: CC-PVTZ
  Basis Set:

    Orbital Energies (a.u.)
    -----------------------

    Doubly Occupied:

       1A    -20.551309     2A    -11.320646     3A    -11.233933
       4A    -11.232785     5A    -11.221101     6A    -11.217856
       7A    -11.216110     8A    -11.214775     9A    -11.208578
      10A     -1.406148    11A     -1.104397    12A     -1.070671
      13A     -1.014351    14A     -0.942989    15A     -0.876073
      16A     -0.822246    17A     -0.787050    18A     -0.782463
      19A     -0.668692    20A     -0.660672    21A     -0.636374
      22A     -0.626332    23A     -0.603642    24A     -0.593151
      25A     -0.579221    26A     -0.547706    27A     -0.537759
      28A     -0.527604    29A     -0.509676    30A     -0.498003
      31A     -0.491743    32A     -0.477616    33A     -0.464351
      34A     -0.459594    35A     -0.442573    36A     -0.411230

  @DF-RHF Final Energy:  -387.25829936245776

   => Energetics <=

    Nuclear Repulsion Energy =            439.7873911703152885
    One-Electron Energy =               -1396.1725425554886897
    Two-Electron Energy =                 569.1268520227156387
    DFT Exchange-Correlation Energy =       0.0000000000000000
    Empirical Dispersion Energy =           0.0000000000000000
    PCM Polarization Energy =               0.0000000000000000
    EFP Energy =                            0.0000000000000000
    Total Energy =                       -387.2582993624578194
    Molecular point group: c1
  Basis Set: CC-PVTZ
  Basis Set:

  -Total Gradient:
     Atom            X                  Y                   Z
    ------   -----------------  -----------------  -----------------
       1       -0.000005894080    -0.000010052331    -0.000008009253
       2       -0.000002495434    -0.000018828025    -0.000036947324
       3        0.001472880596     0.001982096371    -0.001482133361
       4       -0.000004022619     0.000021947048     0.000042124772
       5       -0.002706384457    -0.003438601106     0.002162179973
       6       -0.000003687775     0.000001846678    -0.000004771511
       7       -0.000011372270     0.000007074788    -0.000007013604
       8        0.004098951408     0.004173389775    -0.000866534047
       9       -0.000004805911    -0.000006014863    -0.000004876892
      10        0.000008186395     0.000002431474    -0.000002751685
      11       -0.000005338631    -0.000003954465     0.000000618516
      12       -0.002837841082    -0.002723499020     0.000223605342
      13       -0.000002249653     0.000007400482    -0.000009094857
      14        0.000002723770     0.000009625305    -0.000010636495
      15       -0.000006589182    -0.000011801478    -0.000000882436
      16       -0.000002288092     0.000005157665     0.000002233914
      17       -0.000004728903     0.000005465962     0.000012288670
      18        0.000000009358     0.000004291555    -0.000002083284
      19        0.000005203199    -0.000002183810    -0.000003123267
      20        0.000005835525     0.000001234952    -0.000003769721
      21       -0.000004967789    -0.000003594043     0.000004918844
      22       -0.000001398411     0.000003703428    -0.000000246502
      23        0.000000598745     0.000003343629    -0.000003735075
      24        0.000010578985    -0.000007419325     0.000001068634
      25       -0.000000903695    -0.000003060650    -0.000002429351

  **** Optimization is complete! (in 9 steps) ****
    Final optimized geometry and variables:
    Molecular point group: c1

    Geometry (in Angstrom), charge = 0, multiplicity = 1:

    H           -3.704139411586    -0.448613764768     0.570106523248
    C           -3.360839274461    -0.079892162336    -0.406124114917
    C           -2.490373829332     1.145923049942    -0.350788825303
    O           -3.684618099959    -0.638418987689    -1.396512232127
    C           -1.278929494094     0.970480207067     0.570725535723
    H           -2.184077790431     1.397367913813    -1.357527865362
    H           -3.111557514970     1.955551060864     0.025706429670
    C           -0.288288948817    -0.098383882241     0.094035302430
    H           -0.774261819906     1.929138908307     0.626494048413
    H           -1.609334012179     0.747525744036     1.580961819232
    C            1.136870501615     0.133247049906     0.585356279075
    H           -0.310991308347    -0.160044726747    -0.990125677343
    H           -0.626085321599    -1.074291149448     0.434675741621
    C            2.100615468904    -0.973962358505     0.163950577351
    H            1.483750254994     1.091634373462     0.212403514653
    H            1.133112766312     0.210839731578     1.670673081321
    C            3.527931491348    -0.818008529952     0.691628313763
    H            2.125140927744    -1.033750061680    -0.921679486018
    H            1.707948382164    -1.925996219647     0.509914468227
    C            4.289076834217     0.380760933622     0.130592671186
    H            4.080533127696    -1.721790083772     0.454554743216
    H            3.504153583481    -0.754483482522     1.776415301653
    H            4.322514361097     0.347753355994    -0.953707239790
    H            3.835621533696     1.321460806570     0.418905869882
    H            5.311259109638     0.389406905306     0.491217788449

  Mulliken Charges: (a.u.)
   Center  Symbol    Alpha    Beta     Spin     Total
       1     H     0.46467  0.46467  0.00000  0.07065
       2     C     2.90018  2.90018  0.00000  0.19964
       3     C     3.09278  3.09278  0.00000 -0.18557
       4     O     4.16714  4.16714  0.00000 -0.33429
       5     C     3.11530  3.11530  0.00000 -0.23060
       6     H     0.44261  0.44261  0.00000  0.11478
       7     H     0.44081  0.44081  0.00000  0.11839
       8     C     3.09468  3.09468  0.00000 -0.18935
       9     H     0.44485  0.44485  0.00000  0.11030
      10     H     0.44701  0.44701  0.00000  0.10598
      11     C     3.09247  3.09247  0.00000 -0.18493
      12     H     0.44497  0.44497  0.00000  0.11006
      13     H     0.44999  0.44999  0.00000  0.10001
      14     C     3.09593  3.09593  0.00000 -0.19187
      15     H     0.45145  0.45145  0.00000  0.09711
      16     H     0.45386  0.45386  0.00000  0.09227
      17     C     3.09085  3.09085  0.00000 -0.18169
      18     H     0.45212  0.45212  0.00000  0.09575
      19     H     0.44840  0.44840  0.00000  0.10320
      20     C     3.15255  3.15255  0.00000 -0.30510
      21     H     0.44771  0.44771  0.00000  0.10459
      22     H     0.45490  0.45490  0.00000  0.09019
      23     H     0.45427  0.45427  0.00000  0.09146
      24     H     0.45449  0.45449  0.00000  0.09102
      25     H     0.44600  0.44600  0.00000  0.10799

   Total alpha = 36.00000, Total beta = 36.00000, Total charge =  0.00000

*** Psi4 exiting successfully. Buy a developer a beer!
