  ==> Input File <==

--------------------------------------------------------------------------
set {
	reference rhf
	basis cc-pvtz
}

set_num_threads( 4 )
memory 2 gb

molecule MOL {
0 1

H	 -0.370188	 -2.516245	 4.343420
C	 0.082313	 -2.113517	 3.458452
C	 -0.326748	 -2.538159	 2.202195
C	 1.077181	 -1.168083	 3.549379
H	 -1.101885	 -3.275364	 2.111506
C	 0.250294	 -2.024822	 1.065740
H	 1.406972	 -0.827194	 4.512562
C	 1.670737	 -0.639134	 2.411700
H	 -0.058448	 -2.346120	 0.090489
C	 1.255896	 -1.068983	 1.164617
H	 2.442343	 0.095134	 2.516276
O	 1.760432	 -0.625184	 0.000000
C	 2.773565	 0.334879	 0.000000
H	 2.728295	 0.960928	 -0.884150
H	 3.706387	 -0.206610	 0.000000
H	 2.728295	 0.960928	 0.884150

	symmetry c1
}
set optking {
	frozen_dihedral = ("
		10 12 13 14
	")
}

ee = optimize('scf')
oeprop('DIPOLE', 'QUADRUPOLE', 'MULLIKEN_CHARGES')
f=open( 'psi4out.xyz', 'w' )
f.write( "16  " )
f.write( str(ee) + "\n" )
f.write( MOL.save_string_xyz() )
f.close()
--------------------------------------------------------------------------

    Molecular point group: c1
  Charge       = 0
  Multiplicity = 1
  Basis Set: CC-PVTZ
  Basis Set:
  @DF-RHF Final Energy:  -344.69832511166572
    Total Energy =                       -344.6983251116658948
    Molecular point group: c1
  Basis Set: CC-PVTZ
  Basis Set:
  Basis Set: CC-PVTZ
  Basis Set:
  @DF-RHF Final Energy:  -344.69968821237165
    Total Energy =                       -344.6996882123715977
  Basis Set: CC-PVTZ
  Basis Set:
  Basis Set: CC-PVTZ
  Basis Set:
  @DF-RHF Final Energy:  -344.70154984528523
    Total Energy =                       -344.7015498452848306
  Basis Set: CC-PVTZ
  Basis Set:
  Basis Set: CC-PVTZ
  Basis Set:
  @DF-RHF Final Energy:  -344.70180313241718
    Total Energy =                       -344.7018031324172966
  Basis Set: CC-PVTZ
  Basis Set:
  Basis Set: CC-PVTZ
  Basis Set:
  @DF-RHF Final Energy:  -344.70188977651543
    Total Energy =                       -344.7018897765154293
  Basis Set: CC-PVTZ
  Basis Set:
  Basis Set: CC-PVTZ
  Basis Set:
  @DF-RHF Final Energy:  -344.70189481245967
    Total Energy =                       -344.7018948124593294
  Basis Set: CC-PVTZ
  Basis Set:
  Charge       = 0
  Multiplicity = 1
  Basis Set: CC-PVTZ
  Basis Set:

    Orbital Energies (a.u.)
    -----------------------

    Doubly Occupied:

       1A    -20.577645     2A    -11.293052     3A    -11.277938
       4A    -11.231337     5A    -11.230018     6A    -11.222072
       7A    -11.218153     8A    -11.217442     9A     -1.416794
      10A     -1.151014    11A     -1.025017    12A     -1.016815
      13A     -0.943336    14A     -0.835053    15A     -0.808496
      16A     -0.724863    17A     -0.667388    18A     -0.666874
      19A     -0.658072    20A     -0.618411    21A     -0.591104
      22A     -0.581543    23A     -0.527660    24A     -0.521691
      25A     -0.511800    26A     -0.481552    27A     -0.462637
      28A     -0.339623    29A     -0.311018

  @DF-RHF Final Energy:  -344.70189687837376

   => Energetics <=

    Nuclear Repulsion Energy =            348.6864513697522625
    One-Electron Energy =               -1158.5198527333318452
    Two-Electron Energy =                 465.1315044852057667
    DFT Exchange-Correlation Energy =       0.0000000000000000
    Empirical Dispersion Energy =           0.0000000000000000
    PCM Polarization Energy =               0.0000000000000000
    EFP Energy =                            0.0000000000000000
    Total Energy =                       -344.7018968783738160
    Molecular point group: c1
  Basis Set: CC-PVTZ
  Basis Set:

  -Total Gradient:
     Atom            X                  Y                   Z
    ------   -----------------  -----------------  -----------------
       1       -0.000005868843    -0.000012262848    -0.000007314502
       2        0.000146953128     0.000129925694     0.000131613142
       3        0.000008144655     0.000001674558    -0.000235677365
       4       -0.000159817161    -0.000124109004     0.000087237221
       5       -0.000000118030     0.000000231610     0.000013421717
       6       -0.000146118008    -0.000133772911     0.000120003268
       7        0.000013643067     0.000008099246    -0.000006072783
       8        0.000013741898    -0.000023519241    -0.000211106679
       9        0.000008039688     0.000012751150    -0.000013167102
      10       -0.002104721577     0.001627200262    -0.000581166244
      11        0.000006044083     0.000022751102     0.000000706111
      12        0.002730330513    -0.001822764926     0.001176498120
      13        0.001912886593    -0.001362690484    -0.001319115193
      14       -0.002439944155     0.001654863500     0.000839925583
      15        0.000023414201     0.000029040648    -0.000016768383
      16       -0.000006610055    -0.000007418355     0.000020983090

  **** Optimization is complete! (in 7 steps) ****
    Final optimized geometry and variables:
    Molecular point group: c1

    Geometry (in Angstrom), charge = 0, multiplicity = 1:

    H           -1.629197661006    -1.210736841501     2.656992072620
    C           -1.120688652067    -0.858083865372     1.781045562807
    C           -1.538042582543    -1.252356292175     0.518826264814
    C           -0.041732872538    -0.010288601431     1.891979979046
    H           -2.376707293679    -1.914314759580     0.414042090950
    C           -0.891245932110    -0.800064120683    -0.607678964703
    H            0.300210023598     0.299343596252     2.861448261509
    C            0.623888285530     0.450259143275     0.766139677508
    H           -1.207068849287    -1.096990431276    -1.588364968738
    C            0.193797136397     0.059447493540    -0.488940759378
    H            1.471433896040     1.095100173176     0.880714775742
    O            0.786644514840     0.433235346380    -1.637903340626
    C            1.569482633889     1.591874449409    -1.684968167998
    H            1.491231073596     1.983101430262    -2.688191088743
    H            2.606250117107     1.376173207076    -1.454394975447
    H            1.201504428423     2.346778767504    -1.001596272663

  Mulliken Charges: (a.u.)
   Center  Symbol    Alpha    Beta     Spin     Total
       1     H     0.42436  0.42436  0.00000  0.15128
       2     C     3.09966  3.09966  0.00000 -0.19932
       3     C     3.05885  3.05885  0.00000 -0.11770
       4     C     3.06292  3.06292  0.00000 -0.12585
       5     H     0.42292  0.42292  0.00000  0.15417
       6     C     3.11024  3.11024  0.00000 -0.22048
       7     H     0.42318  0.42318  0.00000  0.15365
       8     C     3.13732  3.13732  0.00000 -0.27465
       9     H     0.42018  0.42018  0.00000  0.15964
      10     C     2.85438  2.85438  0.00000  0.29123
      11     H     0.42312  0.42312  0.00000  0.15375
      12     O     4.15612  4.15612  0.00000 -0.31224
      13     C     3.04208  3.04208  0.00000 -0.08416
      14     H     0.44223  0.44223  0.00000  0.11554
      15     H     0.45802  0.45802  0.00000  0.08396
      16     H     0.46442  0.46442  0.00000  0.07116

   Total alpha = 29.00000, Total beta = 29.00000, Total charge = -0.00000
