                              Psi4 1.0.54 Driver

  ==> Input File <==

--------------------------------------------------------------------------
set {
	reference rhf
	basis cc-pvtz
}

set_num_threads( 4 )
memory 2 gb

molecule MOL {
0 1

H	 3.459101	 0.139266	 -0.762951
C	 2.749156	 -0.051729	 0.031265
C	 1.322304	 0.099773	 -0.484271
H	 2.929445	 -1.053887	 0.403481
H	 2.954281	 0.646699	 0.834672
C	 0.308557	 -0.162619	 0.622645
H	 1.143368	 -0.594400	 -1.295960
H	 1.169532	 1.100095	 -0.870217
N	 -1.069352	 -0.004081	 0.085342
H	 0.371632	 -1.172932	 0.991288
H	 0.400391	 0.548875	 1.426218
O	 -1.691442	 0.934140	 0.455911
O	 -1.463126	 -0.842123	 -0.654638

	symmetry c1
}
set optking {
	frozen_dihedral = ("
		12 9 6 3
	")
}

ee,wfn = optimize('scf', return_wfn=True)
oeprop( wfn, 'DIPOLE', 'QUADRUPOLE', 'MULLIKEN_CHARGES')
f=open( 'psi4out.xyz', 'w' )
f.write( "13  " )
f.write( str(ee) + "\n" )
f.write( MOL.save_string_xyz() )
f.close()
--------------------------------------------------------------------------

    Molecular point group: c1
  Charge       = 0
  Multiplicity = 1
  Basis Set: CC-PVTZ
  Basis Set:
  @DF-RHF Final Energy:  -321.86123367102300
    Total Energy =                       -321.8612336710230011
    Molecular point group: c1
  Basis Set: CC-PVTZ
  Basis Set:
  Basis Set: CC-PVTZ
  Basis Set:
  @DF-RHF Final Energy:  -321.85483367654695
    Total Energy =                       -321.8548336765468321
  Basis Set: CC-PVTZ
  Basis Set:
  Basis Set: CC-PVTZ
  Basis Set:
  @DF-RHF Final Energy:  -321.86108879481651
    Total Energy =                       -321.8610887948167374
  Basis Set: CC-PVTZ
  Basis Set:
  Basis Set: CC-PVTZ
  Basis Set:
  @DF-RHF Final Energy:  -321.86136006072439
    Total Energy =                       -321.8613600607245075
  Basis Set: CC-PVTZ
  Basis Set:
  Basis Set: CC-PVTZ
  Basis Set:
  @DF-RHF Final Energy:  -321.86128689833242
    Total Energy =                       -321.8612868983324233
  Basis Set: CC-PVTZ
  Basis Set:
  Basis Set: CC-PVTZ
  Basis Set:
  @DF-RHF Final Energy:  -321.86140416807871
    Total Energy =                       -321.8614041680784226
  Basis Set: CC-PVTZ
  Basis Set:
  Basis Set: CC-PVTZ
  Basis Set:
  @DF-RHF Final Energy:  -321.86140493896642
    Total Energy =                       -321.8614049389662455
  Basis Set: CC-PVTZ
  Basis Set:
  Charge       = 0
  Multiplicity = 1
  Basis Set: CC-PVTZ
  Basis Set:

    Orbital Energies (a.u.)
    -----------------------

    Doubly Occupied:

       1A    -20.592189     2A    -20.588972     3A    -15.837158
       4A    -11.297480     5A    -11.253147     6A    -11.236863
       7A     -1.636215     8A     -1.420480     9A     -1.133827
      10A     -1.027759    11A     -0.884195    12A     -0.833471
      13A     -0.762134    14A     -0.739828    15A     -0.728193
      16A     -0.671746    17A     -0.604389    18A     -0.587135
      19A     -0.551394    20A     -0.521289    21A     -0.513268
      22A     -0.487373    23A     -0.474909    24A     -0.453333

  @DF-RHF Final Energy:  -321.86140526821850

   => Energetics <=

    Nuclear Repulsion Energy =            247.9183168962390482
    One-Electron Energy =                -929.8859488582951371
    Two-Electron Energy =                 360.1062266938375842
    DFT Exchange-Correlation Energy =       0.0000000000000000
    Empirical Dispersion Energy =           0.0000000000000000
    PCM Polarization Energy =               0.0000000000000000
    EFP Energy =                            0.0000000000000000
    Total Energy =                       -321.8614052682185047
    Molecular point group: c1
  Basis Set: CC-PVTZ
  Basis Set:

  -Total Gradient:
     Atom            X                  Y                   Z
    ------   -----------------  -----------------  -----------------
       1        0.000003151814    -0.000001312914     0.000000772056
       2        0.000000537376    -0.000000050769    -0.000005940469
       3        0.000004135466    -0.000258633842    -0.000068963307
       4       -0.000001193439     0.000000108349     0.000000829386
       5        0.000002457324     0.000002485832     0.000000280246
       6       -0.000052292035     0.000264101828     0.000186172277
       7        0.000002620223     0.000002703117    -0.000004814871
       8       -0.000002129763    -0.000000073266     0.000003476765
       9        0.000170133748     0.000186031100    -0.000378923069
      10        0.000000064786     0.000002276067     0.000000617896
      11       -0.000007171598     0.000001336908    -0.000001185355
      12       -0.000123335668    -0.000211529344     0.000258361155
      13        0.000003021767     0.000012556930     0.000009317288

  **** Optimization is complete! (in 8 steps) ****
    Final optimized geometry and variables:
    Molecular point group: c1

    Geometry (in Angstrom), charge = 0, multiplicity = 1:

    H            3.469018530369     0.136620650225    -0.759226293288
    C            2.754471080335    -0.051650156562     0.031491905102
    C            1.330510289916     0.096333721123    -0.493540997126
    H            2.932821280070    -1.052751541092     0.407864703987
    H            2.955663934419     0.648938927279     0.834016821570
    C            0.312651220649    -0.164344032843     0.608378754428
    H            1.155338216793    -0.596282124188    -1.305335531825
    H            1.181299426982     1.097464286823    -0.881973452425
    N           -1.070852850630    -0.000848280000     0.083868940229
    H            0.370333857593    -1.181064807201     0.965320731892
    H            0.405977924464     0.530560218015     1.424925287979
    O           -1.693280605960     0.934583825149     0.458970374612
    O           -1.454244431798    -0.817823103381    -0.685375832915

  Mulliken Charges: (a.u.)
   Center  Symbol    Alpha    Beta     Spin     Total
       1     H     0.44163  0.44163  0.00000  0.11675
       2     C     3.15117  3.15117  0.00000 -0.30233
       3     C     3.09626  3.09626  0.00000 -0.19253
       4     H     0.45182  0.45182  0.00000  0.09636
       5     H     0.45176  0.45176  0.00000  0.09648
       6     C     3.03958  3.03958  0.00000 -0.07917
       7     H     0.43464  0.43464  0.00000  0.13073
       8     H     0.44160  0.44160  0.00000  0.11679
       9     N     3.27660  3.27660  0.00000  0.44680
      10     H     0.43630  0.43630  0.00000  0.12740
      11     H     0.43331  0.43331  0.00000  0.13339
      12     O     4.17008  4.17008  0.00000 -0.34015
      13     O     4.17525  4.17525  0.00000 -0.35051

   Total alpha = 24.00000, Total beta = 24.00000, Total charge = -0.00000

*** Psi4 exiting successfully. Buy a developer a beer!
