                              Psi4 1.0.54 Driver

  ==> Input File <==

--------------------------------------------------------------------------
set {
	reference rhf
	basis cc-pvtz
}

set_num_threads( 4 )
memory 2 gb

molecule MOL {
0 1

H	 -2.498963	 -0.741158	 -0.729149
O	 -2.346257	 -0.289210	 0.080372
C	 -1.183935	 0.486039	 -0.009831
C	 0.062853	 -0.375310	 0.027457
H	 -1.178881	 1.094526	 -0.908634
H	 -1.184406	 1.155156	 0.838676
O	 1.172093	 0.457955	 -0.054438
H	 0.052476	 -1.081302	 -0.804627
H	 0.076323	 -0.955658	 0.947560
C	 1.748576	 0.532755	 -1.316696
H	 1.046641	 0.920172	 -2.051862
H	 2.593534	 1.202827	 -1.255587
H	 2.096523	 -0.441122	 -1.652875

	symmetry c1
}
set optking {
	frozen_dihedral = ("
		10 7 4 8
	")
}

ee,wfn = optimize('scf', return_wfn=True)
oeprop( wfn, 'DIPOLE', 'QUADRUPOLE', 'MULLIKEN_CHARGES')
f=open( 'psi4out.xyz', 'w' )
f.write( "13  " )
f.write( str(ee) + "\n" )
f.write( MOL.save_string_xyz() )
f.close()
--------------------------------------------------------------------------

    Molecular point group: c1
  Charge       = 0
  Multiplicity = 1
  Basis Set: CC-PVTZ
  Basis Set:
  @DF-RHF Final Energy:  -268.05795559595845
    Total Energy =                       -268.0579555959586742
    Molecular point group: c1
  Basis Set: CC-PVTZ
  Basis Set:
  Basis Set: CC-PVTZ
  Basis Set:
  @DF-RHF Final Energy:  -268.05859587647359
    Total Energy =                       -268.0585958764737029
  Basis Set: CC-PVTZ
  Basis Set:
  Basis Set: CC-PVTZ
  Basis Set:
  @DF-RHF Final Energy:  -268.05876388838567
    Total Energy =                       -268.0587638883856698
  Basis Set: CC-PVTZ
  Basis Set:
  Basis Set: CC-PVTZ
  Basis Set:
  @DF-RHF Final Energy:  -268.05876603046630
    Total Energy =                       -268.0587660304665860
  Basis Set: CC-PVTZ
  Basis Set:
  Charge       = 0
  Multiplicity = 1
  Basis Set: CC-PVTZ
  Basis Set:

    Orbital Energies (a.u.)
    -----------------------

    Doubly Occupied:

       1A    -20.554158     2A    -20.554067     3A    -11.269575
       4A    -11.269532     5A    -11.268073     6A     -1.388625
       7A     -1.369795     8A     -1.016895     9A     -0.923048
      10A     -0.840598    11A     -0.712637    12A     -0.670961
      13A     -0.663762    14A     -0.642297    15A     -0.593813
      16A     -0.578119    17A     -0.544767    18A     -0.492202
      19A     -0.476741    20A     -0.468128    21A     -0.408225

  @DF-RHF Final Energy:  -268.05876625726694

   => Energetics <=

    Nuclear Repulsion Energy =            191.5028299373117306
    One-Electron Energy =                -745.7111606460136954
    Two-Electron Energy =                 286.1495644514350261
    DFT Exchange-Correlation Energy =       0.0000000000000000
    Empirical Dispersion Energy =           0.0000000000000000
    PCM Polarization Energy =               0.0000000000000000
    EFP Energy =                            0.0000000000000000
    Total Energy =                       -268.0587662572669387
    Molecular point group: c1
  Basis Set: CC-PVTZ
  Basis Set:

  -Total Gradient:
     Atom            X                  Y                   Z
    ------   -----------------  -----------------  -----------------
       1       -0.000002154661     0.000017029246     0.000003309736
       2        0.000012322740    -0.000013218324     0.000005634774
       3        0.000006140475    -0.000006822081    -0.000005638189
       4        0.000640803072    -0.000843361867     0.000576690768
       5       -0.000000818172     0.000001990042     0.000005636254
       6       -0.000014713629     0.000010868241    -0.000004102576
       7       -0.000591058427     0.000808369091    -0.000302426727
       8       -0.000371900206     0.000479198700    -0.000425172883
       9       -0.000002227447     0.000019113654    -0.000001643630
      10        0.000325195657    -0.000470568764     0.000159903764
      11        0.000002685202    -0.000001447555    -0.000008039190
      12       -0.000001870719    -0.000001274651    -0.000002604246
      13       -0.000002403881     0.000000124267    -0.000001547854

  **** Optimization is complete! (in 5 steps) ****
    Final optimized geometry and variables:
    Molecular point group: c1

    Geometry (in Angstrom), charge = 0, multiplicity = 1:

    H           -2.380783836110    -0.950045252243    -0.394573695004
    O           -2.230741103876    -0.456563147059     0.390931917641
    C           -1.083855613750     0.335397968146     0.256264660972
    C            0.183611208586    -0.503682789302     0.280092386255
    H           -1.121016568910     0.932287926964    -0.651211397563
    H           -1.073623593107     1.018534707235     1.093445802988
    O            1.316041401189     0.308601953868     0.201855355061
    H            0.164446626737    -1.223891111241    -0.536177598708
    H            0.225246293235    -1.060796321379     1.207312183452
    C            1.937558748635     0.372762164887    -1.041143396509
    H            1.264494119277     0.731988320872    -1.815962794373
    H            2.763945434059     1.063579677839    -0.958436342618
    H            2.323115408846    -0.598083140823    -1.341955768308

  Mulliken Charges: (a.u.)
   Center  Symbol    Alpha    Beta     Spin     Total
       1     H     0.39460  0.39460  0.00000  0.21080
       2     O     4.20209  4.20209  0.00000 -0.40418
       3     C     2.96958  2.96958  0.00000  0.06084
       4     C     2.98119  2.98119  0.00000  0.03763
       5     H     0.47117  0.47117  0.00000  0.05766
       6     H     0.45296  0.45296  0.00000  0.09409
       7     O     4.18130  4.18130  0.00000 -0.36259
       8     H     0.47958  0.47958  0.00000  0.04085
       9     H     0.44839  0.44839  0.00000  0.10323
      10     C     3.03089  3.03089  0.00000 -0.06178
      11     H     0.47383  0.47383  0.00000  0.05234
      12     H     0.44678  0.44678  0.00000  0.10643
      13     H     0.46764  0.46764  0.00000  0.06471

   Total alpha = 21.00000, Total beta = 21.00000, Total charge = -0.00000

*** Psi4 exiting successfully. Buy a developer a beer!
