                              Psi4 1.0.54 Driver

  ==> Input File <==

--------------------------------------------------------------------------
set {
	reference rhf
	basis cc-pvtz
}

set_num_threads( 4 )
memory 2 gb

molecule MOL {
0 1

H	 2.342730	 0.877684	 -1.045694
C	 2.360424	 0.000000	 -0.411793
C	 1.173749	 0.000000	 0.526870
H	 3.286567	 0.000000	 0.151574
H	 2.342730	 -0.877684	 -1.045694
O	 0.000000	 0.000000	 -0.223739
H	 1.203779	 0.876757	 1.172538
H	 1.203779	 -0.876757	 1.172538
C	 -1.173749	 0.000000	 0.526870
C	 -0.990780	 -0.899102	 1.729959
H	 -2.006202	 -0.350007	 -0.082235
H	 -1.412270	 1.013621	 0.846515
H	 -0.768038	 -1.911389	 1.416697
H	 -1.893606	 -0.914408	 2.329787
H	 -0.173478	 -0.546320	 2.346428

	symmetry c1
}
set optking {
	frozen_dihedral = ("
		11 9 6 3
	")
}

ee,wfn = optimize('scf', return_wfn=True)
oeprop( wfn, 'DIPOLE', 'QUADRUPOLE', 'MULLIKEN_CHARGES')
f=open( 'psi4out.xyz', 'w' )
f.write( "15  " )
f.write( str(ee) + "\n" )
f.write( MOL.save_string_xyz() )
f.close()
--------------------------------------------------------------------------

    Molecular point group: c1
  Charge       = 0
  Multiplicity = 1
  Basis Set: CC-PVTZ
  Basis Set:
  @DF-RHF Final Energy:  -232.21819580027605
    Total Energy =                       -232.2181958002760211
    Molecular point group: c1
  Basis Set: CC-PVTZ
  Basis Set:
  Basis Set: CC-PVTZ
  Basis Set:
  @DF-RHF Final Energy:  -230.92970129239862
    Total Energy =                       -230.9297012923986472
  Basis Set: CC-PVTZ
  Basis Set:
  Basis Set: CC-PVTZ
  Basis Set:
  @DF-RHF Final Energy:  -231.11164220346029
    Total Energy =                       -231.1116422034605762
  Basis Set: CC-PVTZ
  Basis Set:
  Basis Set: CC-PVTZ
  Basis Set:
  @DF-RHF Final Energy:  -231.46918021124122
    Total Energy =                       -231.4691802112415360
  Basis Set: CC-PVTZ
  Basis Set:
  @DF-RHF Final Energy:  -231.82652672385677
    Total Energy =                       -231.8265267238570004
  @DF-RHF Final Energy:  -232.10244582648014
    Total Energy =                       -232.1024458264802774
  @DF-RHF Final Energy:  -232.19115563850684
    Total Energy =                       -232.1911556385067570
  @DF-RHF Final Energy:  -232.22440704708615
    Total Energy =                       -232.2244070470860606
  @DF-RHF Final Energy:  -232.21996097656015
    Total Energy =                       -232.2199609765601735
  @DF-RHF Final Energy:  -232.22718881337553
    Total Energy =                       -232.2271888133756192
  Basis Set: CC-PVTZ
  Basis Set:
  @DF-RHF Final Energy:  -232.22739283013343
    Total Energy =                       -232.2273928301333967
  Basis Set: CC-PVTZ
  Basis Set:
  Basis Set: CC-PVTZ
  Basis Set:
  @DF-RHF Final Energy:  -232.22741722182101
    Total Energy =                       -232.2274172218209287
  Basis Set: CC-PVTZ
  Basis Set:
  Basis Set: CC-PVTZ
  Basis Set:
  @DF-RHF Final Energy:  -232.22744663714448
    Total Energy =                       -232.2274466371447943
  Basis Set: CC-PVTZ
  Basis Set:
  Charge       = 0
  Multiplicity = 1
  Basis Set: CC-PVTZ
  Basis Set:

    Orbital Energies (a.u.)
    -----------------------

    Doubly Occupied:

       1A    -20.542058     2A    -11.266672     3A    -11.264919
       4A    -11.212756     5A    -11.205697     6A     -1.375176
       7A     -1.040782     8A     -0.990370     9A     -0.870572
      10A     -0.800175    11A     -0.676809    12A     -0.660174
      13A     -0.627000    14A     -0.593539    15A     -0.547645
      16A     -0.537368    17A     -0.524231    18A     -0.502932
      19A     -0.494490    20A     -0.452268    21A     -0.408528

  @DF-RHF Final Energy:  -232.22744994355867

   => Energetics <=

    Nuclear Repulsion Energy =            193.5004431300728811
    One-Electron Energy =                -698.2674610966622595
    Two-Electron Energy =                 272.5395680230307676
    DFT Exchange-Correlation Energy =       0.0000000000000000
    Empirical Dispersion Energy =           0.0000000000000000
    PCM Polarization Energy =               0.0000000000000000
    EFP Energy =                            0.0000000000000000
    Total Energy =                       -232.2274499435586108
    Molecular point group: c1
  Basis Set: CC-PVTZ
  Basis Set:

  -Total Gradient:
     Atom            X                  Y                   Z
    ------   -----------------  -----------------  -----------------
       1       -0.000017027113     0.000037253936    -0.000002592969
       2        0.000025088339    -0.000054527159    -0.000036989602
       3        0.001759419603    -0.002630224032    -0.002591169187
       4        0.000001587281    -0.000009763315     0.000002760745
       5       -0.000015809887     0.000006303278     0.000028588414
       6       -0.002157710066     0.003222474965     0.003510608999
       7       -0.000005608469    -0.000018490280    -0.000004931296
       8       -0.000001456252    -0.000057990285    -0.000027704854
       9       -0.002085080181     0.003509166661     0.000521491968
      10       -0.000068865983    -0.000020566385    -0.000008093395
      11        0.002506683623    -0.003993212517    -0.001408485519
      12       -0.000020228215     0.000004546157     0.000009072501
      13        0.000019832968    -0.000018134323    -0.000028120633
      14        0.000052924575     0.000017712065     0.000010200930
      15        0.000006249778     0.000005451234     0.000025363899

  **** Optimization is complete! (in 14 steps) ****
    Final optimized geometry and variables:
    Molecular point group: c1

    Geometry (in Angstrom), charge = 0, multiplicity = 1:

    H            1.500491410123     2.197004973380     0.791909312784
    C            1.885714388220     1.198922961208     0.624672229644
    C            0.759175757920     0.187851999923     0.614899123610
    H            2.595315599782     0.965341918062     1.410592613332
    H            2.407759095287     1.191401126833    -0.324095547504
    O           -0.116778943317     0.518782910311    -0.418168555974
    H            0.241170640108     0.199578515955     1.573639052719
    H            1.161632212304    -0.810772033963     0.475570452820
    C           -1.317193264391    -0.191391404185    -0.528742736712
    C           -1.219793598070    -1.694211495345    -0.301374728040
    H           -1.646372289549    -0.039502779772    -1.548070537638
    H           -2.059590180427     0.233894031179     0.143623860837
    H           -0.479687924193    -2.139878974857    -0.956063781079
    H           -2.180635271451    -2.142684102663    -0.526933613191
    H           -0.971502630324    -1.948385127131     0.721169323407

  Mulliken Charges: (a.u.)
   Center  Symbol    Alpha    Beta     Spin     Total
       1     H     0.45159  0.45159  0.00000  0.09683
       2     C     3.13630  3.13630  0.00000 -0.27260
       3     C     2.96662  2.96662  0.00000  0.06675
       4     H     0.45952  0.45952  0.00000  0.08096
       5     H     0.45152  0.45152  0.00000  0.09697
       6     O     4.18130  4.18130  0.00000 -0.36260
       7     H     0.47409  0.47409  0.00000  0.05181
       8     H     0.46975  0.46975  0.00000  0.06049
       9     C     2.97713  2.97713  0.00000  0.04575
      10     C     3.16137  3.16137  0.00000 -0.32274
      11     H     0.45530  0.45530  0.00000  0.08940
      12     H     0.46690  0.46690  0.00000  0.06620
      13     H     0.45000  0.45000  0.00000  0.09999
      14     H     0.44671  0.44671  0.00000  0.10659
      15     H     0.45190  0.45190  0.00000  0.09619

   Total alpha = 21.00000, Total beta = 21.00000, Total charge = -0.00000

*** Psi4 exiting successfully. Buy a developer a beer!
