  ==> Input File <==

--------------------------------------------------------------------------
set {
	reference rhf
	basis 6-31G*
}

set_num_threads( 4 )
memory 2 gb

molecule MOL {
0 1

H	 -2.679061	 -0.933874	 -0.399985
O	 -2.315789	 -0.143634	 -0.024262
C	 -0.945151	 -0.064130	 -0.333158
H	 -0.813375	 -0.223047	 -1.403232
C	 -0.232801	 -1.184051	 0.407206
C	 -0.355424	 1.302939	 0.054523
H	 -0.318824	 -0.992899	 1.473524
H	 -0.742411	 -2.122033	 0.217954
C	 1.248522	 -1.270719	 -0.013048
H	 -0.546144	 2.018388	 -0.742941
H	 -0.890929	 1.656788	 0.930149
C	 1.156425	 1.235120	 0.355905
H	 1.825384	 -1.683246	 0.809111
H	 1.357782	 -1.965923	 -0.840362
C	 1.828244	 0.099899	 -0.419275
H	 1.626109	 2.185622	 0.123525
H	 1.309438	 1.071213	 1.419539
H	 2.901447	 0.112642	 -0.255830
H	 1.681817	 0.263413	 -1.484607

	symmetry c1
}
set optking {
	frozen_dihedral = ("
		1 2 3 4
	")
}

ee = optimize('scf')
oeprop('DIPOLE', 'QUADRUPOLE', 'MULLIKEN_CHARGES')
f=open( 'psi4out.xyz', 'w' )
f.write( "19  " )
f.write( str(ee) + "\n" )
f.write( MOL.save_string_xyz() )
f.close()
--------------------------------------------------------------------------

    Molecular point group: c1
  Charge       = 0
  Multiplicity = 1
  Basis Set: 6-31G*
  Basis Set:
  @DF-RHF Final Energy:  -309.04687944923398
    Total Energy =                       -309.0468794492342681
    Molecular point group: c1
  Basis Set: 6-31G*
  Basis Set:
  Basis Set: 6-31G*
  Basis Set:
  @DF-RHF Final Energy:  -309.04855664933240
    Total Energy =                       -309.0485566493323404
  Basis Set: 6-31G*
  Basis Set:
  Basis Set: 6-31G*
  Basis Set:
  @DF-RHF Final Energy:  -309.04884814808713
    Total Energy =                       -309.0488481480870746
  Basis Set: 6-31G*
  Basis Set:
  Basis Set: 6-31G*
  Basis Set:
  @DF-RHF Final Energy:  -309.04885492233666
    Total Energy =                       -309.0488549223367727
  Basis Set: 6-31G*
  Basis Set:
  Charge       = 0
  Multiplicity = 1
  Basis Set: 6-31G*
  Basis Set:

    Orbital Energies (a.u.)
    -----------------------

    Doubly Occupied:

       1A    -20.550492     2A    -11.269443     3A    -11.217538
       4A    -11.215662     5A    -11.214255     6A    -11.212238
       7A    -11.208467     8A     -1.359272     9A     -1.108341
      10A     -1.001598    11A     -0.988095    12A     -0.846574
      13A     -0.830440    14A     -0.732244    15A     -0.707354
      16A     -0.655022    17A     -0.617778    18A     -0.606586
      19A     -0.566961    20A     -0.544191    21A     -0.531017
      22A     -0.519416    23A     -0.498034    24A     -0.485086
      25A     -0.466180    26A     -0.448909    27A     -0.429142
      28A     -0.409524

  @DF-RHF Final Energy:  -309.04885591676054

   => Energetics <=

    Nuclear Repulsion Energy =            331.3843706015409225
    One-Electron Energy =               -1076.3867357496319528
    Two-Electron Energy =                 435.9535092313302016
    DFT Exchange-Correlation Energy =       0.0000000000000000
    Empirical Dispersion Energy =           0.0000000000000000
    PCM Polarization Energy =               0.0000000000000000
    EFP Energy =                            0.0000000000000000
    Total Energy =                       -309.0488559167608287
    Molecular point group: c1
  Basis Set: 6-31G*
  Basis Set:

  -Total Gradient:
     Atom            X                  Y                   Z
    ------   -----------------  -----------------  -----------------
       1       -0.000113698728     0.000334928012    -0.000543004046
       2        0.000156612109    -0.000579048269     0.000660748978
       3       -0.000037413299     0.000811635294    -0.000138790005
       4        0.000000909069    -0.000548530747     0.000109393577
       5       -0.000063074449     0.000019962358    -0.000042677735
       6        0.000027687349     0.000013462588    -0.000030311238
       7        0.000000936093     0.000000827386    -0.000007328485
       8       -0.000003017204     0.000002499097    -0.000001794911
       9        0.000038485944     0.000020224149    -0.000004348353
      10       -0.000011390476     0.000015383362    -0.000003287738
      11       -0.000019856578    -0.000048513089    -0.000009610482
      12        0.000006945798     0.000012534213    -0.000012851718
      13        0.000027850552    -0.000001559208     0.000012611739
      14        0.000006430240     0.000005999534     0.000012177339
      15       -0.000012849863    -0.000033308604     0.000003519509
      16       -0.000002848315    -0.000003157918     0.000001119444
      17       -0.000002164562    -0.000001311163     0.000001305218
      18        0.000001792187    -0.000030171180    -0.000007764545
      19       -0.000001335864     0.000008144183     0.000000893450

  **** Optimization is complete! (in 5 steps) ****
    Final optimized geometry and variables:
    Molecular point group: c1

    Geometry (in Angstrom), charge = 0, multiplicity = 1:

    H           -2.744821802646    -0.806332572267    -0.396142334897
    O           -2.319452148411    -0.049100248722    -0.018601265145
    C           -0.946943312574    -0.077466814348    -0.330765034830
    H           -0.828345231548    -0.242236639298    -1.401477848793
    C           -0.214077648988    -1.192066510600     0.408847520709
    C           -0.370023726541     1.293024378923     0.040481423843
    H           -0.297694910468    -1.001133140405     1.475245316607
    H           -0.705267106633    -2.145327529892     0.228364940324
    C            1.266093417220    -1.265915252804    -0.018707642050
    H           -0.563304708835     1.989707042458    -0.769375440390
    H           -0.920851103961     1.655970632768     0.901500871565
    C            1.137526797655     1.236236637641     0.358440636076
    H            1.850169348663    -1.678684450713     0.798244181565
    H            1.377984792892    -1.954890794158    -0.851008894022
    C            1.829551768693     0.113903322922    -0.417692193464
    H            1.599382833899     2.193045471456     0.136336770404
    H            1.283554915998     1.067821593443     1.422647139858
    H            2.901801631934     0.138971379042    -0.249699940414
    H            1.685013332313     0.279792464453    -1.482892514461

  Mulliken Charges: (a.u.)
   Center  Symbol    Alpha    Beta     Spin     Total
       1     H     0.28287  0.28287  0.00000  0.43426
       2     O     4.37827  4.37827  0.00000 -0.75653
       3     C     2.90952  2.90952  0.00000  0.18096
       4     H     0.43057  0.43057  0.00000  0.13885
       5     C     3.17237  3.17237  0.00000 -0.34473
       6     C     3.16262  3.16262  0.00000 -0.32524
       7     H     0.41475  0.41475  0.00000  0.17050
       8     H     0.42364  0.42364  0.00000  0.15273
       9     C     3.16040  3.16040  0.00000 -0.32079
      10     H     0.41686  0.41686  0.00000  0.16629
      11     H     0.40745  0.40745  0.00000  0.18510
      12     C     3.16536  3.16536  0.00000 -0.33071
      13     H     0.41744  0.41744  0.00000  0.16511
      14     H     0.41971  0.41971  0.00000  0.16059
      15     C     3.16380  3.16380  0.00000 -0.32760
      16     H     0.41644  0.41644  0.00000  0.16712
      17     H     0.41974  0.41974  0.00000  0.16052
      18     H     0.41663  0.41663  0.00000  0.16673
      19     H     0.42157  0.42157  0.00000  0.15685

   Total alpha = 28.00000, Total beta = 28.00000, Total charge = -0.00000
