  ==> Input File <==

--------------------------------------------------------------------------
set {
	reference rhf
	basis 6-31G*
}

set_num_threads( 4 )
memory 2 gb

molecule MOL {
0 1

H	 -0.753037	 -1.297773	 0.757818
N	 -0.626943	 -0.667432	 -0.000092
C	 -1.624718	 -0.647029	 -1.045437
C	 0.469286	 0.129090	 0.000148
H	 -1.703439	 -1.616377	 -1.526243
H	 -1.328783	 0.084686	 -1.779429
H	 -2.597422	 -0.374997	 -0.649362
C	 1.788933	 -0.616240	 -0.000037
O	 0.411098	 1.327768	 -0.000049
H	 1.872803	 -1.245775	 -0.880381
H	 2.595421	 0.101576	 0.003713
H	 1.870096	 -1.252171	 0.875943

	symmetry c1
}
set optking {
	frozen_dihedral = ("
		3 2 4 9
	")
}

ee = optimize('scf')
oeprop('DIPOLE', 'QUADRUPOLE', 'MULLIKEN_CHARGES')
f=open( 'psi4out.xyz', 'w' )
f.write( "12  " )
f.write( str(ee) + "\n" )
f.write( MOL.save_string_xyz() )
f.close()
--------------------------------------------------------------------------

    Molecular point group: c1
  Charge       = 0
  Multiplicity = 1
  Basis Set: 6-31G*
  Basis Set:
  @DF-RHF Final Energy:  -246.97472131325193
    Total Energy =                       -246.9747213132518482
    Molecular point group: c1
  Basis Set: 6-31G*
  Basis Set:
  Basis Set: 6-31G*
  Basis Set:
  @DF-RHF Final Energy:  -246.97975960861757
    Total Energy =                       -246.9797596086175986
  Basis Set: 6-31G*
  Basis Set:
  Basis Set: 6-31G*
  Basis Set:
  @DF-RHF Final Energy:  -246.98446289553482
    Total Energy =                       -246.9844628955348753
  Basis Set: 6-31G*
  Basis Set:
  Basis Set: 6-31G*
  Basis Set:
  @DF-RHF Final Energy:  -246.98991960741293
    Total Energy =                       -246.9899196074128440
  Basis Set: 6-31G*
  Basis Set:
  @DF-RHF Final Energy:  -246.99090628048302
    Total Energy =                       -246.9909062804829318
  @DF-RHF Final Energy:  -246.99153197476747
    Total Energy =                       -246.9915319747674971
  @DF-RHF Final Energy:  -246.99168320538610
    Total Energy =                       -246.9916832053861526
  @DF-RHF Final Energy:  -246.99175793803485
    Total Energy =                       -246.9917579380347661
  @DF-RHF Final Energy:  -246.99176569479803
    Total Energy =                       -246.9917656947980618
  @DF-RHF Final Energy:  -246.99165640485111
    Total Energy =                       -246.9916564048513123
  @DF-RHF Final Energy:  -246.99176424238070
    Total Energy =                       -246.9917642423805546
  @DF-RHF Final Energy:  -246.99176508741922
    Total Energy =                       -246.9917650874192532
  @DF-RHF Final Energy:  -246.99176476061439
    Total Energy =                       -246.9917647606142737
  @DF-RHF Final Energy:  -246.95109773336043
    Total Energy =                       -246.9510977333603705
  @DF-RHF Final Energy:  -246.92187146187939
    Total Energy =                       -246.9218714618792205
  @DF-RHF Final Energy:  -246.92657990166680
    Total Energy =                       -246.9265799016665142
  @DF-RHF Final Energy:  -246.95026979602520
    Total Energy =                       -246.9502697960250543
  @DF-RHF Final Energy:  -246.98610081154931
    Total Energy =                       -246.9861008115490790
  @DF-RHF Final Energy:  -246.99063794042823
    Total Energy =                       -246.9906379404281438
  @DF-RHF Final Energy:  -246.99139758613521
    Total Energy =                       -246.9913975861351787
  @DF-RHF Final Energy:  -246.99174246117522
    Total Energy =                       -246.9917424611751926
  @DF-RHF Final Energy:  -246.99174405567899
    Total Energy =                       -246.9917440556788506
  @DF-RHF Final Energy:  -246.99174458997012
    Total Energy =                       -246.9917445899703239
  @DF-RHF Final Energy:  -246.99174405055035
    Total Energy =                       -246.9917440505500963
  @DF-RHF Final Energy:  -246.99174207838917
    Total Energy =                       -246.9917420783892794
  @DF-RHF Final Energy:  -246.99174242183821
    Total Energy =                       -246.9917424218381825
  @DF-RHF Final Energy:  -246.99173968128400
    Total Energy =                       -246.9917396812838888
  @DF-RHF Final Energy:  -246.99174079940494
    Total Energy =                       -246.9917407994048517
  @DF-RHF Final Energy:  -246.99174077746008
    Total Energy =                       -246.9917407774601088
  @DF-RHF Final Energy:  -246.99174074581813
    Total Energy =                       -246.9917407458181060
  @DF-RHF Final Energy:  -246.99174292881787
    Total Energy =                       -246.9917429288179846
  @DF-RHF Final Energy:  -246.99174385279900
    Total Energy =                       -246.9917438527988907
  @DF-RHF Final Energy:  -246.99174379439290
    Total Energy =                       -246.9917437943930167
  @DF-RHF Final Energy:  -246.99174372357490
    Total Energy =                       -246.9917437235748707
  @DF-RHF Final Energy:  -246.99174355538074
    Total Energy =                       -246.9917435553807081
  @DF-RHF Final Energy:  -246.99174364547071
    Total Energy =                       -246.9917436454707627
  Basis Set: 6-31G*
  Basis Set:
  @DF-RHF Final Energy:  -246.99174347365360
    Total Energy =                       -246.9917434736537416
  Basis Set: 6-31G*
  Basis Set:
  Basis Set: 6-31G*
  Basis Set:
  @DF-RHF Final Energy:  -246.99174346303138
    Total Energy =                       -246.9917434630314119
  Basis Set: 6-31G*
  Basis Set:
  Basis Set: 6-31G*
  Basis Set:
  @DF-RHF Final Energy:  -246.99174353742362
    Total Energy =                       -246.9917435374236447
  Basis Set: 6-31G*
  Basis Set:
  Charge       = 0
  Multiplicity = 1
  Basis Set: 6-31G*
  Basis Set:

    Orbital Energies (a.u.)
    -----------------------

    Doubly Occupied:

       1A    -20.534809     2A    -15.574359     3A    -11.348075
       4A    -11.259595     5A    -11.235170     6A     -1.397455
       7A     -1.226327     8A     -1.015711     9A     -0.931123
      10A     -0.773010    11A     -0.690933    12A     -0.650240
      13A     -0.632396    14A     -0.594209    15A     -0.585742
      16A     -0.559822    17A     -0.547450    18A     -0.505280
      19A     -0.424479    20A     -0.392539

  @DF-RHF Final Energy:  -246.99174357007234

   => Energetics <=

    Nuclear Repulsion Energy =            180.7732950221369492
    One-Electron Energy =                -693.7726311470973997
    Two-Electron Energy =                 266.0075925548881060
    DFT Exchange-Correlation Energy =       0.0000000000000000
    Empirical Dispersion Energy =           0.0000000000000000
    PCM Polarization Energy =               0.0000000000000000
    EFP Energy =                            0.0000000000000000
    Total Energy =                       -246.9917435700723445
    Molecular point group: c1
  Basis Set: 6-31G*
  Basis Set:

  -Total Gradient:
     Atom            X                  Y                   Z
    ------   -----------------  -----------------  -----------------
       1        0.000124534036     0.000190151918     0.000503378395
       2       -0.005490413139     0.014303470658     0.009356930228
       3        0.004344106058    -0.008793853218    -0.003263171999
       4        0.000242683516    -0.008786946528    -0.018018819025
       5       -0.000055387458    -0.000024318220    -0.000002127625
       6       -0.000152775289     0.000065831578    -0.000154287504
       7        0.000046072431    -0.000006643383     0.000124282193
       8        0.000244055405    -0.000539164359    -0.000936956408
       9        0.000851180060     0.003601545687     0.012151592826
      10        0.000002437501    -0.000038066258     0.000042995341
      11       -0.000067546667     0.000050879981     0.000049740337
      12       -0.000088946457    -0.000022887856     0.000146443244

    Molecular point group: c1

    Geometry (in Angstrom), charge = 0, multiplicity = 1:

    H           -0.624281484471    -1.348350120429     0.761973717425
    N           -0.778492088147    -0.434563179344     0.387926046696
    C           -1.753248438305    -0.494083544093    -0.695881996517
    C            0.424272088767     0.215860038071     0.134358427091
    H           -1.422658392088    -1.120912260282    -1.521106159921
    H           -1.933452898034     0.504212200914    -1.066314056371
    H           -2.683853258259    -0.889278334655    -0.310012535060
    C            1.674565858995    -0.594178617263     0.406952739575
    O            0.468160099559     1.365690766954    -0.178639485115
    H            1.754429348272    -1.410236435963    -0.305527424821
    H            2.542452176167     0.043214586668     0.324184789751
    H            1.639090662850    -1.027637512400     1.402407952777

  Mulliken Charges: (a.u.)
   Center  Symbol    Alpha    Beta     Spin     Total
       1     H     0.32246  0.32246  0.00000  0.35507
       2     N     3.86635  3.86635  0.00000 -0.73269
       3     C     3.15659  3.15659  0.00000 -0.31318
       4     C     2.64755  2.64755  0.00000  0.70490
       5     H     0.42296  0.42296  0.00000  0.15408
       6     H     0.39354  0.39354  0.00000  0.21293
       7     H     0.40966  0.40966  0.00000  0.18069
       8     C     3.29855  3.29855  0.00000 -0.59711
       9     O     4.27539  4.27539  0.00000 -0.55077
      10     H     0.40806  0.40806  0.00000  0.18389
      11     H     0.39217  0.39217  0.00000  0.21565
      12     H     0.40672  0.40672  0.00000  0.18656

   Total alpha = 20.00000, Total beta = 20.00000, Total charge =  0.00000
