  ==> Input File <==

--------------------------------------------------------------------------
set {
	reference rhf
	basis 6-31G*
}

set_num_threads( 4 )
memory 2 gb

molecule MOL {
0 1

H	 3.895180	 0.349859	 -0.047341
N	 3.093306	 -0.249707	 -0.014734
C	 1.865559	 0.531981	 0.018834
H	 3.179691	 -0.803556	 0.816302
C	 0.645745	 -0.382037	 -0.029944
H	 1.863310	 1.179677	 -0.852569
H	 1.795475	 1.183634	 0.893383
C	 -0.679275	 0.379305	 0.025956
H	 0.698998	 -0.976915	 -0.937203
H	 0.693479	 -1.083846	 0.802235
C	 -1.903357	 -0.536963	 -0.023547
H	 -0.726309	 1.082987	 -0.803784
H	 -0.717680	 0.977832	 0.934877
C	 -3.225172	 0.228290	 0.028445
H	 -1.867824	 -1.134999	 -0.931459
H	 -1.860449	 -1.239604	 0.805977
H	 -3.313397	 0.915643	 -0.808262
H	 -4.073500	 -0.448134	 -0.008893
H	 -3.306061	 0.809945	 0.942516

	symmetry c1
}
set optking {
	frozen_dihedral = ("
		6 3 5 9
	")
}

ee = optimize('scf')
oeprop('DIPOLE', 'QUADRUPOLE', 'MULLIKEN_CHARGES')
f=open( 'psi4out.xyz', 'w' )
f.write( "19  " )
f.write( str(ee) + "\n" )
f.write( MOL.save_string_xyz() )
f.close()
--------------------------------------------------------------------------

    Molecular point group: c1
  Charge       = 0
  Multiplicity = 1
  Basis Set: 6-31G*
  Basis Set:
  @DF-RHF Final Energy:  -251.35171965563833
    Total Energy =                       -251.3517196556385898
    Molecular point group: c1
  Basis Set: 6-31G*
  Basis Set:
  Basis Set: 6-31G*
  Basis Set:
  @DF-RHF Final Energy:  -251.35172089590367
    Total Energy =                       -251.3517208959036680
  Basis Set: 6-31G*
  Basis Set:
  Basis Set: 6-31G*
  Basis Set:
  @DF-RHF Final Energy:  -251.35172291024750
    Total Energy =                       -251.3517229102475881
  Basis Set: 6-31G*
  Basis Set:
  Charge       = 0
  Multiplicity = 1
  Basis Set: 6-31G*
  Basis Set:

    Orbital Energies (a.u.)
    -----------------------

    Doubly Occupied:

       1A    -15.532435     2A    -11.239778     3A    -11.213946
       4A    -11.212705     5A    -11.209486     6A    -11.207507
       7A     -1.176525     8A     -1.072932     9A     -0.998369
      10A     -0.900161    11A     -0.812965    12A     -0.789196
      13A     -0.665248    14A     -0.641378    15A     -0.617039
      16A     -0.588176    17A     -0.565228    18A     -0.548239
      19A     -0.529698    20A     -0.499129    21A     -0.480680
      22A     -0.464993    23A     -0.461123    24A     -0.449583
      25A     -0.380955

  @DF-RHF Final Energy:  -251.35172298658665

   => Energetics <=

    Nuclear Repulsion Energy =            245.6468684535234956
    One-Electron Energy =                -825.4822340224939126
    Two-Electron Energy =                 328.4836425823835953
    DFT Exchange-Correlation Energy =       0.0000000000000000
    Empirical Dispersion Energy =           0.0000000000000000
    PCM Polarization Energy =               0.0000000000000000
    EFP Energy =                            0.0000000000000000
    Total Energy =                       -251.3517229865868785
    Molecular point group: c1
  Basis Set: 6-31G*
  Basis Set:

  -Total Gradient:
     Atom            X                  Y                   Z
    ------   -----------------  -----------------  -----------------
       1        0.000003756675    -0.000006067770    -0.000001022716
       2       -0.000001630076     0.000001989031     0.000018956237
       3       -0.000381893609     0.000506170506     0.000222948882
       4        0.000015224490    -0.000009114885    -0.000000508892
       5        0.000380146535    -0.000509434948     0.000222464464
       6        0.000245440703    -0.000325009329    -0.000253813299
       7        0.000003798119    -0.000018532515     0.000005790633
       8       -0.000001960672    -0.000006845354     0.000016350173
       9       -0.000240653223     0.000340846422    -0.000241110187
      10       -0.000009828420     0.000017354563     0.000001019565
      11       -0.000003582367     0.000004023610     0.000005736266
      12       -0.000003833100     0.000002149276     0.000007134224
      13       -0.000004081832     0.000002492376     0.000006034376
      14        0.000001038929     0.000001155707    -0.000015989404
      15        0.000004099253    -0.000004498809     0.000005921854
      16       -0.000003753574     0.000004656960     0.000004621770
      17       -0.000002475555     0.000003646166     0.000000437101
      18       -0.000002533891    -0.000000711539    -0.000004221446
      19        0.000002721615    -0.000004269469    -0.000000749599

  **** Optimization is complete! (in 4 steps) ****
    Final optimized geometry and variables:
    Molecular point group: c1

    Geometry (in Angstrom), charge = 0, multiplicity = 1:

    H            3.894704885069     0.350173561912    -0.071856333259
    N            3.093088264199    -0.249173355609    -0.030334854024
    C            1.865362329536     0.532583929504     0.010455227118
    H            3.186508662234    -0.800464662544     0.801633360071
    C            0.646054681568    -0.382518774968    -0.032570588006
    H            1.859271279076     1.178328307441    -0.862371820760
    H            1.800462891990     1.184217047078     0.885254162605
    C           -0.679050525660     0.379203136391     0.021264376336
    H            0.696755336243    -0.979122297975    -0.938777925758
    H            0.694566139948    -1.081118601294     0.802051600688
    C           -1.903306117474    -0.536481332754    -0.034368711065
    H           -0.723435085741     1.085016470560    -0.806852390145
    H           -0.720055461017     0.975601918945     0.931469072274
    C           -3.225012672478     0.229159890793     0.014221685723
    H           -1.864774977632    -1.132895687487    -0.943182062872
    H           -1.863650086983    -1.240660047605     0.794025510877
    H           -3.310075968729     0.917875727609    -0.821671006505
    H           -4.073486468863    -0.446908254787    -0.027162584851
    H           -3.308903459837     0.809375290992     0.928943211277

  Mulliken Charges: (a.u.)
   Center  Symbol    Alpha    Beta     Spin     Total
       1     H     0.33250  0.33250  0.00000  0.33500
       2     N     3.92203  3.92203  0.00000 -0.84405
       3     C     3.06029  3.06029  0.00000 -0.12058
       4     H     0.33538  0.33538  0.00000  0.32925
       5     C     3.15110  3.15110  0.00000 -0.30219
       6     H     0.42077  0.42077  0.00000  0.15845
       7     H     0.43467  0.43467  0.00000  0.13065
       8     C     3.15501  3.15501  0.00000 -0.31001
       9     H     0.41337  0.41337  0.00000  0.17326
      10     H     0.42756  0.42756  0.00000  0.14488
      11     C     3.15083  3.15083  0.00000 -0.30165
      12     H     0.42374  0.42374  0.00000  0.15251
      13     H     0.42483  0.42483  0.00000  0.15033
      14     C     3.23930  3.23930  0.00000 -0.47860
      15     H     0.42190  0.42190  0.00000  0.15620
      16     H     0.42328  0.42328  0.00000  0.15343
      17     H     0.42179  0.42179  0.00000  0.15641
      18     H     0.41937  0.41937  0.00000  0.16126
      19     H     0.42228  0.42228  0.00000  0.15544

   Total alpha = 25.00000, Total beta = 25.00000, Total charge = -0.00000
