                              Psi4 1.0.54 Driver

  ==> Input File <==

--------------------------------------------------------------------------
set {
	reference rhf
	basis cc-pvtz
}

set_num_threads( 4 )
memory 2 gb

molecule MOL {
0 1

H	 3.721907	 -0.933076	 -0.066039
O	 2.824271	 -1.154299	 0.131461
C	 2.076458	 -0.067370	 -0.038225
C	 0.626018	 -0.337582	 0.258241
O	 2.538288	 0.965419	 -0.381593
C	 -0.267326	 0.883135	 0.076490
H	 0.325620	 -1.161483	 -0.378003
H	 0.574537	 -0.713685	 1.275261
C	 -1.726822	 0.642622	 0.463839
H	 -0.210803	 1.217591	 -0.953497
H	 0.129920	 1.693110	 0.675679
C	 -2.480891	 -0.340606	 -0.429852
H	 -2.243098	 1.597649	 0.438609
H	 -1.776542	 0.301208	 1.495542
C	 -1.564355	 -1.381367	 -1.064875
H	 -3.243801	 -0.843737	 0.158249
H	 -3.004016	 0.193410	 -1.216695
H	 -2.123412	 -2.066845	 -1.691181
H	 -1.053212	 -1.966303	 -0.307722
H	 -0.807690	 -0.910473	 -1.683639

	symmetry c1
}
set optking {
	frozen_dihedral = ("
		16 12 9 6
	")
}

ee,wfn = optimize('scf', return_wfn=True)
oeprop( wfn, 'DIPOLE', 'QUADRUPOLE', 'MULLIKEN_CHARGES')
f=open( 'psi4out.xyz', 'w' )
f.write( "20  " )
f.write( str(ee) + "\n" )
f.write( MOL.save_string_xyz() )
f.close()
--------------------------------------------------------------------------

    Molecular point group: c1
  Charge       = 0
  Multiplicity = 1
  Basis Set: CC-PVTZ
  Basis Set:
  @DF-RHF Final Energy:  -384.06496966333765
    Total Energy =                       -384.0649696633377062
    Molecular point group: c1
  Basis Set: CC-PVTZ
  Basis Set:
  Basis Set: CC-PVTZ
  Basis Set:
  @DF-RHF Final Energy:  -384.08056287276116
    Total Energy =                       -384.0805628727616750
  Basis Set: CC-PVTZ
  Basis Set:
  Basis Set: CC-PVTZ
  Basis Set:
  @DF-RHF Final Energy:  -384.05985090370672
    Total Energy =                       -384.0598509037063195
  Basis Set: CC-PVTZ
  Basis Set:
  Basis Set: CC-PVTZ
  Basis Set:
  @DF-RHF Final Energy:  -384.08400299882385
    Total Energy =                       -384.0840029988243032
  Basis Set: CC-PVTZ
  Basis Set:
  @DF-RHF Final Energy:  -384.08487354836251
    Total Energy =                       -384.0848735483624523
  @DF-RHF Final Energy:  -384.08544589595260
    Total Energy =                       -384.0854458959521480
  @DF-RHF Final Energy:  -384.08558467354817
    Total Energy =                       -384.0855846735482828
  @DF-RHF Final Energy:  -384.08561194241400
    Total Energy =                       -384.0856119424138342
  @DF-RHF Final Energy:  -384.08563083064382
    Total Energy =                       -384.0856308306438223
  @DF-RHF Final Energy:  -384.08566945646191
    Total Energy =                       -384.0856694564623695
  Basis Set: CC-PVTZ
  Basis Set:
  @DF-RHF Final Energy:  -384.08569027801394
    Total Energy =                       -384.0856902780134305
  Basis Set: CC-PVTZ
  Basis Set:
  Basis Set: CC-PVTZ
  Basis Set:
  @DF-RHF Final Energy:  -384.08569420860823
    Total Energy =                       -384.0856942086088566
  Basis Set: CC-PVTZ
  Basis Set:
  Basis Set: CC-PVTZ
  Basis Set:
  @DF-RHF Final Energy:  -384.08569906695499
    Total Energy =                       -384.0856990669548168
  Basis Set: CC-PVTZ
  Basis Set:
  Charge       = 0
  Multiplicity = 1
  Basis Set: CC-PVTZ
  Basis Set:

    Orbital Energies (a.u.)
    -----------------------

    Doubly Occupied:

       1A    -20.603497     2A    -20.540121     3A    -11.372881
       4A    -11.237436     5A    -11.220968     6A    -11.219420
       7A    -11.218863     8A    -11.211730     9A     -1.477113
      10A     -1.368592    11A     -1.094272    12A     -1.038476
      13A     -0.963214    14A     -0.882196    15A     -0.810192
      16A     -0.772892    17A     -0.703124    18A     -0.689691
      19A     -0.669399    20A     -0.632424    21A     -0.620030
      22A     -0.592042    23A     -0.571935    24A     -0.558672
      25A     -0.534720    26A     -0.514564    27A     -0.509065
      28A     -0.483927    29A     -0.469767    30A     -0.458651
      31A     -0.456068    32A     -0.443772

  @DF-RHF Final Energy:  -384.08569916381532

   => Energetics <=

    Nuclear Repulsion Energy =            383.8511483756923326
    One-Electron Energy =               -1283.9942669716770069
    Two-Electron Energy =                 516.0574194321690129
    DFT Exchange-Correlation Energy =       0.0000000000000000
    Empirical Dispersion Energy =           0.0000000000000000
    PCM Polarization Energy =               0.0000000000000000
    EFP Energy =                            0.0000000000000000
    Total Energy =                       -384.0856991638156614
    Molecular point group: c1
  Basis Set: CC-PVTZ
  Basis Set:

  -Total Gradient:
     Atom            X                  Y                   Z
    ------   -----------------  -----------------  -----------------
       1       -0.000049270247    -0.000013902152     0.000012484165
       2        0.000009406171     0.000081409655    -0.000047053145
       3        0.000083921292    -0.000008762378    -0.000089742623
       4       -0.000025716028    -0.000075845971    -0.000018270618
       5       -0.000083326349    -0.000116328529     0.000143332756
       6        0.001319281677    -0.003008408333     0.003317754092
       7        0.000032527177     0.000156692031     0.000057064058
       8        0.000033653391     0.000007045982    -0.000095536298
       9       -0.001058466039     0.003668535717    -0.004379210433
      10        0.000008395821     0.000011372511     0.000055079341
      11        0.000009030734    -0.000033968812    -0.000007758054
      12       -0.004269271726     0.003375367504    -0.001138816324
      13        0.000011268554    -0.000016480892     0.000025320512
      14        0.000006259422    -0.000003783397    -0.000046753582
      15       -0.000013744825    -0.000018736651     0.000022342275
      16        0.004020250492    -0.004010025078     0.002177265757
      17        0.000022900927    -0.000000049111     0.000027823973
      18        0.000007722093    -0.000009726439     0.000019101995
      19       -0.000014584444     0.000033119743    -0.000035798314
      20       -0.000050238085    -0.000017525398     0.000001370469

  **** Optimization is complete! (in 14 steps) ****
    Final optimized geometry and variables:
    Molecular point group: c1

    Geometry (in Angstrom), charge = 0, multiplicity = 1:

    H            3.517026090938    -0.157663322583     0.887269598121
    O            2.630547485064    -0.426006357434     1.076404274359
    C            1.800495809389     0.340621609046     0.374368657574
    C            0.361801124141    -0.025770601028     0.621787139701
    O            2.190597826925     1.194528306073    -0.344419766238
    C           -0.622791202476     0.839535295730    -0.155657347067
    H            0.263377370933    -1.078064848900     0.393914012258
    H            0.192942633182     0.062568912807     1.690072483259
    C           -2.100372104794     0.539306639331     0.135952702580
    H           -0.415304934172     0.765703331917    -1.216367966104
    H           -0.426800457248     1.872411376788     0.104581247322
    C           -2.790635460304    -0.596952693013    -0.652441373889
    H           -2.670457464671     1.445115033089    -0.033244347185
    H           -2.194422127524     0.334029370146     1.199162973053
    C           -1.922730705387    -1.769034664497    -1.113119626383
    H           -3.560582934079    -1.021422307805    -0.017052667078
    H           -3.283685916670    -0.176984838898    -1.522022512625
    H           -2.525759513309    -2.467683184696    -1.681616975594
    H           -1.506096325408    -2.315379732906    -0.274799954575
    H           -1.105927857214    -1.454736398849    -1.751225456200

  Mulliken Charges: (a.u.)
   Center  Symbol    Alpha    Beta     Spin     Total
       1     H     0.38245  0.38245  0.00000  0.23510
       2     O     4.16086  4.16086  0.00000 -0.32173
       3     C     2.80380  2.80380  0.00000  0.39239
       4     C     3.11053  3.11053  0.00000 -0.22107
       5     O     4.19132  4.19132  0.00000 -0.38263
       6     C     3.10258  3.10258  0.00000 -0.20516
       7     H     0.43494  0.43494  0.00000  0.13012
       8     H     0.43689  0.43689  0.00000  0.12622
       9     C     3.10471  3.10471  0.00000 -0.20941
      10     H     0.44187  0.44187  0.00000  0.11625
      11     H     0.43667  0.43667  0.00000  0.12667
      12     C     3.08223  3.08223  0.00000 -0.16447
      13     H     0.44178  0.44178  0.00000  0.11643
      14     H     0.45657  0.45657  0.00000  0.08686
      15     C     3.16485  3.16485  0.00000 -0.32971
      16     H     0.45081  0.45081  0.00000  0.09837
      17     H     0.45029  0.45029  0.00000  0.09942
      18     H     0.44062  0.44062  0.00000  0.11875
      19     H     0.45457  0.45457  0.00000  0.09086
      20     H     0.45164  0.45164  0.00000  0.09672

   Total alpha = 32.00000, Total beta = 32.00000, Total charge = -0.00000

*** Psi4 exiting successfully. Buy a developer a beer!
