  ==> Input File <==

--------------------------------------------------------------------------
set {
	reference rhf
	basis 6-31G*
}

set_num_threads( 4 )
memory 2 gb

molecule MOL {
0 1

H	 3.276176	 0.174363	 -0.109463
N	 2.434251	 -0.367735	 -0.081097
C	 1.267428	 0.496480	 0.024474
H	 2.501951	 -0.965776	 0.720575
C	 -0.016086	 -0.325158	 -0.029487
H	 1.288818	 1.183521	 -0.816092
H	 1.267576	 1.109062	 0.929528
C	 -1.282277	 0.529072	 0.046735
H	 -0.012495	 -0.908639	 -0.945788
H	 -0.015903	 -1.041248	 0.791956
C	 -1.579708	 1.026180	 1.460991
H	 -2.129483	 -0.049231	 -0.316301
H	 -1.186683	 1.382366	 -0.621628
H	 -1.715644	 0.195331	 2.147236
H	 -2.483526	 1.627053	 1.485151
H	 -0.765775	 1.637383	 1.840682

	symmetry c1
}
set optking {
	frozen_dihedral = ("
		12 8 5 9
	")
}

ee = optimize('scf')
oeprop('DIPOLE', 'QUADRUPOLE', 'MULLIKEN_CHARGES')
f=open( 'psi4out.xyz', 'w' )
f.write( "16  " )
f.write( str(ee) + "\n" )
f.write( MOL.save_string_xyz() )
f.close()
--------------------------------------------------------------------------

    Molecular point group: c1
  Charge       = 0
  Multiplicity = 1
  Basis Set: 6-31G*
  Basis Set:
  @DF-RHF Final Energy:  -212.31470847665977
    Total Energy =                       -212.3147084766598027
    Molecular point group: c1
  Basis Set: 6-31G*
  Basis Set:
  Basis Set: 6-31G*
  Basis Set:
  @DF-RHF Final Energy:  -212.31494899890754
    Total Energy =                       -212.3149489989073118
  Basis Set: 6-31G*
  Basis Set:
  Basis Set: 6-31G*
  Basis Set:
  @DF-RHF Final Energy:  -212.31498846432248
    Total Energy =                       -212.3149884643225960
  Basis Set: 6-31G*
  Basis Set:
  Basis Set: 6-31G*
  Basis Set:
  @DF-RHF Final Energy:  -212.31498985133777
    Total Energy =                       -212.3149898513378844
  Basis Set: 6-31G*
  Basis Set:
  Charge       = 0
  Multiplicity = 1
  Basis Set: 6-31G*
  Basis Set:

    Orbital Energies (a.u.)
    -----------------------

    Doubly Occupied:

       1A    -15.532581     2A    -11.239693     3A    -11.215377
       4A    -11.209806     5A    -11.208963     6A     -1.176620
       7A     -1.058420     8A     -0.956106     9A     -0.855478
      10A     -0.783617    11A     -0.657125    12A     -0.636015
      13A     -0.617950    14A     -0.569748    15A     -0.563062
      16A     -0.533077    17A     -0.500386    18A     -0.466693
      19A     -0.464885    20A     -0.461436    21A     -0.380562

  @DF-RHF Final Energy:  -212.31499030621737

   => Energetics <=

    Nuclear Repulsion Energy =            188.2550264322427154
    One-Electron Energy =                -658.9648301731231186
    Two-Electron Energy =                 258.3948134346629786
    DFT Exchange-Correlation Energy =       0.0000000000000000
    Empirical Dispersion Energy =           0.0000000000000000
    PCM Polarization Energy =               0.0000000000000000
    EFP Energy =                            0.0000000000000000
    Total Energy =                       -212.3149903062173962
    Molecular point group: c1
  Basis Set: 6-31G*
  Basis Set:

  -Total Gradient:
     Atom            X                  Y                   Z
    ------   -----------------  -----------------  -----------------
       1        0.000020724052    -0.000012564192    -0.000001031563
       2        0.000022777438     0.000029038436    -0.000000575020
       3       -0.000021796525    -0.000044683408    -0.000021005594
       4       -0.000007981879     0.000009552491    -0.000001403005
       5        0.000838629650     0.001448114804    -0.001096282798
       6        0.000011672511     0.000006862080     0.000003292864
       7       -0.000011988708    -0.000010774627     0.000000530554
       8       -0.000410932337    -0.000847972234     0.001762022952
       9       -0.000637322104    -0.001054562438     0.000660224938
      10        0.000006055598    -0.000008375735     0.000007584350
      11       -0.000018034508    -0.000013068049    -0.000015730502
      12        0.000208712838     0.000481558555    -0.001279787764
      13       -0.000007270346     0.000016552137    -0.000005169709
      14        0.000001177426     0.000003761076     0.000000406053
      15       -0.000004657416     0.000009399955     0.000002646817
      16        0.000010234313    -0.000012838852    -0.000015722572

  **** Optimization is complete! (in 5 steps) ****
    Final optimized geometry and variables:
    Molecular point group: c1

    Geometry (in Angstrom), charge = 0, multiplicity = 1:

    H            3.086809387786    -0.126426032100    -0.430522255523
    N            2.237709305722    -0.657177025531    -0.399148967586
    C            1.083654692465     0.222891211746    -0.277019327472
    H            2.303827789210    -1.261306397703     0.398084153871
    C           -0.208374537876    -0.587090900698    -0.331194013209
    H            1.105067067797     0.912725838452    -1.115339202093
    H            1.107381007917     0.830395325540     0.629387491282
    C           -1.486892254660     0.255677377601    -0.239887415702
    H           -0.208613743691    -1.160336186530    -1.252869262488
    H           -0.204898652933    -1.319257447650     0.476338360300
    C           -1.811580117593     0.764348749004     1.165827643691
    H           -2.322101887444    -0.336355361424    -0.604299968159
    H           -1.408186330418     1.101563687722    -0.920574905362
    H           -1.931827642486    -0.062668473615     1.860170503704
    H           -2.735983988403     1.333803263183     1.168236436925
    H           -1.030455296366     1.410096525781     1.554184597048

  Mulliken Charges: (a.u.)
   Center  Symbol    Alpha    Beta     Spin     Total
       1     H     0.33250  0.33250  0.00000  0.33501
       2     N     3.92175  3.92175  0.00000 -0.84349
       3     C     3.06202  3.06202  0.00000 -0.12404
       4     H     0.33530  0.33530  0.00000  0.32940
       5     C     3.15249  3.15249  0.00000 -0.30498
       6     H     0.42086  0.42086  0.00000  0.15827
       7     H     0.43311  0.43311  0.00000  0.13379
       8     C     3.15783  3.15783  0.00000 -0.31565
       9     H     0.41113  0.41113  0.00000  0.17774
      10     H     0.42813  0.42813  0.00000  0.14375
      11     C     3.24024  3.24024  0.00000 -0.48047
      12     H     0.41904  0.41904  0.00000  0.16192
      13     H     0.42312  0.42312  0.00000  0.15377
      14     H     0.42194  0.42194  0.00000  0.15612
      15     H     0.41910  0.41910  0.00000  0.16181
      16     H     0.42147  0.42147  0.00000  0.15706

   Total alpha = 21.00000, Total beta = 21.00000, Total charge =  0.00000
