  ==> Input File <==

--------------------------------------------------------------------------
set {
	reference rhf
	basis 6-31G*
}

set_num_threads( 1 )
memory 2 gb

molecule MOL {
0 1

H	 -3.293459	 0.663793	 -0.925998
C	 -2.773553	 1.086920	 -1.794494
C	 -1.791103	 2.185175	 -1.476317
O	 -3.002707	 0.676863	 -2.885865
C	 -0.783682	 1.777823	 -0.392148
H	 -1.293219	 2.475307	 -2.394274
H	 -2.368889	 3.039417	 -1.125476
C	 0.175382	 0.670092	 -0.835349
H	 -0.212749	 2.656072	 -0.105793
H	 -1.321528	 1.462333	 0.500569
C	 1.180775	 0.282413	 0.250794
H	 0.709767	 0.996901	 -1.724999
H	 -0.390349	 -0.211352	 -1.131227
C	 2.148627	 -0.814315	 -0.201312
H	 1.735403	 1.168341	 0.549543
H	 0.643093	 -0.055551	 1.135702
C	 3.580890	 -0.659131	 0.322722
H	 2.166869	 -0.852443	 -1.289387
H	 1.762857	 -1.776509	 0.128956
C	 4.324889	 0.564933	 -0.213704
H	 4.142010	 -1.551473	 0.056605
H	 3.564836	 -0.624694	 1.410140
H	 4.342616	 0.565491	 -1.300421
H	 3.866655	 1.493402	 0.110242
H	 5.353900	 0.572371	 0.132816

	symmetry c1
}
set optking {
	frozen_dihedral = ("
		6 3 5 8,
		6 3 2 4,
		3 5 8 12,
		12 8 11 14,
		20 17 14 18
	")
}

ee = energy('scf')
oeprop('DIPOLE', 'QUADRUPOLE', 'MULLIKEN_CHARGES')
f=open( 'psi4out.xyz', 'w' )
f.write( "25  " )
f.write( str(ee) + "\n" )
f.write( MOL.save_string_xyz() )
f.close()
--------------------------------------------------------------------------

    Molecular point group: c1

    Geometry (in Angstrom), charge = 0, multiplicity = 1:

       Center              X                  Y                   Z               Mass
    ------------   -----------------  -----------------  -----------------  -----------------
           H         -3.639059201972     0.023354067889    -0.112256917245     1.007825032070
           C         -3.119153201972     0.446481067889    -0.980752917245    12.000000000000
           C         -2.136703201972     1.544736067889    -0.662575917245    12.000000000000
           O         -3.348307201972     0.036424067889    -2.072123917245    15.994914619560
           C         -1.129282201972     1.137384067889     0.421593082755    12.000000000000
           H         -1.638819201972     1.834868067889    -1.580532917245     1.007825032070
           H         -2.714489201972     2.398978067889    -0.311734917245     1.007825032070
           C         -0.170218201972     0.029653067889    -0.021607917245    12.000000000000
           H         -0.558349201972     2.015633067889     0.707948082755     1.007825032070
           H         -1.667128201972     0.821894067889     1.314310082755     1.007825032070
           C          0.835174798028    -0.358025932111     1.064535082755    12.000000000000
           H          0.364166798028     0.356462067889    -0.911257917245     1.007825032070
           H         -0.735949201972    -0.851790932111    -0.317485917245     1.007825032070
           C          1.803026798028    -1.454753932111     0.612429082755    12.000000000000
           H          1.389802798028     0.527902067889     1.363284082755     1.007825032070
           H          0.297492798028    -0.695989932111     1.949443082755     1.007825032070
           C          3.235289798028    -1.299569932111     1.136463082755    12.000000000000
           H          1.821268798028    -1.492881932111    -0.475645917245     1.007825032070
           H          1.417256798028    -2.416947932111     0.942697082755     1.007825032070
           C          3.979288798028    -0.075505932111     0.600037082755    12.000000000000
           H          3.796409798028    -2.191911932111     0.870346082755     1.007825032070
           H          3.219235798028    -1.265132932111     2.223881082755     1.007825032070
           H          3.997015798028    -0.074947932111    -0.486679917245     1.007825032070
           H          3.521054798028     0.852963067889     0.923983082755     1.007825032070
           H          5.008299798028    -0.068067932111     0.946557082755     1.007825032070

  Charge       = 0
  Multiplicity = 1
  Basis Set: 6-31G*
  Basis Set:

    Orbital Energies (a.u.)
    -----------------------

    Doubly Occupied:

       1A    -20.561897     2A    -11.326015     3A    -11.234958
       4A    -11.234366     5A    -11.223975     6A    -11.218668
       7A    -11.218211     8A    -11.215930     9A    -11.211112
      10A     -1.401875    11A     -1.104007    12A     -1.069687
      13A     -1.012911    14A     -0.942893    15A     -0.875318
      16A     -0.820455    17A     -0.788103    18A     -0.781332
      19A     -0.664091    20A     -0.661866    21A     -0.630995
      22A     -0.627239    23A     -0.605197    24A     -0.592649
      25A     -0.574178    26A     -0.550324    27A     -0.536649
      28A     -0.522625    29A     -0.510286    30A     -0.495489
      31A     -0.490559    32A     -0.481824    33A     -0.462599
      34A     -0.456520    35A     -0.440518    36A     -0.409438

  @DF-RHF Final Energy:  -387.11795583797618

   => Energetics <=

    Nuclear Repulsion Energy =            441.6728488571418438
    One-Electron Energy =               -1399.6722420619835248
    Two-Electron Energy =                 570.8814373668654980
    DFT Exchange-Correlation Energy =       0.0000000000000000
    Empirical Dispersion Energy =           0.0000000000000000
    PCM Polarization Energy =               0.0000000000000000
    EFP Energy =                            0.0000000000000000
    Total Energy =                       -387.1179558379761829

  Mulliken Charges: (a.u.)
   Center  Symbol    Alpha    Beta     Spin     Total
       1     H     0.43263  0.43263  0.00000  0.13474
       2     C     2.83082  2.83082  0.00000  0.33835
       3     C     3.20810  3.20810  0.00000 -0.41619
       4     O     4.23780  4.23780  0.00000 -0.47559
       5     C     3.16690  3.16690  0.00000 -0.33380
       6     H     0.39980  0.39980  0.00000  0.20039
       7     H     0.40677  0.40677  0.00000  0.18647
       8     C     3.15695  3.15695  0.00000 -0.31390
       9     H     0.41290  0.41290  0.00000  0.17420
      10     H     0.41968  0.41968  0.00000  0.16063
      11     C     3.15501  3.15501  0.00000 -0.31001
      12     H     0.41767  0.41767  0.00000  0.16465
      13     H     0.41794  0.41794  0.00000  0.16412
      14     C     3.15545  3.15545  0.00000 -0.31091
      15     H     0.42064  0.42064  0.00000  0.15871
      16     H     0.42126  0.42126  0.00000  0.15747
      17     C     3.15390  3.15390  0.00000 -0.30779
      18     H     0.42077  0.42077  0.00000  0.15847
      19     H     0.41933  0.41933  0.00000  0.16134
      20     C     3.24100  3.24100  0.00000 -0.48201
      21     H     0.42035  0.42035  0.00000  0.15930
      22     H     0.42322  0.42322  0.00000  0.15357
      23     H     0.42152  0.42152  0.00000  0.15697
      24     H     0.42137  0.42137  0.00000  0.15726
      25     H     0.41823  0.41823  0.00000  0.16354

   Total alpha = 36.00000, Total beta = 36.00000, Total charge = -0.00000
