  ==> Input File <==

--------------------------------------------------------------------------
set {
	reference rhf
	basis 6-31G*
}

set_num_threads( 4 )
memory 2 gb

molecule MOL {
0 1

O	 -0.604898	 -0.015649	 -0.433783
C	 0.486307	 0.169203	 0.000779
C	 1.608116	 -0.841643	 0.000302
O	 0.867389	 1.311124	 0.556118
C	 2.990107	 -0.200498	 -0.000684
H	 1.468623	 -1.481519	 -0.865924
H	 1.469683	 -1.481289	 0.866878
H	 3.129736	 0.423364	 -0.875135
H	 3.757882	 -0.966877	 -0.001197
H	 3.130964	 0.423383	 0.873533
C	 -0.092173	 2.360716	 0.626814
C	 0.576673	 3.542766	 1.295928
H	 -0.950267	 2.016640	 1.187947
H	 -0.424341	 2.602775	 -0.373517
H	 0.908401	 3.282535	 2.294625
H	 -0.122576	 4.369267	 1.370719
H	 1.437199	 3.872003	 0.724654

	symmetry c1
}
set optking {
	frozen_dihedral = ("
		4 2 3 6
	")
}

ee = optimize('scf')
oeprop('DIPOLE', 'QUADRUPOLE', 'MULLIKEN_CHARGES')
f=open( 'psi4out.xyz', 'w' )
f.write( "17  " )
f.write( str(ee) + "\n" )
f.write( MOL.save_string_xyz() )
f.close()
--------------------------------------------------------------------------

    Molecular point group: c1
  Charge       = 0
  Multiplicity = 1
  Basis Set: 6-31G*
  Basis Set:
  @DF-RHF Final Energy:  -344.90886496024848
    Total Energy =                       -344.9088649602483088
    Molecular point group: c1
  Basis Set: 6-31G*
  Basis Set:
  Basis Set: 6-31G*
  Basis Set:
  @DF-RHF Final Energy:  -344.90937423475270
    Total Energy =                       -344.9093742347528178
  Basis Set: 6-31G*
  Basis Set:
  Basis Set: 6-31G*
  Basis Set:
  @DF-RHF Final Energy:  -344.90964184238766
    Total Energy =                       -344.9096418423875434
  Basis Set: 6-31G*
  Basis Set:
  Basis Set: 6-31G*
  Basis Set:
  @DF-RHF Final Energy:  -344.90970537925529
    Total Energy =                       -344.9097053792553425
  Basis Set: 6-31G*
  Basis Set:
  Basis Set: 6-31G*
  Basis Set:
  @DF-RHF Final Energy:  -344.90972376748124
    Total Energy =                       -344.9097237674808412
  Basis Set: 6-31G*
  Basis Set:
  Basis Set: 6-31G*
  Basis Set:
  @DF-RHF Final Energy:  -344.90973282796830
    Total Energy =                       -344.9097328279684689
  Basis Set: 6-31G*
  Basis Set:
  Charge       = 0
  Multiplicity = 1
  Basis Set: 6-31G*
  Basis Set:

    Orbital Energies (a.u.)
    -----------------------

    Doubly Occupied:

       1A    -20.603175     2A    -20.540292     3A    -11.371245
       4A    -11.285461     5A    -11.237674     6A    -11.223009
       7A    -11.220994     8A     -1.468176     9A     -1.360146
      10A     -1.072275    11A     -1.030205    12A     -0.905265
      13A     -0.860399    14A     -0.778242    15A     -0.690639
      16A     -0.677953    17A     -0.671536    18A     -0.628345
      19A     -0.578636    20A     -0.571952    21A     -0.552786
      22A     -0.547732    23A     -0.523068    24A     -0.513381
      25A     -0.505862    26A     -0.491380    27A     -0.451037
      28A     -0.430645

  @DF-RHF Final Energy:  -344.90973281927222

   => Energetics <=

    Nuclear Repulsion Energy =            317.5522748334094558
    One-Electron Energy =               -1099.3409897905419257
    Two-Electron Energy =                 436.8789821378603051
    DFT Exchange-Correlation Energy =       0.0000000000000000
    Empirical Dispersion Energy =           0.0000000000000000
    PCM Polarization Energy =               0.0000000000000000
    EFP Energy =                            0.0000000000000000
    Total Energy =                       -344.9097328192721648
    Molecular point group: c1
  Basis Set: 6-31G*
  Basis Set:

  -Total Gradient:
     Atom            X                  Y                   Z
    ------   -----------------  -----------------  -----------------
       1        0.000029352667     0.000006537627     0.000001012587
       2       -0.000200370723    -0.000221247126     0.000652253957
       3       -0.000430973880    -0.000466745394     0.000290168467
       4        0.000197015502     0.000251451366    -0.000571444606
       5       -0.000003818401     0.000001555524     0.000005622005
       6        0.000410656223     0.000450753953    -0.000403371880
       7       -0.000001321729     0.000001590014    -0.000000995181
       8        0.000000299826     0.000000180429    -0.000001494397
       9       -0.000004168119    -0.000001181663    -0.000000779193
      10        0.000003145146     0.000001934902     0.000001727234
      11       -0.000007872147    -0.000052071418     0.000081802994
      12        0.000004213495     0.000010946405    -0.000022097431
      13        0.000000497563     0.000017712982    -0.000010326251
      14        0.000003636304    -0.000001494932    -0.000019153430
      15       -0.000004538265    -0.000007232699    -0.000004398967
      16        0.000000170285     0.000001967723    -0.000001768578
      17        0.000004076256     0.000005342308     0.000003242670

  **** Optimization is complete! (in 7 steps) ****
    Final optimized geometry and variables:
    Molecular point group: c1

    Geometry (in Angstrom), charge = 0, multiplicity = 1:

    O           -1.421275479420    -0.938482575121    -0.717221955247
    C           -0.327520641152    -0.730389922691    -0.297629083831
    C            0.782011204091    -1.758746815156    -0.311229535550
    O            0.031731627503     0.417728191424     0.254510922435
    C            2.204728650573    -1.203403480421    -0.299330849752
    H            0.611632415029    -2.377909682522    -1.183135841318
    H            0.619720005204    -2.394142910000     0.555991593748
    H            2.383150887740    -0.558520881031    -1.152997352045
    H            2.918046053883    -2.019496940299    -0.343059500925
    H            2.398820779631    -0.629888743582     0.597696717344
    C           -0.955279252871     1.440685218392     0.344273588201
    C           -0.304500678758     2.643328943259     0.994103346557
    H           -1.789955809602     1.073736496487     0.925595955200
    H           -1.316430870574     1.668470521079    -0.649078428532
    H            0.056462474278     2.396792455781     1.986180278965
    H           -1.024708489232     3.450328186417     1.081703759434
    H            0.533448068092     2.994168291094     0.402494234908

  Mulliken Charges: (a.u.)
   Center  Symbol    Alpha    Beta     Spin     Total
       1     O     4.28890  4.28890  0.00000 -0.57780
       2     C     2.60602  2.60602  0.00000  0.78795
       3     C     3.20606  3.20606  0.00000 -0.41213
       4     O     4.31026  4.31026  0.00000 -0.62052
       5     C     3.24063  3.24063  0.00000 -0.48126
       6     H     0.39731  0.39731  0.00000  0.20538
       7     H     0.40003  0.40003  0.00000  0.19994
       8     H     0.41544  0.41544  0.00000  0.16911
       9     H     0.41625  0.41625  0.00000  0.16750
      10     H     0.40878  0.40878  0.00000  0.18243
      11     C     3.00252  3.00252  0.00000 -0.00504
      12     C     3.24888  3.24888  0.00000 -0.49776
      13     H     0.40984  0.40984  0.00000  0.18032
      14     H     0.40928  0.40928  0.00000  0.18143
      15     H     0.41202  0.41202  0.00000  0.17596
      16     H     0.41599  0.41599  0.00000  0.16801
      17     H     0.41177  0.41177  0.00000  0.17646

   Total alpha = 28.00000, Total beta = 28.00000, Total charge =  0.00000
