  ==> Input File <==

--------------------------------------------------------------------------
set {
	reference rhf
	basis cc-pvtz
}

set_num_threads( 4 )
memory 2 gb

molecule MOL {
0 1

H	 -2.698799	 -0.000846	 0.036018
C	 -1.694291	 -0.000483	 0.434279
O	 -0.828718	 -0.000608	 -0.655022
H	 -1.576855	 0.881100	 1.056504
H	 -1.576401	 -0.881658	 1.057001
C	 0.557892	 0.000078	 -0.420099
C	 1.070342	 1.354280	 0.057188
C	 0.997938	 -1.139600	 0.491900
H	 0.975364	 -0.183251	 -1.402304
H	 0.708684	 2.143683	 -0.590196
H	 2.153913	 1.365712	 0.035076
H	 0.762422	 1.574367	 1.072733
H	 0.586144	 -2.079700	 0.145953
H	 2.078895	 -1.218775	 0.485693
H	 0.688004	 -0.985734	 1.518939

	symmetry c1
}
set optking {
	frozen_dihedral = ("
		9 6 3 2
	")
}

ee = optimize('scf')
oeprop('DIPOLE', 'QUADRUPOLE', 'MULLIKEN_CHARGES')
f=open( 'psi4out.xyz', 'w' )
f.write( "15  " )
f.write( str(ee) + "\n" )
f.write( MOL.save_string_xyz() )
f.close()
--------------------------------------------------------------------------

    Molecular point group: c1
  Charge       = 0
  Multiplicity = 1
  Basis Set: CC-PVTZ
  Basis Set:
  @DF-RHF Final Energy:  -232.22588649056141
    Total Energy =                       -232.2258864905613791
    Molecular point group: c1
  Basis Set: CC-PVTZ
  Basis Set:
  Basis Set: CC-PVTZ
  Basis Set:
  @DF-RHF Final Energy:  -232.22600791053662
    Total Energy =                       -232.2260079105366799
  Basis Set: CC-PVTZ
  Basis Set:
  Basis Set: CC-PVTZ
  Basis Set:
  @DF-RHF Final Energy:  -232.22604449363388
    Total Energy =                       -232.2260444936337649
  Basis Set: CC-PVTZ
  Basis Set:
  Basis Set: CC-PVTZ
  Basis Set:
  @DF-RHF Final Energy:  -232.22604916652821
    Total Energy =                       -232.2260491665281279
  Basis Set: CC-PVTZ
  Basis Set:
  Charge       = 0
  Multiplicity = 1
  Basis Set: CC-PVTZ
  Basis Set:

    Orbital Energies (a.u.)
    -----------------------

    Doubly Occupied:

       1A    -20.541747     2A    -11.272650     3A    -11.258709
       4A    -11.209875     5A    -11.207556     6A     -1.373459
       7A     -1.051638     8A     -0.941271     9A     -0.930508
      10A     -0.781478    11A     -0.675884    12A     -0.642716
      13A     -0.634951    14A     -0.574442    15A     -0.564012
      16A     -0.552849    17A     -0.534045    18A     -0.499653
      19A     -0.496742    20A     -0.445051    21A     -0.408998

  @DF-RHF Final Energy:  -232.22605078432426

   => Energetics <=

    Nuclear Repulsion Energy =            199.0477448585011473
    One-Electron Energy =                -709.3511236876429393
    Two-Electron Energy =                 278.0773280448176479
    DFT Exchange-Correlation Energy =       0.0000000000000000
    Empirical Dispersion Energy =           0.0000000000000000
    PCM Polarization Energy =               0.0000000000000000
    EFP Energy =                            0.0000000000000000
    Total Energy =                       -232.2260507843241726
    Molecular point group: c1
  Basis Set: CC-PVTZ
  Basis Set:

  -Total Gradient:
     Atom            X                  Y                   Z
    ------   -----------------  -----------------  -----------------
       1       -0.000002529274     0.000010398801     0.000012217350
       2       -0.000001033023    -0.000740365504    -0.000019088567
       3       -0.000011717997     0.000938054623     0.000026143301
       4       -0.000013766964    -0.000017457900    -0.000017745970
       5        0.000004059757    -0.000017493328     0.000027364274
       6       -0.000012371184     0.000651311317    -0.000192570344
       7        0.000078103449    -0.000005596049     0.000003050103
       8       -0.000022507697     0.000012514776     0.000007064639
       9       -0.000014853570    -0.000857094063     0.000160252854
      10        0.000002819651    -0.000012761243    -0.000004309874
      11       -0.000019234072     0.000030231441     0.000016660244
      12        0.000009054913    -0.000001763582     0.000005220154
      13       -0.000004722620     0.000001374039     0.000005147896
      14        0.000019781016     0.000009517902    -0.000017596168
      15       -0.000011082386    -0.000000871229    -0.000011809892

  **** Optimization is complete! (in 5 steps) ****
    Final optimized geometry and variables:
    Molecular point group: c1

    Geometry (in Angstrom), charge = 0, multiplicity = 1:

    H           -2.694295534623     0.067381345937     0.047541832219
    C           -1.693403174156    -0.040906600197     0.440355182043
    O           -0.829545171392    -0.049702930941    -0.650209088307
    H           -1.503659490885     0.787896562211     1.115806075117
    H           -1.648796001788    -0.965177238055     1.007389963204
    C            0.557714665065    -0.048605566463    -0.417022582551
    C            1.053858042511     1.314182925875     0.052128923293
    C            1.011611077094    -1.177886604511     0.501103054734
    H            0.976737175059    -0.239289184860    -1.397255244516
    H            0.704952313334     2.089913196068    -0.617875362941
    H            2.137741568447     1.333238978526     0.062406977178
    H            0.712990514099     1.548324804120     1.054091947453
    H            0.611061112597    -2.126529934530     0.164553617515
    H            2.093224587140    -1.243901801381     0.489027745120
    H            0.704789169886    -1.020086060639     1.528546876578

  Mulliken Charges: (a.u.)
   Center  Symbol    Alpha    Beta     Spin     Total
       1     H     0.44129  0.44129  0.00000  0.11742
       2     C     3.03929  3.03929  0.00000 -0.07858
       3     O     4.18357  4.18357  0.00000 -0.36714
       4     H     0.47099  0.47099  0.00000  0.05802
       5     H     0.46871  0.46871  0.00000  0.06259
       6     C     2.93384  2.93384  0.00000  0.13232
       7     C     3.15282  3.15282  0.00000 -0.30563
       8     C     3.16299  3.16299  0.00000 -0.32598
       9     H     0.44713  0.44713  0.00000  0.10574
      10     H     0.44475  0.44475  0.00000  0.11050
      11     H     0.45184  0.45184  0.00000  0.09632
      12     H     0.45649  0.45649  0.00000  0.08702
      13     H     0.44373  0.44373  0.00000  0.11253
      14     H     0.44783  0.44783  0.00000  0.10434
      15     H     0.45474  0.45474  0.00000  0.09052

   Total alpha = 21.00000, Total beta = 21.00000, Total charge =  0.00000
