  ==> Input File <==

--------------------------------------------------------------------------
set {
	reference rhf
	basis cc-pvtz
}

set_num_threads( 4 )
memory 2 gb

molecule MOL {
0 1

H	 -2.688888	 -1.237448	 0.207105
C	 -2.945932	 -0.527153	 -0.590576
C	 -2.653809	 0.914422	 -0.273689
O	 -3.423827	 -0.917606	 -1.598778
C	 -1.216901	 1.136108	 0.207794
H	 -2.878353	 1.511597	 -1.147929
H	 -3.343868	 1.204551	 0.515582
C	 -0.247837	 0.040196	 -0.230469
H	 -0.872882	 2.093195	 -0.169002
H	 -1.209325	 1.218376	 1.291938
C	 1.181757	 0.280428	 0.247371
H	 -0.259600	 -0.030819	 -1.314870
H	 -0.591284	 -0.923375	 0.136958
C	 2.151032	 -0.811012	 -0.202643
H	 1.515939	 1.247397	 -0.115449
H	 1.191514	 0.341223	 1.333422
C	 3.580021	 -0.656538	 0.320835
H	 2.170545	 -0.847575	 -1.289412
H	 1.766632	 -1.772905	 0.124928
C	 4.327657	 0.562694	 -0.213579
H	 4.138806	 -1.549270	 0.057813
H	 3.561991	 -0.620783	 1.406976
H	 4.355973	 0.557257	 -1.298551
H	 3.867136	 1.491650	 0.100501
H	 5.351524	 0.571613	 0.142204

	symmetry c1
}
set optking {
	frozen_dihedral = ("
		6 3 5 8
	")
}

ee = optimize('scf')
oeprop('DIPOLE', 'QUADRUPOLE', 'MULLIKEN_CHARGES')
f=open( 'psi4out.xyz', 'w' )
f.write( "25  " )
f.write( str(ee) + "\n" )
f.write( MOL.save_string_xyz() )
f.close()
--------------------------------------------------------------------------

    Molecular point group: c1
  Charge       = 0
  Multiplicity = 1
  Basis Set: CC-PVTZ
  Basis Set:
  @DF-RHF Final Energy:  -387.25227704625689
    Total Energy =                       -387.2522770462570634
    Molecular point group: c1
  Basis Set: CC-PVTZ
  Basis Set:
  Basis Set: CC-PVTZ
  Basis Set:
  @DF-RHF Final Energy:  -387.25256292260462
    Total Energy =                       -387.2525629226043975
  Basis Set: CC-PVTZ
  Basis Set:
  Basis Set: CC-PVTZ
  Basis Set:
  @DF-RHF Final Energy:  -387.25393496195170
    Total Energy =                       -387.2539349619514724
  Basis Set: CC-PVTZ
  Basis Set:
  Basis Set: CC-PVTZ
  Basis Set:
  @DF-RHF Final Energy:  -387.25394205648809
    Total Energy =                       -387.2539420564880857
  Basis Set: CC-PVTZ
  Basis Set:
  @DF-RHF Final Energy:  -387.25415934456004
    Total Energy =                       -387.2541593445600938
  Basis Set: CC-PVTZ
  Basis Set:
  @DF-RHF Final Energy:  -387.25423553296065
    Total Energy =                       -387.2542355329603652
  Basis Set: CC-PVTZ
  Basis Set:
  Basis Set: CC-PVTZ
  Basis Set:
  @DF-RHF Final Energy:  -387.25423721859369
    Total Energy =                       -387.2542372185937438
  Basis Set: CC-PVTZ
  Basis Set:
  Basis Set: CC-PVTZ
  Basis Set:
  @DF-RHF Final Energy:  -387.25423970540737
    Total Energy =                       -387.2542397054072580
  Basis Set: CC-PVTZ
  Basis Set:
  Charge       = 0
  Multiplicity = 1
  Basis Set: CC-PVTZ
  Basis Set:

    Orbital Energies (a.u.)
    -----------------------

    Doubly Occupied:

       1A    -20.550365     2A    -11.320656     3A    -11.233506
       4A    -11.232950     5A    -11.223036     6A    -11.218267
       7A    -11.216575     8A    -11.215489     9A    -11.208842
      10A     -1.405289    11A     -1.103948    12A     -1.069019
      13A     -1.014025    14A     -0.943990    15A     -0.877789
      16A     -0.829423    17A     -0.782998    18A     -0.777443
      19A     -0.674523    20A     -0.656345    21A     -0.634462
      22A     -0.627165    23A     -0.606921    24A     -0.593460
      25A     -0.576890    26A     -0.550003    27A     -0.541551
      28A     -0.525505    29A     -0.503027    30A     -0.499073
      31A     -0.495739    32A     -0.473499    33A     -0.465190
      34A     -0.460160    35A     -0.443528    36A     -0.410827

  @DF-RHF Final Energy:  -387.25423963835527

   => Energetics <=

    Nuclear Repulsion Energy =            440.9333311296462057
    One-Electron Energy =               -1398.4521876585281461
    Two-Electron Energy =                 570.2646168905266677
    DFT Exchange-Correlation Energy =       0.0000000000000000
    Empirical Dispersion Energy =           0.0000000000000000
    PCM Polarization Energy =               0.0000000000000000
    EFP Energy =                            0.0000000000000000
    Total Energy =                       -387.2542396383553296
    Molecular point group: c1
  Basis Set: CC-PVTZ
  Basis Set:

  -Total Gradient:
     Atom            X                  Y                   Z
    ------   -----------------  -----------------  -----------------
       1        0.000016312722    -0.000006063366     0.000004546762
       2        0.000002738178    -0.000017682967     0.000012495095
       3        0.001747556184    -0.006109046580    -0.002967493075
       4       -0.000028937780     0.000009255455     0.000010481244
       5        0.000893927647     0.004171699710    -0.003812507331
       6       -0.001669663505     0.004127745107     0.003501623352
       7       -0.000019124417     0.000003567493    -0.000048874103
       8       -0.000909394002    -0.002161140657     0.003255208440
       9        0.000006821650    -0.000011802654     0.000011700118
      10       -0.000016402452     0.000030239743     0.000000953654
      11       -0.000010255975    -0.000039634211     0.000017494785
      12       -0.000026449008    -0.000023126182     0.000012659406
      13        0.000006824242     0.000004979204     0.000020775295
      14       -0.000001155518     0.000017385758    -0.000035132071
      15       -0.000011981393    -0.000007626167     0.000003517322
      16        0.000007101586     0.000000070860     0.000005058912
      17       -0.000010939097     0.000017314531     0.000021424554
      18        0.000002057104    -0.000001228825    -0.000007328289
      19       -0.000000404120     0.000004766453    -0.000005020734
      20        0.000009794568    -0.000003818066    -0.000006106289
      21       -0.000003656451     0.000000050678     0.000005503625
      22       -0.000000053409     0.000005238754     0.000004006553
      23       -0.000002081755     0.000003581739    -0.000003534768
      24        0.000016140584    -0.000011280581     0.000002768613
      25        0.000001224409    -0.000003445233    -0.000004221071

  **** Optimization is complete! (in 9 steps) ****
    Final optimized geometry and variables:
    Molecular point group: c1

    Geometry (in Angstrom), charge = 0, multiplicity = 1:

    H           -3.093249126787    -1.216858643961     0.468790246748
    C           -3.158099652163    -0.492094809936    -0.351816808656
    C           -2.741710936738     0.910525380053    -0.008386424861
    O           -3.559903830832    -0.834457887979    -1.410009528823
    C           -1.293406087694     1.065522869595     0.514300484763
    H           -2.925104530470     1.556042423950    -0.856319161014
    H           -3.425321902234     1.242040682455     0.770434084675
    C           -0.310445913970    -0.018164082793     0.067774306984
    H           -0.928056299293     2.036628067643     0.202859863429
    H           -1.305303844829     1.083718535396     1.599148511494
    C            1.117785844170     0.259590005231     0.529306494022
    H           -0.327565184078    -0.105226143837    -1.015573538774
    H           -0.624186797193    -0.982702495971     0.455202950234
    C            2.103297688409    -0.826205017645     0.101506885168
    H            1.431686571865     1.222082861311     0.138237865675
    H            1.133445480504     0.349801077149     1.613322844595
    C            3.532924081000    -0.631490583691     0.609629529252
    H            2.115457857981    -0.892330181740    -0.983854010988
    H            1.739274252382    -1.785719600768     0.458416778774
    C            4.255340514374     0.583945186763     0.033506518663
    H            4.105339102657    -1.521879291202     0.368927573399
    H            3.521840711022    -0.563709953575     1.694361925652
    H            4.274478311297     0.547405721428    -1.051015052168
    H            3.782047975619     1.513910143631     0.324715191432
    H            5.281877462837     0.620049050603     0.379734154098

  Mulliken Charges: (a.u.)
   Center  Symbol    Alpha    Beta     Spin     Total
       1     H     0.46216  0.46216  0.00000  0.07569
       2     C     2.90195  2.90195  0.00000  0.19610
       3     C     3.08949  3.08949  0.00000 -0.17897
       4     O     4.16915  4.16915  0.00000 -0.33830
       5     C     3.10668  3.10668  0.00000 -0.21336
       6     H     0.44124  0.44124  0.00000  0.11753
       7     H     0.44596  0.44596  0.00000  0.10809
       8     C     3.09735  3.09735  0.00000 -0.19470
       9     H     0.44474  0.44474  0.00000  0.11052
      10     H     0.44911  0.44911  0.00000  0.10178
      11     C     3.09460  3.09460  0.00000 -0.18919
      12     H     0.44304  0.44304  0.00000  0.11392
      13     H     0.45255  0.45255  0.00000  0.09491
      14     C     3.09516  3.09516  0.00000 -0.19032
      15     H     0.45076  0.45076  0.00000  0.09848
      16     H     0.45431  0.45431  0.00000  0.09138
      17     C     3.09102  3.09102  0.00000 -0.18203
      18     H     0.45198  0.45198  0.00000  0.09605
      19     H     0.44914  0.44914  0.00000  0.10172
      20     C     3.15265  3.15265  0.00000 -0.30531
      21     H     0.44770  0.44770  0.00000  0.10460
      22     H     0.45489  0.45489  0.00000  0.09023
      23     H     0.45413  0.45413  0.00000  0.09173
      24     H     0.45430  0.45430  0.00000  0.09139
      25     H     0.44595  0.44595  0.00000  0.10809

   Total alpha = 36.00000, Total beta = 36.00000, Total charge = -0.00000
