                              Psi4 1.0.54 Driver

  ==> Input File <==

--------------------------------------------------------------------------
set {
	reference rhf
	basis cc-pvtz
}

set_num_threads( 4 )
memory 2 gb

molecule MOL {
0 1

H	 3.273419	 0.176595	 -0.102789
N	 2.433987	 -0.362316	 -0.080024
C	 1.263552	 0.494993	 0.021953
H	 2.497638	 -0.973615	 0.707122
C	 -0.016533	 -0.325589	 -0.026925
H	 1.280915	 1.180773	 -0.818522
H	 1.263064	 1.106893	 0.925038
C	 -1.280353	 0.525521	 0.047747
H	 -0.016686	 -0.912532	 -0.939714
H	 -0.014099	 -1.037598	 0.796369
C	 -1.837552	 0.888017	 -1.324885
H	 -1.067174	 1.436760	 0.600163
H	 -2.041123	 -0.003335	 0.615563
H	 -1.112111	 1.447622	 -1.905665
H	 -2.731468	 1.494970	 -1.238440
H	 -2.095318	 -0.001712	 -1.889792

	symmetry c1
}
set optking {
	frozen_dihedral = ("
		12 8 5 9
	")
}

ee,wfn = optimize('scf', return_wfn=True)
oeprop( wfn, 'DIPOLE', 'QUADRUPOLE', 'MULLIKEN_CHARGES')
f=open( 'psi4out.xyz', 'w' )
f.write( "16  " )
f.write( str(ee) + "\n" )
f.write( MOL.save_string_xyz() )
f.close()
--------------------------------------------------------------------------

    Molecular point group: c1
  Charge       = 0
  Multiplicity = 1
  Basis Set: CC-PVTZ
  Basis Set:
  @DF-RHF Final Energy:  -212.39662653540515
    Total Energy =                       -212.3966265354052325
    Molecular point group: c1
  Basis Set: CC-PVTZ
  Basis Set:
  Basis Set: CC-PVTZ
  Basis Set:
  @DF-RHF Final Energy:  -212.39688298187886
    Total Energy =                       -212.3968829818789459
  Basis Set: CC-PVTZ
  Basis Set:
  Basis Set: CC-PVTZ
  Basis Set:
  @DF-RHF Final Energy:  -212.39693190462313
    Total Energy =                       -212.3969319046231590
  Basis Set: CC-PVTZ
  Basis Set:
  Charge       = 0
  Multiplicity = 1
  Basis Set: CC-PVTZ
  Basis Set:

    Orbital Energies (a.u.)
    -----------------------

    Doubly Occupied:

       1A    -15.526598     2A    -11.238237     3A    -11.212977
       4A    -11.207925     5A    -11.205315     6A     -1.178461
       7A     -1.059070     8A     -0.956910     9A     -0.851191
      10A     -0.786987    11A     -0.663771    12A     -0.626273
      13A     -0.619538    14A     -0.589613    15A     -0.548910
      16A     -0.523946    17A     -0.511080    18A     -0.469357
      19A     -0.464824    20A     -0.455562    21A     -0.384237

  @DF-RHF Final Energy:  -212.39693266076026

   => Energetics <=

    Nuclear Repulsion Energy =            188.2206682625261749
    One-Electron Energy =                -659.0736366499722862
    Two-Electron Energy =                 258.4560357266857409
    DFT Exchange-Correlation Energy =       0.0000000000000000
    Empirical Dispersion Energy =           0.0000000000000000
    PCM Polarization Energy =               0.0000000000000000
    EFP Energy =                            0.0000000000000000
    Total Energy =                       -212.3969326607603989
    Molecular point group: c1
  Basis Set: CC-PVTZ
  Basis Set:

  -Total Gradient:
     Atom            X                  Y                   Z
    ------   -----------------  -----------------  -----------------
       1        0.000028327147    -0.000013401832    -0.000000452777
       2        0.000071442674     0.000006675868     0.000004394993
       3       -0.000057001380    -0.000074354486    -0.000041799997
       4        0.000010661453     0.000002591354     0.000001813928
       5       -0.001496533306    -0.002386857549     0.001251965507
       6        0.000004277869     0.000011644262     0.000004098884
       7       -0.000018834738     0.000017984952     0.000001895106
       8       -0.000651240244    -0.001075019761     0.002766068468
       9        0.001361649339     0.002174277737    -0.001467509467
      10        0.000013966917     0.000008468344    -0.000008923935
      11        0.000005786227     0.000011000713     0.000033998835
      12        0.000733320780     0.001278049149    -0.002526327423
      13       -0.000008163568     0.000025045992    -0.000009625741
      14        0.000003179434    -0.000001102411    -0.000008525116
      15       -0.000016826081     0.000010508687    -0.000008342835
      16        0.000015987475     0.000004488980     0.000007271570

  **** Optimization is complete! (in 4 steps) ****
    Final optimized geometry and variables:
    Molecular point group: c1

    Geometry (in Angstrom), charge = 0, multiplicity = 1:

    H            3.119926544031     0.003070464693     0.077885933811
    N            2.293754669347    -0.554264217304     0.127942148886
    C            1.109640987829     0.274790069780     0.284321251073
    H            2.401694037135    -1.171732315649     0.905503601662
    C           -0.153834873518    -0.577750711553     0.293480985933
    H            1.075639253423     0.963832437886    -0.552834026779
    H            1.133556748773     0.883228582275     1.189270942736
    C           -1.441232395406     0.257495057578     0.340321846837
    H           -0.138985625938    -1.192059934904    -0.600126865279
    H           -0.112232776865    -1.250615730935     1.145144127123
    C           -1.991888048692     0.592356444161    -1.044958903350
    H           -1.248542181363     1.189047974145     0.865168395630
    H           -2.203890787167    -0.266772522651     0.904825194601
    H           -1.258975726164     1.119338666508    -1.646415629152
    H           -2.872541538136     1.220988402326    -0.975043153350
    H           -2.268921432832    -0.308920625555    -1.580851084711

  Mulliken Charges: (a.u.)
   Center  Symbol    Alpha    Beta     Spin     Total
       1     H     0.43016  0.43016  0.00000  0.13967
       2     N     3.68946  3.68946  0.00000 -0.37893
       3     C     3.02445  3.02445  0.00000 -0.04889
       4     H     0.43095  0.43095  0.00000  0.13810
       5     C     3.08806  3.08806  0.00000 -0.17612
       6     H     0.45701  0.45701  0.00000  0.08599
       7     H     0.46856  0.46856  0.00000  0.06287
       8     C     3.09479  3.09479  0.00000 -0.18957
       9     H     0.45099  0.45099  0.00000  0.09801
      10     H     0.45402  0.45402  0.00000  0.09196
      11     C     3.14697  3.14697  0.00000 -0.29393
      12     H     0.45744  0.45744  0.00000  0.08512
      13     H     0.44810  0.44810  0.00000  0.10379
      14     H     0.45518  0.45518  0.00000  0.08964
      15     H     0.44960  0.44960  0.00000  0.10081
      16     H     0.45426  0.45426  0.00000  0.09149

   Total alpha = 21.00000, Total beta = 21.00000, Total charge = -0.00000

*** Psi4 exiting successfully. Buy a developer a beer!
