  ==> Input File <==

--------------------------------------------------------------------------
set {
	reference rhf
	basis cc-pvtz
}

set_num_threads( 4 )
memory 2 gb

molecule MOL {
0 1

H	 1.267000	 -0.971000	 -0.761000
C	 1.210000	 -0.221000	 0.020000
N	 0.000000	 0.555000	 -0.146000
H	 2.074000	 0.426000	 -0.079000
H	 1.276000	 -0.736000	 0.982000
C	 -1.210000	 -0.221000	 0.020000
H	 0.000000	 1.324000	 0.495000
H	 -1.267000	 -0.971000	 -0.761000
H	 -2.074000	 0.426000	 -0.079000
H	 -1.276000	 -0.736000	 0.982000

	symmetry c1
}
ee = optimize('scf')
oeprop('DIPOLE', 'QUADRUPOLE', 'MULLIKEN_CHARGES')
f=open( 'psi4out.xyz', 'w' )
f.write( "10  " )
f.write( str(ee) + "\n" )
f.write( MOL.save_string_xyz() )
f.close()
--------------------------------------------------------------------------

    Molecular point group: c1
  Charge       = 0
  Multiplicity = 1
  Basis Set: CC-PVTZ
  Basis Set:
  @DF-RHF Final Energy:  -134.29305234085285
    Total Energy =                       -134.2930523408529098
    Molecular point group: c1
  Basis Set: CC-PVTZ
  Basis Set:
  Basis Set: CC-PVTZ
  Basis Set:
  @DF-RHF Final Energy:  -134.29308354115201
    Total Energy =                       -134.2930835411520434
  Basis Set: CC-PVTZ
  Basis Set:
  Basis Set: CC-PVTZ
  Basis Set:
  @DF-RHF Final Energy:  -134.29308508819253
    Total Energy =                       -134.2930850881925835
  Basis Set: CC-PVTZ
  Basis Set:
  Charge       = 0
  Multiplicity = 1
  Basis Set: CC-PVTZ
  Basis Set:

    Orbital Energies (a.u.)
    -----------------------

    Doubly Occupied:

       1A    -15.532555     2A    -11.234303     3A    -11.234285
       4A     -1.201033     5A     -0.948289     6A     -0.854763
       7A     -0.662828     8A     -0.613347     9A     -0.592502
      10A     -0.539173    11A     -0.510908    12A     -0.507295
      13A     -0.364261

  @DF-RHF Final Energy:  -134.29308528791358

   => Energetics <=

    Nuclear Repulsion Energy =             84.7522489977317974
    One-Electron Energy =                -348.4995829820959443
    Two-Electron Energy =                 129.4542486964506054
    DFT Exchange-Correlation Energy =       0.0000000000000000
    Empirical Dispersion Energy =           0.0000000000000000
    PCM Polarization Energy =               0.0000000000000000
    EFP Energy =                            0.0000000000000000
    Total Energy =                       -134.2930852879135557
    Molecular point group: c1
  Basis Set: CC-PVTZ
  Basis Set:

  -Total Gradient:
     Atom            X                  Y                   Z
    ------   -----------------  -----------------  -----------------
       1        0.000002921536    -0.000001691426    -0.000003124685
       2        0.000007760207     0.000009817846     0.000019123909
       3       -0.000007013234     0.000004106292    -0.000000000142
       4       -0.000005072206    -0.000005744154     0.000011642910
       5       -0.000004189016    -0.000001650613    -0.000002481990
       6        0.000007760126     0.000009817918    -0.000019124028
       7        0.000004172140    -0.000005569598     0.000000000006
       8        0.000002921675    -0.000001691323     0.000003124716
       9       -0.000005072316    -0.000005744145    -0.000011642719
      10       -0.000004188913    -0.000001650799     0.000002482023

  **** Optimization is complete! (in 4 steps) ****
    Final optimized geometry and variables:
    Molecular point group: c1

    Geometry (in Angstrom), charge = 0, multiplicity = 1:

    H           -0.996493335441    -0.743732327364     1.271440134163
    C           -0.247113137976     0.037111780087     1.209232585438
    N            0.526299532356    -0.128136280147    -0.000000000038
    H            0.397974841740    -0.057350914840     2.073511907373
    H           -0.763794471400     0.997171389908     1.271672971168
    C           -0.247113138061     0.037111780017    -1.209232585438
    H            1.296703481241     0.504426849180    -0.000000000001
    H           -0.996493334793    -0.743732327894    -1.271440134288
    H            0.397974841729    -0.057350914330    -2.073511907117
    H           -0.763794471929     0.997171389330    -1.271672970773

  Mulliken Charges: (a.u.)
   Center  Symbol    Alpha    Beta     Spin     Total
       1     H     0.45700  0.45700  0.00000  0.08600
       2     C     3.08096  3.08096  0.00000 -0.16192
       3     N     3.62864  3.62864  0.00000 -0.25729
       4     H     0.45241  0.45241  0.00000  0.09518
       5     H     0.47502  0.47502  0.00000  0.04996
       6     C     3.08096  3.08096  0.00000 -0.16192
       7     H     0.44057  0.44057  0.00000  0.11885
       8     H     0.45700  0.45700  0.00000  0.08600
       9     H     0.45241  0.45241  0.00000  0.09518
      10     H     0.47502  0.47502  0.00000  0.04996

   Total alpha = 13.00000, Total beta = 13.00000, Total charge =  0.00000
