                              Psi4 1.0.54 Driver

  ==> Input File <==

--------------------------------------------------------------------------
set {
	reference rhf
	basis cc-pvtz
}

set_num_threads( 4 )
memory 2 gb

molecule MOL {
0 1

H	 -4.024094	 -0.454727	 0.000004
C	 -2.962215	 -0.297920	 0.000004
C	 -2.454736	 0.988978	 0.000025
C	 -2.105837	 -1.382632	 -0.000016
H	 -3.120052	 1.830438	 0.000041
C	 -1.090106	 1.189676	 0.000026
H	 -2.500390	 -2.380229	 -0.000033
C	 -0.739175	 -1.183302	 -0.000016
H	 -0.680214	 2.179144	 0.000042
C	 -0.227341	 0.104540	 0.000006
H	 -0.073209	 -2.021168	 -0.000032
C	 1.238974	 0.374429	 0.000004
O	 1.673401	 0.876519	 1.140690
O	 1.948491	 0.162432	 -0.925643
C	 3.054475	 1.165386	 1.234241
H	 3.640023	 0.269380	 1.093942
H	 3.207432	 1.560174	 2.225370
H	 3.340649	 1.895548	 0.492375

	symmetry c1
}
set optking {
	frozen_dihedral = ("
		13 12 10 6
	")
}

ee,wfn = optimize('scf', return_wfn=True)
oeprop( wfn, 'DIPOLE', 'QUADRUPOLE', 'MULLIKEN_CHARGES')
f=open( 'psi4out.xyz', 'w' )
f.write( "18  " )
f.write( str(ee) + "\n" )
f.write( MOL.save_string_xyz() )
f.close()
--------------------------------------------------------------------------

    Molecular point group: c1
  Charge       = 0
  Multiplicity = 1
  Basis Set: CC-PVTZ
  Basis Set:
  @DF-RHF Final Energy:  -457.50000330955100
    Total Energy =                       -457.5000033095502658
    Molecular point group: c1
  Basis Set: CC-PVTZ
  Basis Set:
  Basis Set: CC-PVTZ
  Basis Set:
  @DF-RHF Final Energy:  -457.50062127122771
    Total Energy =                       -457.5006212712281695
  Basis Set: CC-PVTZ
  Basis Set:
  Basis Set: CC-PVTZ
  Basis Set:
  @DF-RHF Final Energy:  -457.49952991315354
    Total Energy =                       -457.4995299131539923
  Basis Set: CC-PVTZ
  Basis Set:
  Basis Set: CC-PVTZ
  Basis Set:
  @DF-RHF Final Energy:  -457.50084140596380
    Total Energy =                       -457.5008414059634561
  Basis Set: CC-PVTZ
  Basis Set:
  Basis Set: CC-PVTZ
  Basis Set:
  @DF-RHF Final Energy:  -457.50087197129693
    Total Energy =                       -457.5008719712966467
  Basis Set: CC-PVTZ
  Basis Set:
  Basis Set: CC-PVTZ
  Basis Set:
  @DF-RHF Final Energy:  -457.50087425343139
    Total Energy =                       -457.5008742534312205
  Basis Set: CC-PVTZ
  Basis Set:
  Charge       = 0
  Multiplicity = 1
  Basis Set: CC-PVTZ
  Basis Set:

    Orbital Energies (a.u.)
    -----------------------

    Doubly Occupied:

       1A    -20.603832     2A    -20.540491     3A    -11.374466
       4A    -11.282377     5A    -11.249797     6A    -11.242204
       7A    -11.241121     8A    -11.238806     9A    -11.237563
      10A    -11.236838    11A     -1.479731    12A     -1.372588
      13A     -1.171569    14A     -1.052263    15A     -1.029516
      16A     -0.982511    17A     -0.862666    18A     -0.841765
      19A     -0.783779    20A     -0.742536    21A     -0.688513
      22A     -0.684490    23A     -0.681942    24A     -0.635575
      25A     -0.632234    26A     -0.600152    27A     -0.594119
      28A     -0.553401    29A     -0.538915    30A     -0.521868
      31A     -0.511773    32A     -0.504821    33A     -0.465073
      34A     -0.450178    35A     -0.347673    36A     -0.347090

  @DF-RHF Final Energy:  -457.50087448288207

   => Energetics <=

    Nuclear Repulsion Energy =            492.7162218540569256
    One-Electron Energy =               -1599.7857194958346554
    Two-Electron Energy =                 649.5686231588955479
    DFT Exchange-Correlation Energy =       0.0000000000000000
    Empirical Dispersion Energy =           0.0000000000000000
    PCM Polarization Energy =               0.0000000000000000
    EFP Energy =                            0.0000000000000000
    Total Energy =                       -457.5008744828820682
    Molecular point group: c1
  Basis Set: CC-PVTZ
  Basis Set:

  -Total Gradient:
     Atom            X                  Y                   Z
    ------   -----------------  -----------------  -----------------
       1       -0.000004516595    -0.000000208701     0.000000721515
       2        0.000008708645    -0.000076302631    -0.000007370005
       3        0.000054069393     0.000048202707     0.000014906654
       4       -0.000067868850     0.000016007623    -0.000006762821
       5       -0.000004666041     0.000000995677    -0.000000160548
       6       -0.000157242827    -0.000128128747    -0.004214583216
       7       -0.000000576902    -0.000007636614     0.000001773657
       8        0.000037958568     0.000034834915    -0.000003415334
       9        0.000005846907     0.000003191621    -0.000000358298
      10        0.000330094571    -0.001081991812     0.006704852806
      11       -0.000004796307    -0.000007891165    -0.000005234554
      12       -0.000889745644     0.004994889572    -0.003913196993
      13        0.000590712478    -0.003783701955     0.001483094437
      14        0.000060312894    -0.000026286326    -0.000051642025
      15        0.000034580905     0.000026180303     0.000002885073
      16        0.000004192006    -0.000017042921     0.000001823976
      17       -0.000003022689    -0.000005091103    -0.000000910719
      18        0.000005959490     0.000009979556    -0.000006423604

  **** Optimization is complete! (in 7 steps) ****
    Final optimized geometry and variables:
    Molecular point group: c1

    Geometry (in Angstrom), charge = 0, multiplicity = 1:

    H           -3.980496613779    -0.719571006069    -0.221635337044
    C           -2.922492189605    -0.542467370281    -0.192891616088
    C           -2.438444810198     0.751851159112    -0.173966223846
    C           -2.042899616627    -1.608458755740    -0.181946721756
    H           -3.118433125230     1.581574372598    -0.194039959991
    C           -1.076953004373     0.980801645290    -0.129553897342
    H           -2.415614421993    -2.614355710756    -0.203924810557
    C           -0.680594897087    -1.381799099937    -0.157192564144
    H           -0.701733467524     1.985954682206    -0.106040089157
    C           -0.197958247795    -0.086699230698    -0.110019444917
    H            0.004775074705    -2.206851615122    -0.177532244553
    C            1.280610822922     0.145455739733    -0.151361942376
    O            1.735545007494     0.676940672188     0.966524823255
    O            1.970335673317    -0.148138908832    -1.066297402548
    C            3.123327630339     0.945891707465     1.036930761554
    H            3.691484080335     0.033883026440     0.931444074757
    H            3.291212141726     1.380642934131     2.008515812375
    H            3.416940842421     1.637235330601     0.261105145112

  Mulliken Charges: (a.u.)
   Center  Symbol    Alpha    Beta     Spin     Total
       1     H     0.42145  0.42145  0.00000  0.15710
       2     C     3.08245  3.08245  0.00000 -0.16490
       3     C     3.06602  3.06602  0.00000 -0.13204
       4     C     3.06524  3.06524  0.00000 -0.13047
       5     H     0.42180  0.42180  0.00000  0.15640
       6     C     3.09310  3.09310  0.00000 -0.18620
       7     H     0.42154  0.42154  0.00000  0.15692
       8     C     3.09132  3.09132  0.00000 -0.18264
       9     H     0.42362  0.42362  0.00000  0.15277
      10     C     2.92522  2.92522  0.00000  0.14955
      11     H     0.42024  0.42024  0.00000  0.15952
      12     C     2.84143  2.84143  0.00000  0.31715
      13     O     4.14313  4.14313  0.00000 -0.28627
      14     O     4.19652  4.19652  0.00000 -0.39304
      15     C     3.03709  3.03709  0.00000 -0.07417
      16     H     0.45263  0.45263  0.00000  0.09474
      17     H     0.44305  0.44305  0.00000  0.11390
      18     H     0.45416  0.45416  0.00000  0.09169

   Total alpha = 36.00000, Total beta = 36.00000, Total charge =  0.00000

*** Psi4 exiting successfully. Buy a developer a beer!
