  ==> Input File <==

--------------------------------------------------------------------------
set {
	reference rhf
	basis 6-31G*
}

set_num_threads( 1 )
memory 2 gb

molecule MOL {
0 1

O	 0.074228	 1.262779	 -0.000085
C	 0.028650	 0.075053	 -0.000277
C	 -1.233602	 -0.752807	 0.000328
O	 1.109162	 -0.694619	 -0.000298
C	 -2.501530	 0.091881	 0.000126
H	 -1.193807	 -1.406641	 -0.865785
H	 -1.193516	 -1.405779	 0.867015
H	 -2.545121	 0.729328	 -0.874513
H	 -3.377167	 -0.548497	 0.000561
H	 -2.544818	 0.730135	 0.874258
C	 0.911551	 -2.079642	 0.219363
H	 0.456750	 -2.249951	 1.184538
H	 1.892674	 -2.526869	 0.184018
H	 0.280214	 -2.500069	 -0.550134

	symmetry c1
}
set optking {
	frozen_dihedral = ("
		4 2 3 6
	")
}

ee = energy('scf')
oeprop('DIPOLE', 'QUADRUPOLE', 'MULLIKEN_CHARGES')
f=open( 'psi4out.xyz', 'w' )
f.write( "14  " )
f.write( str(ee) + "\n" )
f.write( MOL.save_string_xyz() )
f.close()
--------------------------------------------------------------------------

    Molecular point group: c1

    Geometry (in Angstrom), charge = 0, multiplicity = 1:

       Center              X                  Y                   Z               Mass
    ------------   -----------------  -----------------  -----------------  -----------------
           O          0.334301462741     1.627887303339    -0.039319898630    15.994914619560
           C          0.288723462741     0.440161303339    -0.039511898630    12.000000000000
           C         -0.973528537259    -0.387698696661    -0.038906898630    12.000000000000
           O          1.369235462741    -0.329510696661    -0.039532898630    15.994914619560
           C         -2.241456537259     0.456989303339    -0.039108898630    12.000000000000
           H         -0.933733537259    -1.041532696661    -0.905019898630     1.007825032070
           H         -0.933442537259    -1.040670696661     0.827780101370     1.007825032070
           H         -2.285047537259     1.094436303339    -0.913747898630     1.007825032070
           H         -3.117093537259    -0.183388696661    -0.038673898630     1.007825032070
           H         -2.284744537259     1.095243303339     0.835023101370     1.007825032070
           C          1.171624462741    -1.714533696661     0.180128101370    12.000000000000
           H          0.716823462741    -1.884842696661     1.145303101370     1.007825032070
           H          2.152747462741    -2.161760696661     0.144783101370     1.007825032070
           H          0.540287462741    -2.134960696661    -0.589368898630     1.007825032070

  Charge       = 0
  Multiplicity = 1
  Basis Set: 6-31G*
  Basis Set:

    Orbital Energies (a.u.)
    -----------------------

    Doubly Occupied:

       1A    -20.609253     2A    -20.544108     3A    -11.375536
       4A    -11.298546     5A    -11.245824     6A    -11.220669
       7A     -1.469814     8A     -1.369998     9A     -1.066553
      10A     -0.990357    11A     -0.908856    12A     -0.764917
      13A     -0.710237    14A     -0.701546    15A     -0.676521
      16A     -0.619445    17A     -0.607487    18A     -0.563660
      19A     -0.558551    20A     -0.524262    21A     -0.514757
      22A     -0.509313    23A     -0.450487    24A     -0.431282

  @DF-RHF Final Energy:  -305.84468163358986

   => Energetics <=

    Nuclear Repulsion Energy =            250.5334372438091179
    One-Electron Energy =                -913.2923276732576596
    Two-Electron Energy =                 356.9142087958582579
    DFT Exchange-Correlation Energy =       0.0000000000000000
    Empirical Dispersion Energy =           0.0000000000000000
    PCM Polarization Energy =               0.0000000000000000
    EFP Energy =                            0.0000000000000000
    Total Energy =                       -305.8446816335903122

  Mulliken Charges: (a.u.)
   Center  Symbol    Alpha    Beta     Spin     Total
       1     O     4.27276  4.27276  0.00000 -0.54553
       2     C     2.59220  2.59220  0.00000  0.81559
       3     C     3.24234  3.24234  0.00000 -0.48467
       4     O     4.29896  4.29896  0.00000 -0.59793
       5     C     3.23337  3.23337  0.00000 -0.46673
       6     H     0.40019  0.40019  0.00000  0.19963
       7     H     0.40320  0.40320  0.00000  0.19360
       8     H     0.40765  0.40765  0.00000  0.18469
       9     H     0.41931  0.41931  0.00000  0.16138
      10     H     0.40815  0.40815  0.00000  0.18370
      11     C     3.10130  3.10130  0.00000 -0.20260
      12     H     0.41197  0.41197  0.00000  0.17606
      13     H     0.39433  0.39433  0.00000  0.21134
      14     H     0.41426  0.41426  0.00000  0.17148

   Total alpha = 24.00000, Total beta = 24.00000, Total charge = -0.00000
