  ==> Input File <==

--------------------------------------------------------------------------
set {
	reference rhf
	basis cc-pvtz
}

set_num_threads( 4 )
memory 2 gb

molecule MOL {
0 1

H	 -3.941973	 0.934228	 -0.390224
C	 -3.240162	 0.342701	 0.161016
C	 -2.105997	 -0.000418	 -0.398703
H	 -3.485368	 0.047206	 1.162193
O	 -1.189946	 -0.765863	 0.237511
H	 -1.846458	 0.297311	 -1.398265
C	 0.026572	 -0.995256	 -0.379403
C	 1.057223	 0.049888	 -0.004615
H	 -0.054361	 -1.010670	 -1.459674
H	 0.397526	 -1.952058	 -0.044198
F	 2.064726	 -0.003418	 -0.852658
F	 0.560734	 1.267639	 -0.050302
F	 1.535585	 -0.139759	 1.201064

	symmetry c1
}
set optking {
	frozen_dihedral = ("
		11 8 7 9
	")
}

ee = optimize('scf')
oeprop('DIPOLE', 'QUADRUPOLE', 'MULLIKEN_CHARGES')
f=open( 'psi4out.xyz', 'w' )
f.write( "13  " )
f.write( str(ee) + "\n" )
f.write( MOL.save_string_xyz() )
f.close()
--------------------------------------------------------------------------

    Molecular point group: c1
  Charge       = 0
  Multiplicity = 1
  Basis Set: CC-PVTZ
  Basis Set:
  @DF-RHF Final Energy:  -527.74068523828578
    Total Energy =                       -527.7406852382853231
    Molecular point group: c1
  Basis Set: CC-PVTZ
  Basis Set:
  Basis Set: CC-PVTZ
  Basis Set:
  @DF-RHF Final Energy:  -527.74080274147821
    Total Energy =                       -527.7408027414780918
  Basis Set: CC-PVTZ
  Basis Set:
  Basis Set: CC-PVTZ
  Basis Set:
  @DF-RHF Final Energy:  -527.74083054351490
    Total Energy =                       -527.7408305435146758
  Basis Set: CC-PVTZ
  Basis Set:
  Basis Set: CC-PVTZ
  Basis Set:
  @DF-RHF Final Energy:  -527.74083371767517
    Total Energy =                       -527.7408337176755140
  Basis Set: CC-PVTZ
  Basis Set:
  Basis Set: CC-PVTZ
  Basis Set:
  @DF-RHF Final Energy:  -527.74083558636698
    Total Energy =                       -527.7408355863669840
  Basis Set: CC-PVTZ
  Basis Set:
  Basis Set: CC-PVTZ
  Basis Set:
  @DF-RHF Final Energy:  -527.74083700426263
    Total Energy =                       -527.7408370042626302
  Basis Set: CC-PVTZ
  Basis Set:
  Charge       = 0
  Multiplicity = 1
  Basis Set: CC-PVTZ
  Basis Set:

    Orbital Energies (a.u.)
    -----------------------

    Doubly Occupied:

       1A    -26.341743     2A    -26.339528     3A    -26.339259
       4A    -20.604483     5A    -11.498324     6A    -11.319937
       7A    -11.298712     8A    -11.213824     9A     -1.750639
      10A     -1.646850    11A     -1.645539    12A     -1.445136
      13A     -1.087770    14A     -1.020416    15A     -0.932500
      16A     -0.844695    17A     -0.838918    18A     -0.827802
      19A     -0.796840    20A     -0.731060    21A     -0.720695
      22A     -0.703690    23A     -0.681278    24A     -0.668063
      25A     -0.661750    26A     -0.651037    27A     -0.638539
      28A     -0.587971    29A     -0.565766    30A     -0.530087
      31A     -0.517518    32A     -0.356701

  @DF-RHF Final Energy:  -527.74083738599597

   => Energetics <=

    Nuclear Repulsion Energy =            413.1091363701932551
    One-Electron Energy =               -1550.0858039973395535
    Two-Electron Energy =                 609.2358302411500972
    DFT Exchange-Correlation Energy =       0.0000000000000000
    Empirical Dispersion Energy =           0.0000000000000000
    PCM Polarization Energy =               0.0000000000000000
    EFP Energy =                            0.0000000000000000
    Total Energy =                       -527.7408373859962012
    Molecular point group: c1
  Basis Set: CC-PVTZ
  Basis Set:

  -Total Gradient:
     Atom            X                  Y                   Z
    ------   -----------------  -----------------  -----------------
       1        0.000004022593     0.000013205234     0.000006650414
       2        0.000014603813    -0.000005290609     0.000007046977
       3       -0.000092362160    -0.000012911935    -0.000048134363
       4        0.000003821456     0.000000896985    -0.000001915692
       5        0.000067091772    -0.000024453208     0.000006524680
       6        0.000018734391     0.000005787398     0.000010939011
       7       -0.003930073830     0.004109821996    -0.000439671955
       8        0.002474965760    -0.003477836763     0.002523556329
       9        0.002826015076    -0.002853353015    -0.000076859196
      10        0.000004363761    -0.000011869716    -0.000026867638
      11       -0.001439206310     0.002185318004    -0.001974875771
      12        0.000022117869     0.000051710499     0.000015860186
      13        0.000025905816     0.000018975134    -0.000002252980

  **** Optimization is complete! (in 7 steps) ****
    Final optimized geometry and variables:
    Molecular point group: c1

    Geometry (in Angstrom), charge = 0, multiplicity = 1:

    H           -3.966385325642     0.921517280558    -0.378865664052
    C           -3.269498939553     0.318215074078     0.165819363186
    C           -2.112793170154     0.022463481869    -0.374350104329
    H           -3.536954230405    -0.025342484902     1.145756235977
    O           -1.197262724338    -0.746797621209     0.258414175176
    H           -1.830904661042     0.368222475765    -1.352001358549
    C            0.009870702172    -0.987666511861    -0.367659514912
    C            1.065491910759     0.044303269224    -0.010069729545
    H           -0.065553668022    -1.031674683910    -1.447229060795
    H            0.375078291361    -1.945344404872    -0.026248454473
    F            2.080034429462    -0.052452419817    -0.846257915354
    F            0.600489806533     1.271240497501    -0.098988873125
    F            1.526598140863    -0.118527001995     1.207190064526

  Mulliken Charges: (a.u.)
   Center  Symbol    Alpha    Beta     Spin     Total
       1     H     0.42523  0.42523  0.00000  0.14955
       2     C     3.19757  3.19757  0.00000 -0.39514
       3     C     2.95663  2.95663  0.00000  0.08675
       4     H     0.42499  0.42499  0.00000  0.15002
       5     O     4.14380  4.14380  0.00000 -0.28759
       6     H     0.43444  0.43444  0.00000  0.13112
       7     C     3.02377  3.02377  0.00000 -0.04755
       8     C     2.67343  2.67343  0.00000  0.65314
       9     H     0.45493  0.45493  0.00000  0.09014
      10     H     0.43656  0.43656  0.00000  0.12687
      11     F     4.61269  4.61269  0.00000 -0.22539
      12     F     4.60878  4.60878  0.00000 -0.21757
      13     F     4.60718  4.60718  0.00000 -0.21435

   Total alpha = 32.00000, Total beta = 32.00000, Total charge = -0.00000
