  ==> Input File <==

--------------------------------------------------------------------------
set {
	reference rhf
	basis cc-pvtz
}

set_num_threads( 4 )
memory 2 gb

molecule MOL {
0 1

H	 -3.144994	 -1.202467	 -0.018751
O	 -2.321472	 -0.864941	 -0.318626
C	 -2.021813	 0.336996	 0.342658
C	 -0.669613	 0.837286	 -0.127252
H	 -2.780861	 1.084746	 0.127159
H	 -2.006390	 0.184138	 1.420053
C	 0.490865	 -0.082543	 0.241244
H	 -0.708709	 0.967192	 -1.204587
H	 -0.507562	 1.822272	 0.303070
C	 0.081325	 -1.214041	 1.179645
H	 1.277927	 0.503719	 0.701557
H	 0.913249	 -0.506542	 -0.667567
C	 1.238882	 -2.138351	 1.542273
H	 -0.338708	 -0.791035	 2.088127
H	 -0.713209	 -1.796221	 0.719785
H	 2.035060	 -1.591374	 2.036067
H	 0.916806	 -2.929082	 2.210343
H	 1.659775	 -2.604354	 0.657324

	symmetry c1
}
set optking {
	frozen_dihedral = ("
		10 7 4 8
	")
}

ee = optimize('scf')
oeprop('DIPOLE', 'QUADRUPOLE', 'MULLIKEN_CHARGES')
f=open( 'psi4out.xyz', 'w' )
f.write( "18  " )
f.write( str(ee) + "\n" )
f.write( MOL.save_string_xyz() )
f.close()
--------------------------------------------------------------------------

    Molecular point group: c1
  Charge       = 0
  Multiplicity = 1
  Basis Set: CC-PVTZ
  Basis Set:
  @DF-RHF Final Energy:  -271.27125980141847
    Total Energy =                       -271.2712598014185232
    Molecular point group: c1
  Basis Set: CC-PVTZ
  Basis Set:
  Basis Set: CC-PVTZ
  Basis Set:
  @DF-RHF Final Energy:  -271.27613067177612
    Total Energy =                       -271.2761306717762295
  Basis Set: CC-PVTZ
  Basis Set:
  Basis Set: CC-PVTZ
  Basis Set:
  @DF-RHF Final Energy:  -271.27732995560166
    Total Energy =                       -271.2773299556014308
  Basis Set: CC-PVTZ
  Basis Set:
  Basis Set: CC-PVTZ
  Basis Set:
  @DF-RHF Final Energy:  -271.27754461089057
    Total Energy =                       -271.2775446108905726
  Basis Set: CC-PVTZ
  Basis Set:
  Basis Set: CC-PVTZ
  Basis Set:
  @DF-RHF Final Energy:  -271.27756712972518
    Total Energy =                       -271.2775671297251279
  Basis Set: CC-PVTZ
  Basis Set:
  Basis Set: CC-PVTZ
  Basis Set:
  @DF-RHF Final Energy:  -271.27758174549166
    Total Energy =                       -271.2775817454914886
  Basis Set: CC-PVTZ
  Basis Set:
  Basis Set: CC-PVTZ
  Basis Set:
  @DF-RHF Final Energy:  -271.27758295645646
    Total Energy =                       -271.2775829564560013
  Basis Set: CC-PVTZ
  Basis Set:
  Charge       = 0
  Multiplicity = 1
  Basis Set: CC-PVTZ
  Basis Set:

    Orbital Energies (a.u.)
    -----------------------

    Doubly Occupied:

       1A    -20.546937     2A    -11.265777     3A    -11.211565
       4A    -11.207803     5A    -11.204947     6A    -11.201269
       7A     -1.364435     8A     -1.071896     9A     -1.007212
      10A     -0.913952    11A     -0.834243    12A     -0.766007
      13A     -0.708920    14A     -0.644635    15A     -0.628314
      16A     -0.583562    17A     -0.563790    18A     -0.554686
      19A     -0.536114    20A     -0.496026    21A     -0.493271
      22A     -0.468155    23A     -0.452727    24A     -0.445133
      25A     -0.429406

  @DF-RHF Final Energy:  -271.27758308128853

   => Energetics <=

    Nuclear Repulsion Energy =            255.0725020126068614
    One-Electron Energy =                -873.4986048613932326
    Two-Electron Energy =                 347.1485197674978167
    DFT Exchange-Correlation Energy =       0.0000000000000000
    Empirical Dispersion Energy =           0.0000000000000000
    PCM Polarization Energy =               0.0000000000000000
    EFP Energy =                            0.0000000000000000
    Total Energy =                       -271.2775830812885829
    Molecular point group: c1
  Basis Set: CC-PVTZ
  Basis Set:

  -Total Gradient:
     Atom            X                  Y                   Z
    ------   -----------------  -----------------  -----------------
       1        0.000001966150     0.000001637714    -0.000001153068
       2        0.000002397938    -0.000011549327     0.000005775772
       3        0.000002613759     0.000006205170    -0.000004451228
       4        0.002845022354     0.003141750628    -0.000853554322
       5        0.000004842806     0.000005049266    -0.000000250781
       6       -0.000003896045    -0.000008738795    -0.000000175454
       7        0.000398732642     0.001972217280     0.003495473469
       8       -0.002580408940    -0.003240800128    -0.000220912270
       9        0.000008451050    -0.000009038563     0.000003156531
      10       -0.000699799695    -0.001883602309    -0.002433015073
      11        0.000006495894     0.000004769235     0.000002354726
      12       -0.000004530365     0.000002464777     0.000003062068
      13        0.000003778294     0.000014751558    -0.000001132490
      14        0.000001946442     0.000002148563     0.000000381759
      15        0.000002944676     0.000010047585     0.000002847380
      16        0.000009013404    -0.000005216930    -0.000000994897
      17       -0.000003439199     0.000000175437     0.000002275273
      18        0.000003868833    -0.000002271162     0.000000312604

  **** Optimization is complete! (in 8 steps) ****
    Final optimized geometry and variables:
    Molecular point group: c1

    Geometry (in Angstrom), charge = 0, multiplicity = 1:

    H           -2.757422476761    -0.463613907994    -0.674496957851
    O           -1.890350534029    -0.195826241318    -0.917156658298
    C           -1.505035943758     0.930192925873    -0.169138937264
    C           -0.096768912109     1.336363620380    -0.570313026926
    H           -2.174867987378     1.760600365985    -0.377721049231
    H           -1.568119310513     0.721636722543     0.894448721475
    C            1.064233450478     0.391884698397    -0.166787001811
    H           -0.120669275470     1.427804960082    -1.649926678451
    H            0.079637388802     2.327059726491    -0.165682016541
    C            0.747448924622    -0.747324106024     0.802649439685
    H            1.867446874596     0.989951404764     0.252221044479
    H            1.471550598637    -0.053670036805    -1.068220129599
    C            1.973835945269    -1.608699900889     1.088470865650
    H            0.376194510914    -0.346142858658     1.741938985341
    H           -0.040920374035    -1.364685305536     0.393419115873
    H            2.775232014222    -1.022220457898     1.526128829023
    H            1.736631482494    -2.410355992095     1.778782470866
    H            2.355439207006    -2.059290304298     0.178236014782

  Mulliken Charges: (a.u.)
   Center  Symbol    Alpha    Beta     Spin     Total
       1     H     0.39439  0.39439  0.00000  0.21123
       2     O     4.20281  4.20281  0.00000 -0.40562
       3     C     2.98310  2.98310  0.00000  0.03380
       4     C     3.09831  3.09831  0.00000 -0.19661
       5     H     0.45782  0.45782  0.00000  0.08436
       6     H     0.46601  0.46601  0.00000  0.06799
       7     C     3.08639  3.08639  0.00000 -0.17278
       8     H     0.44980  0.44980  0.00000  0.10040
       9     H     0.45075  0.45075  0.00000  0.09850
      10     C     3.09026  3.09026  0.00000 -0.18052
      11     H     0.45311  0.45311  0.00000  0.09378
      12     H     0.45281  0.45281  0.00000  0.09438
      13     C     3.15155  3.15155  0.00000 -0.30309
      14     H     0.45764  0.45764  0.00000  0.08473
      15     H     0.44399  0.44399  0.00000  0.11201
      16     H     0.45698  0.45698  0.00000  0.08604
      17     H     0.44951  0.44951  0.00000  0.10099
      18     H     0.45479  0.45479  0.00000  0.09042

   Total alpha = 25.00000, Total beta = 25.00000, Total charge = -0.00000
