  ==> Input File <==

--------------------------------------------------------------------------
set {
	reference rhf
	basis 6-31G*
}

set_num_threads( 1 )
memory 2 gb

molecule MOL {
0 1

H	 1.116034	 -1.232703	 0.177941
O	 1.291574	 -0.556751	 -0.462471
C	 0.709265	 0.639550	 -0.033818
C	 -0.793441	 0.596080	 0.058728
H	 1.008197	 1.395412	 -0.751115
H	 1.117634	 0.945602	 0.928778
C	 -1.530462	 -0.493172	 -0.025500
H	 -1.268471	 1.554324	 0.202247
H	 -1.092586	 -1.461565	 -0.186463
H	 -2.602122	 -0.450675	 0.050101

	symmetry c1
}
set optking {
	frozen_dihedral = ("
		5 3 2 1,
		3 4 7 9
	")
}

ee = energy('scf')
oeprop('DIPOLE', 'QUADRUPOLE', 'MULLIKEN_CHARGES')
f=open( 'psi4out.xyz', 'w' )
f.write( "10  " )
f.write( str(ee) + "\n" )
f.write( MOL.save_string_xyz() )
f.close()
--------------------------------------------------------------------------

    Molecular point group: c1

    Geometry (in Angstrom), charge = 0, multiplicity = 1:

       Center              X                  Y                   Z               Mass
    ------------   -----------------  -----------------  -----------------  -----------------
           H          1.123818441177    -1.245806957946     0.298190013651     1.007825032070
           O          1.299358441177    -0.569854957946    -0.342221986349    15.994914619560
           C          0.717049441177     0.626446042054     0.086431013651    12.000000000000
           C         -0.785656558823     0.582976042054     0.178977013651    12.000000000000
           H          1.015981441177     1.382308042054    -0.630865986349     1.007825032070
           H          1.125418441177     0.932498042054     1.049027013651     1.007825032070
           C         -1.522677558823    -0.506275957946     0.094749013651    12.000000000000
           H         -1.260686558823     1.541220042054     0.322496013651     1.007825032070
           H         -1.084801558823    -1.474668957946    -0.066213986349     1.007825032070
           H         -2.594337558823    -0.463778957946     0.170350013651     1.007825032070

  Charge       = 0
  Multiplicity = 1
  Basis Set: 6-31G*
  Basis Set:

    Orbital Energies (a.u.)
    -----------------------

    Doubly Occupied:

       1A    -20.560842     2A    -11.278817     3A    -11.232415
       4A    -11.221097     5A     -1.369639     6A     -1.059055
       7A     -0.930042     8A     -0.767745     9A     -0.692693
      10A     -0.661469    11A     -0.619930    12A     -0.567888
      13A     -0.533944    14A     -0.500047    15A     -0.446384
      16A     -0.365746

  @DF-RHF Final Energy:  -191.91577413948210

   => Energetics <=

    Nuclear Repulsion Energy =            119.4297782973823274
    One-Electron Energy =                -497.0756105691235121
    Two-Electron Energy =                 185.7300581322591313
    DFT Exchange-Correlation Energy =       0.0000000000000000
    Empirical Dispersion Energy =           0.0000000000000000
    PCM Polarization Energy =               0.0000000000000000
    EFP Energy =                            0.0000000000000000
    Total Energy =                       -191.9157741394820675

  Mulliken Charges: (a.u.)
   Center  Symbol    Alpha    Beta     Spin     Total
       1     H     0.28006  0.28006  0.00000  0.43988
       2     O     4.36559  4.36559  0.00000 -0.73118
       3     C     3.00392  3.00392  0.00000 -0.00785
       4     C     3.08546  3.08546  0.00000 -0.17093
       5     H     0.40963  0.40963  0.00000  0.18074
       6     H     0.42382  0.42382  0.00000  0.15237
       7     C     3.19836  3.19836  0.00000 -0.39672
       8     H     0.40939  0.40939  0.00000  0.18123
       9     H     0.41414  0.41414  0.00000  0.17171
      10     H     0.40962  0.40962  0.00000  0.18076

   Total alpha = 16.00000, Total beta = 16.00000, Total charge =  0.00000
