                              Psi4 1.0.54 Driver

  ==> Input File <==

--------------------------------------------------------------------------
set {
	reference rhf
	basis cc-pvtz
}

set_num_threads( 4 )
memory 2 gb

molecule MOL {
0 1

H	 -2.715323	 -3.195895	 -0.405679
O	 -2.603405	 -2.265828	 -0.473825
C	 -1.317354	 -1.901696	 -0.047328
C	 -1.175688	 -0.398187	 -0.171891
H	 -1.158880	 -2.204493	 0.985616
H	 -0.561052	 -2.396396	 -0.653224
C	 0.196029	 0.106276	 0.266738
H	 -1.952788	 0.070719	 0.423477
H	 -1.363275	 -0.119569	 -1.203928
C	 1.330220	 -0.826136	 -0.155230
H	 0.359542	 1.097229	 -0.145561
H	 0.212134	 0.218135	 1.348778
C	 2.719700	 -0.407669	 0.328325
H	 1.339388	 -0.911200	 -1.239363
H	 1.119001	 -1.821953	 0.224128
C	 3.241564	 0.893452	 -0.276737
H	 3.418299	 -1.204729	 0.093035
H	 2.711776	 -0.323368	 1.411960
H	 3.254204	 0.841071	 -1.360784
H	 2.634460	 1.745075	 0.005842
H	 4.254264	 1.092401	 0.054971

	symmetry c1
}
set optking {
	frozen_dihedral = ("
		8 4 7 10
	")
}

ee,wfn = optimize('scf', return_wfn=True)
oeprop( wfn, 'DIPOLE', 'QUADRUPOLE', 'MULLIKEN_CHARGES')
f=open( 'psi4out.xyz', 'w' )
f.write( "21  " )
f.write( str(ee) + "\n" )
f.write( MOL.save_string_xyz() )
f.close()
--------------------------------------------------------------------------

    Molecular point group: c1
  Charge       = 0
  Multiplicity = 1
  Basis Set: CC-PVTZ
  Basis Set:
  @DF-RHF Final Energy:  -310.32582091055679
    Total Energy =                       -310.3258209105570700
    Molecular point group: c1
  Basis Set: CC-PVTZ
  Basis Set:
  Basis Set: CC-PVTZ
  Basis Set:
  @DF-RHF Final Energy:  -309.05131862807207
    Total Energy =                       -309.0513186280720674
  Basis Set: CC-PVTZ
  Basis Set:
  Basis Set: CC-PVTZ
  Basis Set:
  @DF-RHF Final Energy:  -309.26877980114114
    Total Energy =                       -309.2687798011413065
  Basis Set: CC-PVTZ
  Basis Set:
  Basis Set: CC-PVTZ
  Basis Set:
  @DF-RHF Final Energy:  -309.67547013905011
    Total Energy =                       -309.6754701390503897
  Basis Set: CC-PVTZ
  Basis Set:
  @DF-RHF Final Energy:  -310.01498388307391
    Total Energy =                       -310.0149838830738531
  @DF-RHF Final Energy:  -310.23254191210123
    Total Energy =                       -310.2325419121010555
  @DF-RHF Final Energy:  -310.31485055671766
    Total Energy =                       -310.3148505567175448
  @DF-RHF Final Energy:  -309.27201153209859
    Total Energy =                       -309.2720115320984746
  @DF-RHF Final Energy:  -309.66268190709502
    Total Energy =                       -309.6626819070949068
  @DF-RHF Final Energy:  -309.99341030876474
    Total Energy =                       -309.9934103087646236
  @DF-RHF Final Energy:  -310.21463847334036
    Total Energy =                       -310.2146384733404147
  @DF-RHF Final Energy:  -310.30927883802627
    Total Energy =                       -310.3092788380261027
  @DF-RHF Final Energy:  -310.32470977565629
    Total Energy =                       -310.3247097756561743
  @DF-RHF Final Energy:  -310.32610167823543
    Total Energy =                       -310.3261016782350339
  @DF-RHF Final Energy:  -310.32859344157447
    Total Energy =                       -310.3285934415744123
  Basis Set: CC-PVTZ
  Basis Set:
  @DF-RHF Final Energy:  -310.32865391570090
    Total Energy =                       -310.3286539157010111
  Basis Set: CC-PVTZ
  Basis Set:
  Basis Set: CC-PVTZ
  Basis Set:
  @DF-RHF Final Energy:  -310.32863333735753
    Total Energy =                       -310.3286333373573029
  Basis Set: CC-PVTZ
  Basis Set:
  Basis Set: CC-PVTZ
  Basis Set:
  @DF-RHF Final Energy:  -310.32867066120986
    Total Energy =                       -310.3286706612094576
  Basis Set: CC-PVTZ
  Basis Set:
  Charge       = 0
  Multiplicity = 1
  Basis Set: CC-PVTZ
  Basis Set:

    Orbital Energies (a.u.)
    -----------------------

    Doubly Occupied:

       1A    -20.544860     2A    -11.264091     3A    -11.214488
       4A    -11.213558     5A    -11.212957     6A    -11.209317
       7A    -11.206605     8A     -1.362622     9A     -1.087259
      10A     -1.032460    11A     -0.951903    12A     -0.886324
      13A     -0.813701    14A     -0.767210    15A     -0.699173
      16A     -0.656392    17A     -0.627620    18A     -0.610158
      19A     -0.579979    20A     -0.574903    21A     -0.535733
      22A     -0.531458    23A     -0.514971    24A     -0.484539
      25A     -0.484471    26A     -0.460578    27A     -0.452069
      28A     -0.443185    29A     -0.434938

  @DF-RHF Final Energy:  -310.32867111123187

   => Energetics <=

    Nuclear Repulsion Energy =            316.9993756865063688
    One-Electron Energy =               -1048.9410492535230333
    Two-Electron Energy =                 421.6130024557849083
    DFT Exchange-Correlation Energy =       0.0000000000000000
    Empirical Dispersion Energy =           0.0000000000000000
    PCM Polarization Energy =               0.0000000000000000
    EFP Energy =                            0.0000000000000000
    Total Energy =                       -310.3286711112317562
    Molecular point group: c1
  Basis Set: CC-PVTZ
  Basis Set:

  -Total Gradient:
     Atom            X                  Y                   Z
    ------   -----------------  -----------------  -----------------
       1       -0.000016466457     0.000000718139     0.000039196444
       2        0.000015566549    -0.000007112100     0.000022170338
       3       -0.000016375927     0.000036456941    -0.000005489144
       4       -0.000167753409     0.004161904092    -0.002282095430
       5       -0.000004006086     0.000017425745    -0.000014984348
       6        0.000010182889    -0.000004372280    -0.000009011996
       7       -0.002360775621     0.002953606306    -0.002312677180
       8        0.000740948906    -0.004382135213     0.002551087167
       9        0.000005943253    -0.000013381661     0.000002740499
      10        0.001789473778    -0.002777055876     0.002018519564
      11        0.000011529502    -0.000000190231    -0.000005276331
      12        0.000010476482    -0.000014396866    -0.000005984054
      13       -0.000042243876    -0.000016357890    -0.000034688735
      14       -0.000019858533     0.000020251385     0.000011165037
      15        0.000004909388     0.000002945549    -0.000030865129
      16        0.000055291162     0.000017876905     0.000060948528
      17        0.000010619722     0.000011202781     0.000015769834
      18        0.000022874000    -0.000009231110     0.000010266199
      19       -0.000026976235     0.000015289033    -0.000013679176
      20       -0.000018932083    -0.000009855044    -0.000018990279
      21       -0.000004427407    -0.000003588604     0.000001878188

  **** Optimization is complete! (in 19 steps) ****
    Final optimized geometry and variables:
    Molecular point group: c1

    Geometry (in Angstrom), charge = 0, multiplicity = 1:

    H           -0.944536634593     0.316692057809     3.877831080639
    O           -0.521104989869     0.843410902994     3.225600199331
    C           -0.349295447219     0.103188616024     2.044879817991
    C            0.277214488439     1.021883191242     1.009971674790
    H            0.300054693902    -0.751883027156     2.225015013998
    H           -1.305398693616    -0.276860538280     1.699110168095
    C            0.701619053229     0.334992446919    -0.295245446533
    H            1.155824254826     1.443505145662     1.485157501181
    H           -0.412875561383     1.834437249479     0.811345211205
    C           -0.276501562178    -0.700885743614    -0.852726036258
    H            0.891147769094     1.104711420796    -1.033524233303
    H            1.654160581788    -0.164072388966    -0.131836920191
    C            0.156981784533    -1.316418113695    -2.185377431239
    H           -1.261095771069    -0.252901475143    -0.973013268345
    H           -0.393669071680    -1.504194599612    -0.133718701561
    C            0.126436010019    -0.358244091989    -3.373671447969
    H           -0.495416772728    -2.156591991203    -2.402508161019
    H            1.156754770845    -1.729921873643    -2.080292711514
    H           -0.862661499936     0.069589284397    -3.502518063967
    H            0.827379521006     0.459144021223    -3.257292378249
    H            0.382494124870    -0.876688843668    -4.290621411036

  Mulliken Charges: (a.u.)
   Center  Symbol    Alpha    Beta     Spin     Total
       1     H     0.39714  0.39714  0.00000  0.20572
       2     O     4.19642  4.19642  0.00000 -0.39284
       3     C     2.96756  2.96756  0.00000  0.06488
       4     C     3.08838  3.08838  0.00000 -0.17676
       5     H     0.47337  0.47337  0.00000  0.05326
       6     H     0.47088  0.47088  0.00000  0.05824
       7     C     3.10901  3.10901  0.00000 -0.21802
       8     H     0.44666  0.44666  0.00000  0.10668
       9     H     0.44953  0.44953  0.00000  0.10095
      10     C     3.10221  3.10221  0.00000 -0.20442
      11     H     0.44556  0.44556  0.00000  0.10889
      12     H     0.45310  0.45310  0.00000  0.09380
      13     C     3.09008  3.09008  0.00000 -0.18017
      14     H     0.45263  0.45263  0.00000  0.09474
      15     H     0.44751  0.44751  0.00000  0.10499
      16     C     3.15128  3.15128  0.00000 -0.30255
      17     H     0.44850  0.44850  0.00000  0.10300
      18     H     0.45480  0.45480  0.00000  0.09041
      19     H     0.45489  0.45489  0.00000  0.09021
      20     H     0.45375  0.45375  0.00000  0.09250
      21     H     0.44675  0.44675  0.00000  0.10650

   Total alpha = 29.00000, Total beta = 29.00000, Total charge = -0.00000

*** Psi4 exiting successfully. Buy a developer a beer!
