  ==> Input File <==

--------------------------------------------------------------------------
set {
	reference rhf
	basis 6-31G*
}

set_num_threads( 1 )
memory 2 gb

molecule MOL {
0 1

H	 -3.420663	 1.227371	 -1.044276
O	 -3.452007	 0.283848	 -0.965577
C	 -3.181085	 -0.079926	 0.364119
C	 -1.765924	 0.277073	 0.805136
H	 -3.327791	 -1.152017	 0.410903
H	 -3.905698	 0.375695	 1.036898
C	 -1.651131	 0.584005	 2.298834
H	 -1.096059	 -0.543357	 0.546028
H	 -1.432559	 1.135179	 0.223979
C	 -0.223245	 0.918889	 2.734924
H	 -2.018072	 -0.265528	 2.866600
H	 -2.307195	 1.418635	 2.540425
C	 -0.117311	 1.230736	 4.230121
H	 0.428280	 0.085817	 2.482088
H	 0.138605	 1.773477	 2.164531
C	 1.278079	 1.658815	 4.698941
H	 -0.436444	 0.361011	 4.802334
H	 -0.820602	 2.025398	 4.470353
C	 2.346234	 0.568608	 4.594545
H	 1.209315	 1.980519	 5.735314
H	 1.596035	 2.531377	 4.131717
H	 2.049485	 -0.321831	 5.142447
H	 3.289071	 0.911703	 5.009494
H	 2.531097	 0.277784	 3.565755

	symmetry c1
}
set optking {
	frozen_dihedral = ("
		20 16 13 17,
		17 13 10 7,
		13 10 7 11,
		11 7 4 3,
		1 2 3 5
	")
}

ee = energy('scf')
oeprop('DIPOLE', 'QUADRUPOLE', 'MULLIKEN_CHARGES')
f=open( 'psi4out.xyz', 'w' )
f.write( "24  " )
f.write( str(ee) + "\n" )
f.write( MOL.save_string_xyz() )
f.close()
--------------------------------------------------------------------------

    Molecular point group: c1

    Geometry (in Angstrom), charge = 0, multiplicity = 1:

       Center              X                  Y                   Z               Mass
    ------------   -----------------  -----------------  -----------------  -----------------
           H         -2.537360246157     0.552619179760    -3.332464152013     1.007825032070
           O         -2.568704246157    -0.390903820240    -3.253765152013    15.994914619560
           C         -2.297782246157    -0.754677820240    -1.924069152013    12.000000000000
           C         -0.882621246157    -0.397678820240    -1.483052152013    12.000000000000
           H         -2.444488246157    -1.826768820240    -1.877285152013     1.007825032070
           H         -3.022395246157    -0.299056820240    -1.251290152013     1.007825032070
           C         -0.767828246157    -0.090746820240     0.010645847987    12.000000000000
           H         -0.212756246157    -1.218108820240    -1.742160152013     1.007825032070
           H         -0.549256246157     0.460427179760    -2.064209152013     1.007825032070
           C          0.660057753843     0.244137179760     0.446735847987    12.000000000000
           H         -1.134769246157    -0.940279820240     0.578411847987     1.007825032070
           H         -1.423892246157     0.743883179760     0.252236847987     1.007825032070
           C          0.765991753843     0.555984179760     1.941932847987    12.000000000000
           H          1.311582753843    -0.588934820240     0.193899847987     1.007825032070
           H          1.021907753843     1.098725179760    -0.123657152013     1.007825032070
           C          2.161381753843     0.984063179760     2.410752847987    12.000000000000
           H          0.446858753843    -0.313740820240     2.514145847987     1.007825032070
           H          0.062700753843     1.350646179760     2.182164847987     1.007825032070
           C          3.229536753843    -0.106143820240     2.306356847987    12.000000000000
           H          2.092617753843     1.305767179760     3.447125847987     1.007825032070
           H          2.479337753843     1.856625179760     1.843528847987     1.007825032070
           H          2.932787753843    -0.996582820240     2.854258847987     1.007825032070
           H          4.172373753843     0.236951179760     2.721305847987     1.007825032070
           H          3.414399753843    -0.396967820240     1.277566847987     1.007825032070

  Charge       = 0
  Multiplicity = 1
  Basis Set: 6-31G*
  Basis Set:

    Orbital Energies (a.u.)
    -----------------------

    Doubly Occupied:

       1A    -20.551602     2A    -11.266319     3A    -11.219886
       4A    -11.216866     5A    -11.216712     6A    -11.216012
       7A    -11.215403     8A    -11.209319     9A     -1.358251
      10A     -1.093230    11A     -1.051725    12A     -0.986829
      13A     -0.915311    14A     -0.851393    15A     -0.804950
      16A     -0.779864    17A     -0.689456    18A     -0.655788
      19A     -0.624052    20A     -0.611991    21A     -0.600333
      22A     -0.586175    23A     -0.556769    24A     -0.540724
      25A     -0.529970    26A     -0.510444    27A     -0.490765
      28A     -0.483974    29A     -0.474341    30A     -0.462424
      31A     -0.456576    32A     -0.446584    33A     -0.421509

  @DF-RHF Final Energy:  -349.24383868894739

   => Energetics <=

    Nuclear Repulsion Energy =            380.0662033490470435
    One-Electron Energy =               -1226.4296582967126596
    Two-Electron Energy =                 497.1196162587188496
    DFT Exchange-Correlation Energy =       0.0000000000000000
    Empirical Dispersion Energy =           0.0000000000000000
    PCM Polarization Energy =               0.0000000000000000
    EFP Energy =                            0.0000000000000000
    Total Energy =                       -349.2438386889467097

  Mulliken Charges: (a.u.)
   Center  Symbol    Alpha    Beta     Spin     Total
       1     H     0.28368  0.28368  0.00000  0.43265
       2     O     4.37124  4.37124  0.00000 -0.74249
       3     C     2.99071  2.99071  0.00000  0.01859
       4     C     3.16831  3.16831  0.00000 -0.33662
       5     H     0.41500  0.41500  0.00000  0.16999
       6     H     0.43047  0.43047  0.00000  0.13906
       7     C     3.15967  3.15967  0.00000 -0.31935
       8     H     0.41628  0.41628  0.00000  0.16745
       9     H     0.42405  0.42405  0.00000  0.15189
      10     C     3.15351  3.15351  0.00000 -0.30701
      11     H     0.42132  0.42132  0.00000  0.15736
      12     H     0.42383  0.42383  0.00000  0.15234
      13     C     3.15249  3.15249  0.00000 -0.30499
      14     H     0.42020  0.42020  0.00000  0.15960
      15     H     0.42370  0.42370  0.00000  0.15261
      16     C     3.15242  3.15242  0.00000 -0.30484
      17     H     0.42396  0.42396  0.00000  0.15209
      18     H     0.42262  0.42262  0.00000  0.15476
      19     C     3.24131  3.24131  0.00000 -0.48263
      20     H     0.42078  0.42078  0.00000  0.15844
      21     H     0.42339  0.42339  0.00000  0.15322
      22     H     0.42217  0.42217  0.00000  0.15566
      23     H     0.41900  0.41900  0.00000  0.16201
      24     H     0.41989  0.41989  0.00000  0.16022

   Total alpha = 33.00000, Total beta = 33.00000, Total charge =  0.00000
