  ==> Input File <==

--------------------------------------------------------------------------
set {
	reference rhf
	basis cc-pvtz
}

set_num_threads( 4 )
memory 2 gb

molecule MOL {
0 1

H	 2.312334	 -0.067909	 -0.334743
O	 1.555995	 -0.634677	 -0.348572
C	 0.489979	 0.078084	 0.002623
C	 -0.763662	 -0.754014	 0.000816
O	 0.559597	 1.227855	 0.269251
C	 -2.038001	 0.074705	 -0.000833
H	 -0.712945	 -1.405886	 -0.864342
H	 -0.715137	 -1.405770	 0.866182
H	 -2.087267	 0.710831	 -0.874232
H	 -2.903419	 -0.576199	 -0.001922
H	 -2.089467	 0.710909	 0.872389

	symmetry c1
}
set optking {
	frozen_dihedral = ("
		2 3 4 7
	")
}

ee = optimize('scf')
oeprop('DIPOLE', 'QUADRUPOLE', 'MULLIKEN_CHARGES')
f=open( 'psi4out.xyz', 'w' )
f.write( "11  " )
f.write( str(ee) + "\n" )
f.write( MOL.save_string_xyz() )
f.close()
--------------------------------------------------------------------------

    Molecular point group: c1
  Charge       = 0
  Multiplicity = 1
  Basis Set: CC-PVTZ
  Basis Set:
  @DF-RHF Final Energy:  -266.95293056008541
    Total Energy =                       -266.9529305600858038
    Molecular point group: c1
  Basis Set: CC-PVTZ
  Basis Set:
  Basis Set: CC-PVTZ
  Basis Set:
  @DF-RHF Final Energy:  -266.95280222989823
    Total Energy =                       -266.9528022298982819
  Basis Set: CC-PVTZ
  Basis Set:
  Basis Set: CC-PVTZ
  Basis Set:
  @DF-RHF Final Energy:  -266.95295336685888
    Total Energy =                       -266.9529533668588783
  Basis Set: CC-PVTZ
  Basis Set:
  Charge       = 0
  Multiplicity = 1
  Basis Set: CC-PVTZ
  Basis Set:

    Orbital Energies (a.u.)
    -----------------------

    Doubly Occupied:

       1A    -20.605529     2A    -20.541211     3A    -11.374483
       4A    -11.242799     5A    -11.219409     6A     -1.478796
       7A     -1.370204     8A     -1.066467     9A     -0.918772
      10A     -0.804603    11A     -0.706131    12A     -0.693486
      13A     -0.663792    14A     -0.599331    15A     -0.596541
      16A     -0.534427    17A     -0.527427    18A     -0.506248
      19A     -0.484642    20A     -0.448576

  @DF-RHF Final Energy:  -266.95303892094637

   => Energetics <=

    Nuclear Repulsion Energy =            180.1307731013625926
    One-Electron Energy =                -721.4018744165817907
    Two-Electron Energy =                 274.3180623942727152
    DFT Exchange-Correlation Energy =       0.0000000000000000
    Empirical Dispersion Energy =           0.0000000000000000
    PCM Polarization Energy =               0.0000000000000000
    EFP Energy =                            0.0000000000000000
    Total Energy =                       -266.9530389209464829
    Molecular point group: c1
  Basis Set: CC-PVTZ
  Basis Set:

  -Total Gradient:
     Atom            X                  Y                   Z
    ------   -----------------  -----------------  -----------------
       1       -0.000025060941    -0.000000771079     0.000007109128
       2        0.000007364791     0.000092182051    -0.000765852986
       3        0.000201762844    -0.000228809807     0.001035478980
       4       -0.000592069128     0.000835907131    -0.000799783940
       5       -0.000003986705    -0.000033019142     0.000058426438
       6       -0.000012621641     0.000004939325    -0.000038415208
       7        0.000450437375    -0.000714172929     0.000536363354
       8       -0.000004613972     0.000022330934    -0.000082292297
       9        0.000004556989     0.000009118136     0.000007343819
      10       -0.000006115197     0.000004116457     0.000029920162
      11       -0.000019654416     0.000008178924     0.000011702550

  **** Optimization is complete! (in 4 steps) ****
    Final optimized geometry and variables:
    Molecular point group: c1

    Geometry (in Angstrom), charge = 0, multiplicity = 1:

    H            2.321976044248    -0.073373459643    -0.272615286960
    O            1.563160013263    -0.635191271663    -0.322182462763
    C            0.491343133450     0.075587594568     0.014840166869
    C           -0.762646979558    -0.757067750776     0.005778250758
    O            0.558250495527     1.222107774167     0.295938840591
    C           -2.037230838249     0.071830452696     0.026875170194
    H           -0.720511051769    -1.419631160553    -0.849431730918
    H           -0.704963488522    -1.399387179602     0.879614665385
    H           -2.107468548728     0.701041388127    -0.851155236760
    H           -2.902744657394    -0.578574920317     0.048785150961
    H           -2.067285544996     0.714129099232     0.895809752920

  Mulliken Charges: (a.u.)
   Center  Symbol    Alpha    Beta     Spin     Total
       1     H     0.38140  0.38140  0.00000  0.23721
       2     O     4.16029  4.16029  0.00000 -0.32058
       3     C     2.80382  2.80382  0.00000  0.39236
       4     C     3.09942  3.09942  0.00000 -0.19884
       5     O     4.19154  4.19154  0.00000 -0.38308
       6     C     3.13956  3.13956  0.00000 -0.27912
       7     H     0.43750  0.43750  0.00000  0.12500
       8     H     0.44189  0.44189  0.00000  0.11622
       9     H     0.45034  0.45034  0.00000  0.09931
      10     H     0.44951  0.44951  0.00000  0.10099
      11     H     0.44474  0.44474  0.00000  0.11053

   Total alpha = 20.00000, Total beta = 20.00000, Total charge = -0.00000
