  ==> Input File <==

--------------------------------------------------------------------------
set {
	reference rhf
	basis 6-31G*
}

set_num_threads( 1 )
memory 2 gb

molecule MOL {
0 1

H	 -2.798360	 -0.862255	 -0.071053
N	 -1.863561	 -0.715187	 0.256814
C	 -1.344686	 0.554728	 -0.219830
H	 -1.300452	 -1.461917	 -0.101532
C	 0.081427	 0.741154	 0.254071
H	 -1.362155	 0.656231	 -1.305829
H	 -1.952773	 1.354456	 0.191809
O	 0.874168	 -0.245412	 -0.342030
H	 0.444037	 1.730782	 -0.023037
H	 0.121165	 0.653424	 1.337565
C	 1.243638	 0.030705	 -1.655355
H	 1.846877	 -0.795219	 -2.006993
H	 0.373033	 0.129814	 -2.301271
H	 1.827309	 0.946655	 -1.719956

	symmetry c1
}
set optking {
	frozen_dihedral = ("
		8 5 3 6,
		6 3 2 4,
		5 8 11 13
	")
}

ee = energy('scf')
oeprop('DIPOLE', 'QUADRUPOLE', 'MULLIKEN_CHARGES')
f=open( 'psi4out.xyz', 'w' )
f.write( "14  " )
f.write( str(ee) + "\n" )
f.write( MOL.save_string_xyz() )
f.close()
--------------------------------------------------------------------------

    Molecular point group: c1

    Geometry (in Angstrom), charge = 0, multiplicity = 1:

       Center              X                  Y                   Z               Mass
    ------------   -----------------  -----------------  -----------------  -----------------
           H         -2.596250608147    -0.920192267446     0.293616656509     1.007825032070
           N         -1.661451608147    -0.773124267446     0.621483656509    14.003074004780
           C         -1.142576608147     0.496790732554     0.144839656509    12.000000000000
           H         -1.098342608147    -1.519854267446     0.263137656509     1.007825032070
           C          0.283536391853     0.683216732554     0.618740656509    12.000000000000
           H         -1.160045608147     0.598293732554    -0.941159343491     1.007825032070
           H         -1.750663608147     1.296518732554     0.556478656509     1.007825032070
           O          1.076277391853    -0.303349267446     0.022639656509    15.994914619560
           H          0.646146391853     1.672844732554     0.341632656509     1.007825032070
           H          0.323274391853     0.595486732554     1.702234656509     1.007825032070
           C          1.445747391853    -0.027232267446    -1.290685343491    12.000000000000
           H          2.048986391853    -0.853156267446    -1.642323343491     1.007825032070
           H          0.575142391853     0.071876732554    -1.936601343491     1.007825032070
           H          2.029418391853     0.888717732554    -1.355286343491     1.007825032070

  Charge       = 0
  Multiplicity = 1
  Basis Set: 6-31G*
  Basis Set:

    Orbital Energies (a.u.)
    -----------------------

    Doubly Occupied:

       1A    -20.557527     2A    -15.530443     3A    -11.268457
       4A    -11.266626     5A    -11.240367     6A     -1.383571
       7A     -1.174917     8A     -0.996823     9A     -0.920096
      10A     -0.809537    11A     -0.690034    12A     -0.678241
      13A     -0.641505    14A     -0.618936    15A     -0.597966
      16A     -0.541227    17A     -0.535081    18A     -0.512040
      19A     -0.466848    20A     -0.419573    21A     -0.378167

  @DF-RHF Final Energy:  -248.11950663765793

   => Energetics <=

    Nuclear Repulsion Energy =            197.9405381200689362
    One-Electron Energy =                -729.6641061959106764
    Two-Electron Energy =                 283.6040614381839760
    DFT Exchange-Correlation Energy =       0.0000000000000000
    Empirical Dispersion Energy =           0.0000000000000000
    PCM Polarization Energy =               0.0000000000000000
    EFP Energy =                            0.0000000000000000
    Total Energy =                       -248.1195066376577643

  Mulliken Charges: (a.u.)
   Center  Symbol    Alpha    Beta     Spin     Total
       1     H     0.33288  0.33288  0.00000  0.33424
       2     N     3.92240  3.92240  0.00000 -0.84479
       3     C     3.07228  3.07228  0.00000 -0.14456
       4     H     0.32534  0.32534  0.00000  0.34933
       5     C     3.00029  3.00029  0.00000 -0.00059
       6     H     0.43273  0.43273  0.00000  0.13453
       7     H     0.42113  0.42113  0.00000  0.15773
       8     O     4.30563  4.30563  0.00000 -0.61126
       9     H     0.43009  0.43009  0.00000  0.13982
      10     H     0.40521  0.40521  0.00000  0.18957
      11     C     3.08352  3.08352  0.00000 -0.16704
      12     H     0.41077  0.41077  0.00000  0.17847
      13     H     0.43006  0.43006  0.00000  0.13989
      14     H     0.42766  0.42766  0.00000  0.14469

   Total alpha = 21.00000, Total beta = 21.00000, Total charge =  0.00000
