  ==> Input File <==

--------------------------------------------------------------------------
set {
	reference rhf
	basis 6-31G*
}

set_num_threads( 4 )
memory 2 gb

molecule MOL {
0 1

O	 -2.324811	 1.361668	 -0.277141
C	 -2.105949	 0.203097	 -0.092081
C	 -0.889235	 -0.467034	 -0.705952
C	 -3.002726	 -0.644460	 0.782455
C	 -0.539983	 -1.762413	 0.044489
H	 -0.059633	 0.227844	 -0.633779
H	 -1.060506	 -0.681448	 -1.757008
C	 0.703109	 -2.447050	 -0.528756
H	 -0.393162	 -1.518100	 1.090500
H	 -1.381979	 -2.451327	 -0.002272
C	 1.055913	 -3.781272	 0.138653
H	 1.552355	 -1.770741	 -0.450562
H	 0.548836	 -2.621290	 -1.591625
C	 1.484517	 -3.664612	 1.602444
H	 1.862008	 -4.243052	 -0.425849
H	 0.206637	 -4.457244	 0.061982
H	 2.326276	 -2.985878	 1.709620
H	 1.788863	 -4.631156	 1.991757
H	 0.682031	 -3.298379	 2.233856
H	 -3.496582	 -1.399307	 0.176174
H	 -3.747939	 -0.023774	 1.260148
H	 -2.421318	 -1.168775	 1.535358

	symmetry c1
}
set optking {
	frozen_dihedral = ("
		6 3 2 1
	")
}

ee = optimize('scf')
oeprop('DIPOLE', 'QUADRUPOLE', 'MULLIKEN_CHARGES')
f=open( 'psi4out.xyz', 'w' )
f.write( "22  " )
f.write( str(ee) + "\n" )
f.write( MOL.save_string_xyz() )
f.close()
--------------------------------------------------------------------------

    Molecular point group: c1
  Charge       = 0
  Multiplicity = 1
  Basis Set: 6-31G*
  Basis Set:
  @DF-RHF Final Energy:  -348.09140828425575
    Total Energy =                       -348.0914082842556354
    Molecular point group: c1
  Basis Set: 6-31G*
  Basis Set:
  Basis Set: 6-31G*
  Basis Set:
  @DF-RHF Final Energy:  -348.09359914551857
    Total Energy =                       -348.0935991455183398
  Basis Set: 6-31G*
  Basis Set:
  Basis Set: 6-31G*
  Basis Set:
  @DF-RHF Final Energy:  -348.09565296273826
    Total Energy =                       -348.0956529627384839
  Basis Set: 6-31G*
  Basis Set:
  Basis Set: 6-31G*
  Basis Set:
  @DF-RHF Final Energy:  -348.09600438568293
    Total Energy =                       -348.0960043856831589
  Basis Set: 6-31G*
  Basis Set:
  @DF-RHF Final Energy:  -348.09582268800955
    Total Energy =                       -348.0958226880093207
  @DF-RHF Final Energy:  -348.09608660014493
    Total Energy =                       -348.0960866001449858
  @DF-RHF Final Energy:  -348.09610070477731
    Total Energy =                       -348.0961007047774842
  @DF-RHF Final Energy:  -348.09589979099724
    Total Energy =                       -348.0958997909968957
  @DF-RHF Final Energy:  -348.09611070650249
    Total Energy =                       -348.0961107065025999
  Basis Set: 6-31G*
  Basis Set:
  @DF-RHF Final Energy:  -348.09609781330437
    Total Energy =                       -348.0960978133044819
  Basis Set: 6-31G*
  Basis Set:
  Basis Set: 6-31G*
  Basis Set:
  @DF-RHF Final Energy:  -348.09611295327250
    Total Energy =                       -348.0961129532727227
  Basis Set: 6-31G*
  Basis Set:
  Basis Set: 6-31G*
  Basis Set:
  @DF-RHF Final Energy:  -348.09611403073552
    Total Energy =                       -348.0961140307355208
  Basis Set: 6-31G*
  Basis Set:
  Charge       = 0
  Multiplicity = 1
  Basis Set: 6-31G*
  Basis Set:

    Orbital Energies (a.u.)
    -----------------------

    Doubly Occupied:

       1A    -20.545434     2A    -11.325637     3A    -11.230898
       4A    -11.230273     5A    -11.227537     6A    -11.224785
       7A    -11.223285     8A    -11.215090     9A     -1.392342
      10A     -1.098823    11A     -1.045187    12A     -0.996319
      13A     -0.941285    14A     -0.863802    15A     -0.789386
      16A     -0.731577    17A     -0.661429    18A     -0.647204
      19A     -0.632573    20A     -0.611826    21A     -0.608667
      22A     -0.583295    23A     -0.556570    24A     -0.543653
      25A     -0.536386    26A     -0.521277    27A     -0.506612
      28A     -0.478708    29A     -0.473125    30A     -0.469820
      31A     -0.464349    32A     -0.395932

  @DF-RHF Final Energy:  -348.09611400563733

   => Energetics <=

    Nuclear Repulsion Energy =            372.4410224787420702
    One-Electron Energy =               -1209.5281012180100788
    Two-Electron Energy =                 488.9909647336305625
    DFT Exchange-Correlation Energy =       0.0000000000000000
    Empirical Dispersion Energy =           0.0000000000000000
    PCM Polarization Energy =               0.0000000000000000
    EFP Energy =                            0.0000000000000000
    Total Energy =                       -348.0961140056374461
    Molecular point group: c1
  Basis Set: 6-31G*
  Basis Set:

  -Total Gradient:
     Atom            X                  Y                   Z
    ------   -----------------  -----------------  -----------------
       1       -0.000775907586    -0.000446058017    -0.001167869397
       2        0.001134443290     0.000529425872     0.001895643080
       3       -0.000676412395     0.000327805278    -0.002092355597
       4        0.000010138931     0.000011425572     0.000016654446
       5        0.000017097873     0.000016530444     0.000013117616
       6        0.000311608769    -0.000430538064     0.001355580895
       7       -0.000004020223     0.000003702830    -0.000003630660
       8       -0.000005330482     0.000006474830     0.000003521620
       9       -0.000006754701    -0.000000763324     0.000000500881
      10        0.000003273585    -0.000003844584    -0.000005540122
      11       -0.000002196498    -0.000007386813    -0.000005065991
      12        0.000000943038    -0.000003184222     0.000001678619
      13       -0.000004453017     0.000009154986    -0.000001138542
      14       -0.000002158273    -0.000000009361     0.000001442189
      15        0.000001405669    -0.000001260645     0.000004116360
      16        0.000003893775    -0.000006556932    -0.000001481870
      17        0.000001186417    -0.000002486097    -0.000000384036
      18       -0.000002745140     0.000000219825     0.000000974044
      19        0.000003528123     0.000000108841     0.000000887470
      20        0.000002372093    -0.000000413645    -0.000008485247
      21       -0.000006999890    -0.000001538024    -0.000003410939
      22       -0.000002913358    -0.000000808755    -0.000004754822

  **** Optimization is complete! (in 13 steps) ****
    Final optimized geometry and variables:
    Molecular point group: c1

    Geometry (in Angstrom), charge = 0, multiplicity = 1:

    O           -1.605420746399     2.769481669424    -0.540327647430
    C           -1.435243052760     1.632193539893    -0.220548504179
    C           -0.213046792461     0.882024574002    -0.737392588919
    C           -2.447436120370     0.910295713276     0.642847056776
    C            0.176971373344    -0.415448830733    -0.024511816465
    H            0.611770620903     1.586236635233    -0.705400536463
    H           -0.404598565303     0.683419247134    -1.790228709635
    C            1.432097794743    -1.043419316540    -0.637714243597
    H            0.345137047953    -0.212833759258     1.029383627086
    H           -0.638031714408    -1.133329531547    -0.076120235499
    C            1.833150130334    -2.391348852927    -0.028086881511
    H            2.263609674224    -0.346777361800    -0.547409819903
    H            1.266606486947    -1.181416004489    -1.704129617565
    C            2.274170203223    -2.321887345365     1.435089085244
    H            2.647134882392    -2.804499577329    -0.618178969956
    H            1.004837142089    -3.090423875571    -0.123959106568
    H            3.093517459945    -1.619672613603     1.562919081018
    H            2.615686969469    -3.292793236520     1.779987868655
    H            1.466687151078    -2.011323143858     2.089961161955
    H           -2.835187809095     0.037668874324     0.125301232921
    H           -3.260479113110     1.584810115858     0.871574329441
    H           -1.994461040301     0.562339969802     1.565540324678

  Mulliken Charges: (a.u.)
   Center  Symbol    Alpha    Beta     Spin     Total
       1     O     4.26342  4.26342  0.00000 -0.52684
       2     C     2.73562  2.73562  0.00000  0.52875
       3     C     3.20489  3.20489  0.00000 -0.40979
       4     C     3.29182  3.29182  0.00000 -0.58363
       5     C     3.16410  3.16410  0.00000 -0.32821
       6     H     0.39926  0.39926  0.00000  0.20148
       7     H     0.40262  0.40262  0.00000  0.19475
       8     C     3.15318  3.15318  0.00000 -0.30636
       9     H     0.41725  0.41725  0.00000  0.16550
      10     H     0.42029  0.42029  0.00000  0.15941
      11     C     3.15297  3.15297  0.00000 -0.30594
      12     H     0.42084  0.42084  0.00000  0.15831
      13     H     0.42021  0.42021  0.00000  0.15959
      14     C     3.24179  3.24179  0.00000 -0.48359
      15     H     0.41863  0.41863  0.00000  0.16274
      16     H     0.42275  0.42275  0.00000  0.15451
      17     H     0.42085  0.42085  0.00000  0.15829
      18     H     0.41744  0.41744  0.00000  0.16513
      19     H     0.42096  0.42096  0.00000  0.15808
      20     H     0.40837  0.40837  0.00000  0.18326
      21     H     0.39557  0.39557  0.00000  0.20886
      22     H     0.40716  0.40716  0.00000  0.18569

   Total alpha = 32.00000, Total beta = 32.00000, Total charge =  0.00000
