  ==> Input File <==

--------------------------------------------------------------------------
set {
	reference rhf
	basis 6-31G*
}

set_num_threads( 1 )
memory 2 gb

molecule MOL {
0 1

H	 -3.888935	 0.988780	 -0.355145
C	 -3.192617	 0.369211	 0.175832
C	 -2.076860	 -0.007332	 -0.404944
H	 -3.431800	 0.071628	 1.179399
O	 -1.180634	 -0.819263	 0.215062
H	 -1.815375	 0.285692	 -1.406422
C	 0.051604	 -1.018856	 -0.387932
C	 1.043764	 0.054862	 -0.001873
H	 -0.017620	 -1.041351	 -1.469781
H	 0.437898	 -1.966374	 -0.042284
F	 2.212596	 -0.199467	 -0.571921
F	 0.652529	 1.252447	 -0.405055
F	 1.230877	 0.110694	 1.300533

	symmetry c1
}
set optking {
	frozen_dihedral = ("
		11 8 7 9,
		3 5 7 9,
		6 3 2 1
	")
}

ee = energy('scf')
oeprop('DIPOLE', 'QUADRUPOLE', 'MULLIKEN_CHARGES')
f=open( 'psi4out.xyz', 'w' )
f.write( "13  " )
f.write( str(ee) + "\n" )
f.write( MOL.save_string_xyz() )
f.close()
--------------------------------------------------------------------------

    Molecular point group: c1

    Geometry (in Angstrom), charge = 0, multiplicity = 1:

       Center              X                  Y                   Z               Mass
    ------------   -----------------  -----------------  -----------------  -----------------
           H         -3.889411206204     0.987955597182    -0.355536498320     1.007825032070
           C         -3.193093206204     0.368386597182     0.175440501680    12.000000000000
           C         -2.077336206204    -0.008156402818    -0.405335498320    12.000000000000
           H         -3.432276206204     0.070803597182     1.179007501680     1.007825032070
           O         -1.181110206204    -0.820087402818     0.214670501680    15.994914619560
           H         -1.815851206204     0.284867597182    -1.406813498320     1.007825032070
           C          0.051127793796    -1.019680402818    -0.388323498320    12.000000000000
           C          1.043287793796     0.054037597182    -0.002264498320    12.000000000000
           H         -0.018096206204    -1.042175402818    -1.470172498320     1.007825032070
           H          0.437421793796    -1.967198402818    -0.042675498320     1.007825032070
           F          2.212119793796    -0.200291402818    -0.572312498320    18.998403224000
           F          0.652052793796     1.251622597182    -0.405446498320    18.998403224000
           F          1.230400793796     0.109869597182     1.300141501680    18.998403224000

  Charge       = 0
  Multiplicity = 1
  Basis Set: 6-31G*
  Basis Set:

    Orbital Energies (a.u.)
    -----------------------

    Doubly Occupied:

       1A    -26.344620     2A    -26.343674     3A    -26.340581
       4A    -20.608439     5A    -11.503161     6A    -11.318965
       7A    -11.299425     8A    -11.215770     9A     -1.741740
      10A     -1.639855    11A     -1.638263    12A     -1.438298
      13A     -1.084233    14A     -1.016468    15A     -0.925338
      16A     -0.836574    17A     -0.830972    18A     -0.821232
      19A     -0.791916    20A     -0.721788    21A     -0.711345
      22A     -0.696393    23A     -0.675873    24A     -0.660422
      25A     -0.654652    26A     -0.643108    27A     -0.634406
      28A     -0.584597    29A     -0.563108    30A     -0.523913
      31A     -0.514147    32A     -0.351476

  @DF-RHF Final Energy:  -527.53591613071467

   => Energetics <=

    Nuclear Repulsion Energy =            413.5475882601871831
    One-Electron Energy =               -1550.8173750578753243
    Two-Electron Energy =                 609.7338706669722797
    DFT Exchange-Correlation Energy =       0.0000000000000000
    Empirical Dispersion Energy =           0.0000000000000000
    PCM Polarization Energy =               0.0000000000000000
    EFP Energy =                            0.0000000000000000
    Total Energy =                       -527.5359161307158047

  Mulliken Charges: (a.u.)
   Center  Symbol    Alpha    Beta     Spin     Total
       1     H     0.40708  0.40708  0.00000  0.18585
       2     C     3.23559  3.23559  0.00000 -0.47119
       3     C     2.89526  2.89526  0.00000  0.20947
       4     H     0.40180  0.40180  0.00000  0.19640
       5     O     4.30164  4.30164  0.00000 -0.60328
       6     H     0.40684  0.40684  0.00000  0.18631
       7     C     3.06393  3.06393  0.00000 -0.12786
       8     C     2.45564  2.45564  0.00000  1.08871
       9     H     0.40556  0.40556  0.00000  0.18888
      10     H     0.38977  0.38977  0.00000  0.22045
      11     F     4.68282  4.68282  0.00000 -0.36563
      12     F     4.67959  4.67959  0.00000 -0.35918
      13     F     4.67447  4.67447  0.00000 -0.34894

   Total alpha = 32.00000, Total beta = 32.00000, Total charge = -0.00000
