  ==> Input File <==

--------------------------------------------------------------------------
set {
	reference rhf
	basis 6-31G*
}

set_num_threads( 4 )
memory 2 gb

molecule MOL {
0 1

O	 -0.641271	 -0.408333	 -2.213514
C	 -0.186010	 -0.763744	 -1.174205
C	 1.028723	 -1.645642	 -1.010054
O	 -0.698257	 -0.426125	 0.001050
C	 1.650702	 -2.059134	 -2.337884
H	 0.725600	 -2.511462	 -0.428917
H	 1.740081	 -1.107186	 -0.390942
H	 0.942847	 -2.610162	 -2.945070
H	 2.516514	 -2.689469	 -2.165078
H	 1.966821	 -1.193178	 -2.906666
C	 -1.853104	 0.406779	 0.000512
C	 -3.066105	 -0.499277	 -0.000959
H	 -1.828410	 1.043074	 -0.873618
H	 -1.829857	 1.042383	 0.875188
H	 -3.071820	 -1.133106	 -0.880383
H	 -3.972708	 0.097145	 -0.001528
H	 -3.073405	 -1.133813	 0.877999

	symmetry c1
}
set optking {
	frozen_dihedral = ("
		2 4 11 13
	")
}

ee = optimize('scf')
oeprop('DIPOLE', 'QUADRUPOLE', 'MULLIKEN_CHARGES')
f=open( 'psi4out.xyz', 'w' )
f.write( "17  " )
f.write( str(ee) + "\n" )
f.write( MOL.save_string_xyz() )
f.close()
--------------------------------------------------------------------------

    Molecular point group: c1
  Charge       = 0
  Multiplicity = 1
  Basis Set: 6-31G*
  Basis Set:
  @DF-RHF Final Energy:  -344.90965388945722
    Total Energy =                       -344.9096538894572745
    Molecular point group: c1
  Basis Set: 6-31G*
  Basis Set:
  Basis Set: 6-31G*
  Basis Set:
  @DF-RHF Final Energy:  -344.91072201716145
    Total Energy =                       -344.9107220171613335
  Basis Set: 6-31G*
  Basis Set:
  Basis Set: 6-31G*
  Basis Set:
  @DF-RHF Final Energy:  -344.91092945093806
    Total Energy =                       -344.9109294509381698
  Basis Set: 6-31G*
  Basis Set:
  Basis Set: 6-31G*
  Basis Set:
  @DF-RHF Final Energy:  -344.91102899404598
    Total Energy =                       -344.9110289940460916
  Basis Set: 6-31G*
  Basis Set:
  Basis Set: 6-31G*
  Basis Set:
  @DF-RHF Final Energy:  -344.91103361941339
    Total Energy =                       -344.9110336194134447
  Basis Set: 6-31G*
  Basis Set:
  Charge       = 0
  Multiplicity = 1
  Basis Set: 6-31G*
  Basis Set:

    Orbital Energies (a.u.)
    -----------------------

    Doubly Occupied:

       1A    -20.600418     2A    -20.544490     3A    -11.372720
       4A    -11.284067     5A    -11.237416     6A    -11.219037
       7A    -11.215732     8A     -1.466325     9A     -1.362301
      10A     -1.069075    11A     -1.028701    12A     -0.914896
      13A     -0.852886    14A     -0.761846    15A     -0.702817
      16A     -0.679867    17A     -0.659490    18A     -0.621656
      19A     -0.607720    20A     -0.568645    21A     -0.549495
      22A     -0.532108    23A     -0.520763    24A     -0.514683
      25A     -0.496576    26A     -0.491982    27A     -0.448739
      28A     -0.436769

  @DF-RHF Final Energy:  -344.91103449240632

   => Energetics <=

    Nuclear Repulsion Energy =            317.7146698925442934
    One-Electron Energy =               -1099.7289696517239008
    Two-Electron Energy =                 437.1032652667735192
    DFT Exchange-Correlation Energy =       0.0000000000000000
    Empirical Dispersion Energy =           0.0000000000000000
    PCM Polarization Energy =               0.0000000000000000
    EFP Energy =                            0.0000000000000000
    Total Energy =                       -344.9110344924060882
    Molecular point group: c1
  Basis Set: 6-31G*
  Basis Set:

  -Total Gradient:
     Atom            X                  Y                   Z
    ------   -----------------  -----------------  -----------------
       1       -0.000012928602    -0.000015818198    -0.000009375891
       2        0.000621280506     0.000884182273     0.000045859666
       3       -0.000013042468     0.000007515835    -0.000006576956
       4       -0.001020156932    -0.001504412384    -0.000169363535
       5        0.000007941831    -0.000004973073    -0.000002117263
       6       -0.000000604503    -0.000003052954    -0.000001919667
       7       -0.000007265296    -0.000001129719    -0.000001162543
       8        0.000000301897     0.000003094219     0.000004580947
       9        0.000002435287    -0.000002094164    -0.000004253002
      10        0.000000952325    -0.000000168690    -0.000001598933
      11        0.001024236341     0.001488183424     0.000809912223
      12        0.000042282841    -0.000030579768    -0.000026797508
      13       -0.000628681706    -0.000833499287    -0.000624287158
      14        0.000000610173    -0.000007039700    -0.000015575531
      15       -0.000001118808    -0.000001160668     0.000006344450
      16       -0.000012981285     0.000012888370     0.000005180849
      17       -0.000003261602     0.000008064485    -0.000008850151

  **** Optimization is complete! (in 6 steps) ****
    Final optimized geometry and variables:
    Molecular point group: c1

    Geometry (in Angstrom), charge = 0, multiplicity = 1:

    O           -0.081521212325     0.320446987094    -1.271855985947
    C            0.372165733350    -0.009084339488    -0.223160929603
    C            1.607487296045    -0.858050822876    -0.039789462287
    O           -0.152231624500     0.326839887544     0.948150777514
    C            2.245648197653    -1.278783291125    -1.357646195653
    H            1.322859877708    -1.720802993372     0.555021963311
    H            2.302290749767    -0.291700003351     0.573095932778
    H            1.554840565928    -1.858353829519    -1.957865561387
    H            3.126373759481    -1.883763355836    -1.170158566687
    H            2.542279977085    -0.415220371860    -1.940356918454
    C           -1.310760902695     1.157226230212     0.967501894351
    C           -2.574074318697     0.317162137252     0.996968791116
    H           -1.299497999659     1.805334724182     0.105479758233
    H           -1.215066819003     1.750792341022     1.865417446750
    H           -2.666061469170    -0.266698221409     0.088633476221
    H           -3.445022095988     0.960387627763     1.077459495919
    H           -2.567039797456    -0.357094652385     1.846259565487

  Mulliken Charges: (a.u.)
   Center  Symbol    Alpha    Beta     Spin     Total
       1     O     4.28744  4.28744  0.00000 -0.57488
       2     C     2.60556  2.60556  0.00000  0.78887
       3     C     3.20516  3.20516  0.00000 -0.41032
       4     O     4.31394  4.31394  0.00000 -0.62788
       5     C     3.23878  3.23878  0.00000 -0.47756
       6     H     0.40064  0.40064  0.00000  0.19872
       7     H     0.40056  0.40056  0.00000  0.19889
       8     H     0.41022  0.41022  0.00000  0.17956
       9     H     0.41823  0.41823  0.00000  0.16354
      10     H     0.40994  0.40994  0.00000  0.18011
      11     C     3.00902  3.00902  0.00000 -0.01804
      12     C     3.25192  3.25192  0.00000 -0.50384
      13     H     0.40001  0.40001  0.00000  0.19998
      14     H     0.41063  0.41063  0.00000  0.17875
      15     H     0.40628  0.40628  0.00000  0.18744
      16     H     0.41783  0.41783  0.00000  0.16434
      17     H     0.41383  0.41383  0.00000  0.17234

   Total alpha = 28.00000, Total beta = 28.00000, Total charge =  0.00000
