                              Psi4 1.0.54 Driver

  ==> Input File <==

--------------------------------------------------------------------------
set {
	reference rhf
	basis cc-pvtz
}

set_num_threads( 4 )
memory 2 gb

molecule MOL {
0 1

H	 -2.816458	 -0.841657	 -0.064679
N	 -1.878861	 -0.711874	 0.250184
C	 -1.341419	 0.551458	 -0.220231
H	 -1.333674	 -1.468530	 -0.105118
C	 0.082190	 0.731516	 0.254705
H	 -1.357065	 0.652078	 -1.304747
H	 -1.939897	 1.357530	 0.189797
O	 0.949664	 0.292249	 -0.746415
H	 0.267848	 1.781573	 0.476254
H	 0.238900	 0.158051	 1.165479
C	 2.295169	 0.341370	 -0.405207
H	 2.865687	 -0.016166	 -1.250229
H	 2.610432	 1.357073	 -0.175747
H	 2.510736	 -0.288128	 0.454924

	symmetry c1
}
set optking {
	frozen_dihedral = ("
		8 5 3 6
	")
}

ee,wfn = optimize('scf', return_wfn=True)
oeprop( wfn, 'DIPOLE', 'QUADRUPOLE', 'MULLIKEN_CHARGES')
f=open( 'psi4out.xyz', 'w' )
f.write( "14  " )
f.write( str(ee) + "\n" )
f.write( MOL.save_string_xyz() )
f.close()
--------------------------------------------------------------------------

    Molecular point group: c1
  Charge       = 0
  Multiplicity = 1
  Basis Set: CC-PVTZ
  Basis Set:
  @DF-RHF Final Energy:  -248.22197907838563
    Total Energy =                       -248.2219790783858002
    Molecular point group: c1
  Basis Set: CC-PVTZ
  Basis Set:
  Basis Set: CC-PVTZ
  Basis Set:
  @DF-RHF Final Energy:  -248.22237235258737
    Total Energy =                       -248.2223723525872856
  Basis Set: CC-PVTZ
  Basis Set:
  Basis Set: CC-PVTZ
  Basis Set:
  @DF-RHF Final Energy:  -248.22246526696784
    Total Energy =                       -248.2224652669677312
  Basis Set: CC-PVTZ
  Basis Set:
  Basis Set: CC-PVTZ
  Basis Set:
  @DF-RHF Final Energy:  -248.22246847374723
    Total Energy =                       -248.2224684737473126
  Basis Set: CC-PVTZ
  Basis Set:
  Charge       = 0
  Multiplicity = 1
  Basis Set: CC-PVTZ
  Basis Set:

    Orbital Energies (a.u.)
    -----------------------

    Doubly Occupied:

       1A    -20.549948     2A    -15.526932     3A    -11.263262
       4A    -11.263007     5A    -11.240048     6A     -1.383258
       7A     -1.177214     8A     -0.999502     9A     -0.904343
      10A     -0.820129    11A     -0.684688    12A     -0.672278
      13A     -0.649401    14A     -0.617258    15A     -0.599092
      16A     -0.550237    17A     -0.524538    18A     -0.499549
      19A     -0.472829    20A     -0.420175    21A     -0.385381

  @DF-RHF Final Energy:  -248.22246874958782

   => Energetics <=

    Nuclear Repulsion Energy =            192.8784212444558932
    One-Electron Energy =                -719.7956484424671544
    Two-Electron Energy =                 278.6947584484236700
    DFT Exchange-Correlation Energy =       0.0000000000000000
    Empirical Dispersion Energy =           0.0000000000000000
    PCM Polarization Energy =               0.0000000000000000
    EFP Energy =                            0.0000000000000000
    Total Energy =                       -248.2224687495875628
    Molecular point group: c1
  Basis Set: CC-PVTZ
  Basis Set:

  -Total Gradient:
     Atom            X                  Y                   Z
    ------   -----------------  -----------------  -----------------
       1       -0.000015028732    -0.000006670326    -0.000011053206
       2        0.000002934068    -0.000019377789     0.000025295188
       3       -0.000976096748     0.007866663052    -0.000050593544
       4        0.000003494923    -0.000013278914    -0.000002946363
       5        0.000074575317    -0.006336519228     0.002212896013
       6        0.000814108079    -0.005464380581    -0.000413743533
       7        0.000017465479    -0.000006385274     0.000005346450
       8        0.000078129271     0.003967076693    -0.001769722188
       9        0.000002301619     0.000005236792    -0.000003961624
      10       -0.000002126217    -0.000001075869     0.000001334013
      11        0.000008431039     0.000015892714     0.000013146050
      12       -0.000014852451    -0.000000573145    -0.000001514712
      13        0.000007288121     0.000000166108    -0.000003247727
      14       -0.000000623765    -0.000006774234    -0.000001234818

  **** Optimization is complete! (in 5 steps) ****
    Final optimized geometry and variables:
    Molecular point group: c1

    Geometry (in Angstrom), charge = 0, multiplicity = 1:

    H           -2.860274656662    -1.053265809979     0.120761787319
    N           -1.912394987404    -0.944440178774     0.414347737236
    C           -1.379327081153     0.338635314482    -0.028643280069
    H           -1.393868458433    -1.692272716683     0.001473103493
    C            0.056742526075     0.516123631872     0.436396859016
    H           -1.382638282711     0.423385859705    -1.112001674767
    H           -1.997749118125     1.123106681591     0.387801936971
    O            0.919865815611     0.053621386659    -0.560318073423
    H            0.261536803706     1.569028089416     0.624956390158
    H            0.211313263148    -0.025991220026     1.365069337124
    C            2.265966180145     0.114759877339    -0.224595535532
    H            2.835025926323    -0.255141211769    -1.065291492141
    H            2.577196386869     1.136031522520    -0.014315492511
    H            2.489322525345    -0.497403401081     0.646276503363

  Mulliken Charges: (a.u.)
   Center  Symbol    Alpha    Beta     Spin     Total
       1     H     0.43002  0.43002  0.00000  0.13996
       2     N     3.69460  3.69460  0.00000 -0.38920
       3     C     3.02306  3.02306  0.00000 -0.04613
       4     H     0.42605  0.42605  0.00000  0.14789
       5     C     2.97362  2.97362  0.00000  0.05276
       6     H     0.46071  0.46071  0.00000  0.07859
       7     H     0.45679  0.45679  0.00000  0.08643
       8     O     4.17638  4.17638  0.00000 -0.35277
       9     H     0.47099  0.47099  0.00000  0.05801
      10     H     0.46671  0.46671  0.00000  0.06659
      11     C     3.03086  3.03086  0.00000 -0.06172
      12     H     0.44754  0.44754  0.00000  0.10492
      13     H     0.47199  0.47199  0.00000  0.05603
      14     H     0.47068  0.47068  0.00000  0.05864

   Total alpha = 21.00000, Total beta = 21.00000, Total charge = -0.00000

*** Psi4 exiting successfully. Buy a developer a beer!
