  ==> Input File <==

--------------------------------------------------------------------------
set {
	reference rhf
	basis cc-pvtz
}

set_num_threads( 4 )
memory 2 gb

molecule MOL {
0 1

H	 2.190573	 -0.629143	 -0.208718
O	 1.355408	 -0.529451	 0.208662
C	 0.700177	 0.619554	 -0.266242
C	 -0.713111	 0.588314	 0.266177
H	 0.678680	 0.627133	 -1.351786
H	 1.199747	 1.521489	 0.077736
O	 -1.421673	 -0.521378	 -0.196983
H	 -1.244794	 1.469161	 -0.069059
H	 -0.685100	 0.604721	 1.352683
H	 -1.721131	 -0.341730	 -1.071097

	symmetry c1
}
set optking {
	frozen_dihedral = ("
		10 7 4 3
	")
}

ee = optimize('scf')
oeprop('DIPOLE', 'QUADRUPOLE', 'MULLIKEN_CHARGES')
f=open( 'psi4out.xyz', 'w' )
f.write( "10  " )
f.write( str(ee) + "\n" )
f.write( MOL.save_string_xyz() )
f.close()
--------------------------------------------------------------------------

    Molecular point group: c1
  Charge       = 0
  Multiplicity = 1
  Basis Set: CC-PVTZ
  Basis Set:
  @DF-RHF Final Energy:  -229.02110484928878
    Total Energy =                       -229.0211048492890313
    Molecular point group: c1
  Basis Set: CC-PVTZ
  Basis Set:
  Basis Set: CC-PVTZ
  Basis Set:
  @DF-RHF Final Energy:  -229.02288226085417
    Total Energy =                       -229.0228822608541179
  Basis Set: CC-PVTZ
  Basis Set:
  Basis Set: CC-PVTZ
  Basis Set:
  @DF-RHF Final Energy:  -229.02309937527249
    Total Energy =                       -229.0230993752726363
  Basis Set: CC-PVTZ
  Basis Set:
  Basis Set: CC-PVTZ
  Basis Set:
  @DF-RHF Final Energy:  -229.02310761346160
    Total Energy =                       -229.0231076134616046
  Basis Set: CC-PVTZ
  Basis Set:
  Charge       = 0
  Multiplicity = 1
  Basis Set: CC-PVTZ
  Basis Set:

    Orbital Energies (a.u.)
    -----------------------

    Doubly Occupied:

       1A    -20.549043     2A    -20.546538     3A    -11.271491
       4A    -11.268641     5A     -1.377137     6A     -1.357420
       7A     -1.003045     8A     -0.843418     9A     -0.723867
      10A     -0.681389    11A     -0.654712    12A     -0.599768
      13A     -0.573916    14A     -0.534871    15A     -0.487012
      16A     -0.447453    17A     -0.437618

  @DF-RHF Final Energy:  -229.02310812438517

   => Energetics <=

    Nuclear Repulsion Energy =            133.3079598852998231
    One-Electron Energy =                -577.9474597323519447
    Two-Electron Energy =                 215.6163917226670321
    DFT Exchange-Correlation Energy =       0.0000000000000000
    Empirical Dispersion Energy =           0.0000000000000000
    PCM Polarization Energy =               0.0000000000000000
    EFP Energy =                            0.0000000000000000
    Total Energy =                       -229.0231081243850610
    Molecular point group: c1
  Basis Set: CC-PVTZ
  Basis Set:

  -Total Gradient:
     Atom            X                  Y                   Z
    ------   -----------------  -----------------  -----------------
       1       -0.000005171443     0.000006364916    -0.000011976503
       2       -0.000005753268     0.000017743970     0.000037571986
       3        0.000145226360    -0.000343047300     0.000478495013
       4       -0.000485042290     0.000612100769    -0.000691435299
       5        0.000004137596    -0.000007137615     0.000007245095
       6        0.000024165701    -0.000024743480     0.000024823369
       7        0.001188404739    -0.000715962421    -0.000277818646
       8        0.000012731493    -0.000005872632    -0.000006490088
       9        0.000006218296    -0.000001756512     0.000019530950
      10       -0.000884917183     0.000462310304     0.000420054123

  **** Optimization is complete! (in 5 steps) ****
    Final optimized geometry and variables:
    Molecular point group: c1

    Geometry (in Angstrom), charge = 0, multiplicity = 1:

    H            2.266647000940    -0.583967918236    -0.124274249025
    O            1.414274554001    -0.523077914915     0.265085237263
    C            0.717517515430     0.566977183588    -0.262416588593
    C           -0.698969663841     0.558478468155     0.268721708906
    H            0.697944968826     0.527976385519    -1.350451797092
    H            1.188108788639     1.505055184222     0.027564417744
    O           -1.462232651075    -0.515967304204    -0.197940105837
    H           -1.170010156156     1.507881478345     0.025199545225
    H           -0.665726413642     0.471502708355     1.346287130219
    H           -1.776680477035    -0.338653830655    -1.065040996220

  Mulliken Charges: (a.u.)
   Center  Symbol    Alpha    Beta     Spin     Total
       1     H     0.39591  0.39591  0.00000  0.20819
       2     O     4.19155  4.19155  0.00000 -0.38309
       3     C     2.95987  2.95987  0.00000  0.08026
       4     C     2.97097  2.97097  0.00000  0.05805
       5     H     0.48238  0.48238  0.00000  0.03524
       6     H     0.47748  0.47748  0.00000  0.04504
       7     O     4.19675  4.19675  0.00000 -0.39350
       8     H     0.47277  0.47277  0.00000  0.05446
       9     H     0.45556  0.45556  0.00000  0.08887
      10     H     0.39675  0.39675  0.00000  0.20649

   Total alpha = 17.00000, Total beta = 17.00000, Total charge =  0.00000
