  ==> Input File <==

--------------------------------------------------------------------------
set {
	reference rhf
	basis cc-pvtz
}

set_num_threads( 4 )
memory 2 gb

molecule MOL {
0 1

H	 1.364257	 0.067696	 -1.626311
C	 0.776238	 -0.484937	 -0.925339
C	 0.771357	 -1.865038	 -0.919545
C	 0.000000	 0.179985	 0.000046
H	 1.368207	 -2.400767	 -1.631077
C	 0.000002	 -2.552036	 -0.000008
N	 0.000000	 1.644631	 0.000076
C	 -0.776239	 -0.484975	 0.925403
H	 0.000000	 -3.625035	 -0.000032
C	 -0.771355	 -1.865075	 0.919555
O	 1.050559	 2.194174	 -0.000073
O	 -1.050559	 2.194174	 -0.000074
H	 -1.364252	 0.067629	 1.626403
H	 -1.368208	 -2.400834	 1.631062

	symmetry c1
}
set optking {
	frozen_dihedral = ("
		2 4 7 11
	")
}

ee = optimize('scf')
oeprop('DIPOLE', 'QUADRUPOLE', 'MULLIKEN_CHARGES')
f=open( 'psi4out.xyz', 'w' )
f.write( "14  " )
f.write( str(ee) + "\n" )
f.write( MOL.save_string_xyz() )
f.close()
--------------------------------------------------------------------------

    Molecular point group: c1
  Charge       = 0
  Multiplicity = 1
  Basis Set: CC-PVTZ
  Basis Set:
  @DF-RHF Final Energy:  -434.32486419244623
    Total Energy =                       -434.3248641924462845
    Molecular point group: c1
  Basis Set: CC-PVTZ
  Basis Set:
  Basis Set: CC-PVTZ
  Basis Set:
  @DF-RHF Final Energy:  -434.31865435582716
    Total Energy =                       -434.3186543558276753
  Basis Set: CC-PVTZ
  Basis Set:
  Basis Set: CC-PVTZ
  Basis Set:
  @DF-RHF Final Energy:  -434.32511527363624
    Total Energy =                       -434.3251152736362428
  Basis Set: CC-PVTZ
  Basis Set:
  Basis Set: CC-PVTZ
  Basis Set:
  @DF-RHF Final Energy:  -434.32532904075276
    Total Energy =                       -434.3253290407528766
  Basis Set: CC-PVTZ
  Basis Set:
  Basis Set: CC-PVTZ
  Basis Set:
  @DF-RHF Final Energy:  -434.32533024343451
    Total Energy =                       -434.3253302434349052
  Basis Set: CC-PVTZ
  Basis Set:
  Charge       = 0
  Multiplicity = 1
  Basis Set: CC-PVTZ
  Basis Set:

    Orbital Energies (a.u.)
    -----------------------

    Doubly Occupied:

       1A    -20.595220     2A    -20.595136     3A    -15.847556
       4A    -11.305248     5A    -11.267991     6A    -11.267708
       7A    -11.261983     8A    -11.259717     9A    -11.259344
      10A     -1.642987    11A     -1.425975    12A     -1.206107
      13A     -1.096811    14A     -1.056456    15A     -0.959495
      16A     -0.872131    17A     -0.830155    18A     -0.786953
      19A     -0.740362    20A     -0.736382    21A     -0.715965
      22A     -0.655342    23A     -0.651242    24A     -0.626228
      25A     -0.559531    26A     -0.547954    27A     -0.533300
      28A     -0.497222    29A     -0.488989    30A     -0.457201
      31A     -0.374134    32A     -0.370317

  @DF-RHF Final Energy:  -434.32533074526867

   => Energetics <=

    Nuclear Repulsion Energy =            417.9087670349950372
    One-Electron Energy =               -1419.4859127226336568
    Two-Electron Energy =                 567.2518149423692648
    DFT Exchange-Correlation Energy =       0.0000000000000000
    Empirical Dispersion Energy =           0.0000000000000000
    PCM Polarization Energy =               0.0000000000000000
    EFP Energy =                            0.0000000000000000
    Total Energy =                       -434.3253307452694116
    Molecular point group: c1
  Basis Set: CC-PVTZ
  Basis Set:

  -Total Gradient:
     Atom            X                  Y                   Z
    ------   -----------------  -----------------  -----------------
       1        0.000005528453     0.000006568436    -0.000008157139
       2       -0.003635552988    -0.000141474496    -0.002895451615
       3       -0.000026097367     0.000033959636    -0.000031271202
       4        0.005240397240     0.000196459076     0.006227302384
       5        0.000003904878     0.000000144085     0.000004625836
       6       -0.000013744948    -0.000001719908     0.000031200744
       7       -0.001784767423    -0.000206555727    -0.008767210017
       8        0.000052284386     0.000035253478    -0.000021723757
       9        0.000000071111    -0.000000446687    -0.000003663578
      10        0.000044771214    -0.000019686363    -0.000000573830
      11        0.000143857910     0.000091161796     0.005442439797
      12       -0.000022259719    -0.000005571987     0.000010620721
      13       -0.000005029026     0.000004972336     0.000013970354
      14       -0.000003363719     0.000006936322    -0.000002108701

  **** Optimization is complete! (in 6 steps) ****
    Final optimized geometry and variables:
    Molecular point group: c1

    Geometry (in Angstrom), charge = 0, multiplicity = 1:

    H            1.389342076497     0.072883690261    -1.609782872336
    C            0.789514447586    -0.480491264813    -0.916355918633
    C            0.767652071521    -1.861202903089    -0.922889596699
    C            0.023413050819     0.179507666580     0.016163578052
    H            1.350707392508    -2.398281684950    -1.644858487513
    C           -0.001921012853    -2.546372263468    -0.000966426447
    N           -0.002206549492     1.640987596961    -0.010306113241
    C           -0.777889072819    -0.477030708482     0.921496516161
    H           -0.008532714133    -3.619123916486    -0.004392965123
    C           -0.768291941838    -1.857616077908     0.921542101758
    O            1.042157515328     2.201101192014    -0.045617106106
    O           -1.063215231555     2.166726935901     0.041745387038
    H           -1.386365498374     0.078299823463     1.605369828889
    H           -1.366995980836    -2.392594533291     1.632194531261

  Mulliken Charges: (a.u.)
   Center  Symbol    Alpha    Beta     Spin     Total
       1     H     0.40792  0.40792  0.00000  0.18416
       2     C     3.08676  3.08676  0.00000 -0.17353
       3     C     3.06870  3.06870  0.00000 -0.13739
       4     C     2.93748  2.93748  0.00000  0.12504
       5     H     0.41723  0.41723  0.00000  0.16555
       6     C     3.07033  3.07033  0.00000 -0.14067
       7     N     3.27735  3.27735  0.00000  0.44529
       8     C     3.08542  3.08542  0.00000 -0.17083
       9     H     0.41754  0.41754  0.00000  0.16492
      10     C     3.06802  3.06802  0.00000 -0.13604
      11     O     4.16905  4.16905  0.00000 -0.33810
      12     O     4.16887  4.16887  0.00000 -0.33773
      13     H     0.40815  0.40815  0.00000  0.18371
      14     H     0.41719  0.41719  0.00000  0.16562

   Total alpha = 32.00000, Total beta = 32.00000, Total charge =  0.00000
