  ==> Input File <==

--------------------------------------------------------------------------
set {
	reference rhf
	basis 6-31G*
}

set_num_threads( 1 )
memory 2 gb

molecule MOL {
0 1

H	 -3.420663	 1.227371	 -1.044276
O	 -3.452007	 0.283848	 -0.965577
C	 -3.181085	 -0.079926	 0.364119
C	 -1.765924	 0.277073	 0.805136
H	 -3.327791	 -1.152017	 0.410903
H	 -3.905698	 0.375695	 1.036898
C	 -0.677594	 -0.417312	 -0.014550
H	 -1.637766	 1.358238	 0.744969
H	 -1.659588	 0.017670	 1.857098
C	 0.135867	 0.551520	 -0.875261
H	 -1.134414	 -1.173380	 -0.645728
H	 -0.009029	 -0.947698	 0.661545
C	 1.227113	 -0.150084	 -1.688292
H	 -0.538538	 1.084790	 -1.541009
H	 0.594266	 1.305765	 -0.236833
C	 2.127047	 0.789364	 -2.499287
H	 0.766535	 -0.873187	 -2.359623
H	 1.852487	 -0.724600	 -1.008104
C	 1.413971	 1.535015	 -3.628859
H	 2.938693	 0.205080	 -2.926059
H	 2.592395	 1.509180	 -1.828826
H	 0.928105	 0.840301	 -4.308891
H	 2.119259	 2.123564	 -4.207666
H	 0.656213	 2.214313	 -3.252666

	symmetry c1
}
set optking {
	frozen_dihedral = ("
		20 16 13 17,
		17 13 10 7,
		13 10 7 11,
		1 2 3 5,
		7 4 3 2
	")
}

ee = energy('scf')
oeprop('DIPOLE', 'QUADRUPOLE', 'MULLIKEN_CHARGES')
f=open( 'psi4out.xyz', 'w' )
f.write( "24  " )
f.write( str(ee) + "\n" )
f.write( MOL.save_string_xyz() )
f.close()
--------------------------------------------------------------------------

    Molecular point group: c1

    Geometry (in Angstrom), charge = 0, multiplicity = 1:

       Center              X                  Y                   Z               Mass
    ------------   -----------------  -----------------  -----------------  -----------------
           H         -2.843051807829     0.865187023916     0.029460801124     1.007825032070
           O         -2.874395807829    -0.078335976084     0.108159801124    15.994914619560
           C         -2.603473807829    -0.442109976084     1.437855801124    12.000000000000
           C         -1.188312807829    -0.085110976084     1.878872801124    12.000000000000
           H         -2.750179807829    -1.514200976084     1.484639801124     1.007825032070
           H         -3.328086807829     0.013511023916     2.110634801124     1.007825032070
           C         -0.099982807829    -0.779495976084     1.059186801124    12.000000000000
           H         -1.060154807829     0.996054023916     1.818705801124     1.007825032070
           H         -1.081976807829    -0.344513976084     2.930834801124     1.007825032070
           C          0.713478192171     0.189336023916     0.198475801124    12.000000000000
           H         -0.556802807829    -1.535563976084     0.428008801124     1.007825032070
           H          0.568582192171    -1.309881976084     1.735281801124     1.007825032070
           C          1.804724192171    -0.512267976084    -0.614555198876    12.000000000000
           H          0.039073192171     0.722606023916    -0.467272198876     1.007825032070
           H          1.171877192171     0.943581023916     0.836903801124     1.007825032070
           C          2.704658192171     0.427180023916    -1.425550198876    12.000000000000
           H          1.344146192171    -1.235370976084    -1.285886198876     1.007825032070
           H          2.430098192171    -1.086783976084     0.065632801124     1.007825032070
           C          1.991582192171     1.172831023916    -2.555122198876    12.000000000000
           H          3.516304192171    -0.157103976084    -1.852322198876     1.007825032070
           H          3.170006192171     1.146996023916    -0.755089198876     1.007825032070
           H          1.505716192171     0.478117023916    -3.235154198876     1.007825032070
           H          2.696870192171     1.761380023916    -3.133929198876     1.007825032070
           H          1.233824192171     1.852129023916    -2.178929198876     1.007825032070

  Charge       = 0
  Multiplicity = 1
  Basis Set: 6-31G*
  Basis Set:

    Orbital Energies (a.u.)
    -----------------------

    Doubly Occupied:

       1A    -20.554422     2A    -11.267774     3A    -11.216030
       4A    -11.212947     5A    -11.211285     6A    -11.210539
       7A    -11.209849     8A    -11.205989     9A     -1.360767
      10A     -1.087632    11A     -1.047643    12A     -0.984349
      13A     -0.914128    14A     -0.851059    15A     -0.800471
      16A     -0.775711    17A     -0.679634    18A     -0.649241
      19A     -0.630535    20A     -0.615690    21A     -0.599654
      22A     -0.578035    23A     -0.557733    24A     -0.531732
      25A     -0.528478    26A     -0.509722    27A     -0.491656
      28A     -0.479254    29A     -0.467152    30A     -0.457951
      31A     -0.453198    32A     -0.443101    33A     -0.419801

  @DF-RHF Final Energy:  -349.24276533918930

   => Energetics <=

    Nuclear Repulsion Energy =            391.3715370558858240
    One-Electron Energy =               -1249.2221871441765870
    Two-Electron Energy =                 508.6078847491015722
    DFT Exchange-Correlation Energy =       0.0000000000000000
    Empirical Dispersion Energy =           0.0000000000000000
    PCM Polarization Energy =               0.0000000000000000
    EFP Energy =                            0.0000000000000000
    Total Energy =                       -349.2427653391891909

  Mulliken Charges: (a.u.)
   Center  Symbol    Alpha    Beta     Spin     Total
       1     H     0.28304  0.28304  0.00000  0.43392
       2     O     4.36849  4.36849  0.00000 -0.73698
       3     C     2.99901  2.99901  0.00000  0.00197
       4     C     3.17112  3.17112  0.00000 -0.34224
       5     H     0.41593  0.41593  0.00000  0.16813
       6     H     0.42901  0.42901  0.00000  0.14198
       7     C     3.15211  3.15211  0.00000 -0.30423
       8     H     0.42511  0.42511  0.00000  0.14978
       9     H     0.41976  0.41976  0.00000  0.16049
      10     C     3.15566  3.15566  0.00000 -0.31131
      11     H     0.41183  0.41183  0.00000  0.17635
      12     H     0.42269  0.42269  0.00000  0.15461
      13     C     3.15343  3.15343  0.00000 -0.30685
      14     H     0.42026  0.42026  0.00000  0.15947
      15     H     0.42600  0.42600  0.00000  0.14801
      16     C     3.15235  3.15235  0.00000 -0.30469
      17     H     0.42212  0.42212  0.00000  0.15575
      18     H     0.42326  0.42326  0.00000  0.15347
      19     C     3.24053  3.24053  0.00000 -0.48107
      20     H     0.42139  0.42139  0.00000  0.15721
      21     H     0.42439  0.42439  0.00000  0.15121
      22     H     0.42108  0.42108  0.00000  0.15783
      23     H     0.42003  0.42003  0.00000  0.15993
      24     H     0.42138  0.42138  0.00000  0.15724

   Total alpha = 33.00000, Total beta = 33.00000, Total charge = -0.00000
