  ==> Input File <==

--------------------------------------------------------------------------
set {
	reference rhf
	basis cc-pvtz
}

set_num_threads( 4 )
memory 2 gb

molecule MOL {
0 1

H	 2.828711	 -0.346904	 0.001083
C	 1.876752	 0.015931	 -0.363450
C	 0.776285	 -0.474665	 0.563092
H	 1.728113	 -0.357244	 -1.367440
H	 1.906171	 1.096574	 -0.386153
N	 -0.540022	 0.017605	 0.071630
H	 0.707111	 -1.548969	 0.573035
H	 0.886169	 -0.084184	 1.560432
O	 -1.040562	 -0.574977	 -0.824194
O	 -0.984398	 0.985791	 0.590805

	symmetry c1
}
set optking {
	frozen_dihedral = ("
		9 6 3 2
	")
}

ee = optimize('scf')
oeprop('DIPOLE', 'QUADRUPOLE', 'MULLIKEN_CHARGES')
f=open( 'psi4out.xyz', 'w' )
f.write( "10  " )
f.write( str(ee) + "\n" )
f.write( MOL.save_string_xyz() )
f.close()
--------------------------------------------------------------------------

    Molecular point group: c1
  Charge       = 0
  Multiplicity = 1
  Basis Set: CC-PVTZ
  Basis Set:
  @DF-RHF Final Energy:  -282.81332927634514
    Total Energy =                       -282.8133292763450299
    Molecular point group: c1
  Basis Set: CC-PVTZ
  Basis Set:
  Basis Set: CC-PVTZ
  Basis Set:
  @DF-RHF Final Energy:  -282.81321075705796
    Total Energy =                       -282.8132107570580729
  Basis Set: CC-PVTZ
  Basis Set:
  Basis Set: CC-PVTZ
  Basis Set:
  @DF-RHF Final Energy:  -282.81330826774149
    Total Energy =                       -282.8133082677414905
  Basis Set: CC-PVTZ
  Basis Set:
  Charge       = 0
  Multiplicity = 1
  Basis Set: CC-PVTZ
  Basis Set:

    Orbital Energies (a.u.)
    -----------------------

    Doubly Occupied:

       1A    -20.592766     2A    -20.591022     3A    -15.838397
       4A    -11.301835     5A    -11.250764     6A     -1.637639
       7A     -1.422079     8A     -1.126517     9A     -0.966831
      10A     -0.839706    11A     -0.763585    12A     -0.739775
      13A     -0.730142    14A     -0.659632    15A     -0.590583
      16A     -0.560276    17A     -0.549518    18A     -0.488525
      19A     -0.479341    20A     -0.454875

  @DF-RHF Final Energy:  -282.81334231206978

   => Energetics <=

    Nuclear Repulsion Energy =            186.7718494446157820
    One-Electron Energy =                -756.0027700999233957
    Two-Electron Energy =                 286.4175783432378921
    DFT Exchange-Correlation Energy =       0.0000000000000000
    Empirical Dispersion Energy =           0.0000000000000000
    PCM Polarization Energy =               0.0000000000000000
    EFP Energy =                            0.0000000000000000
    Total Energy =                       -282.8133423120697216
    Molecular point group: c1
  Basis Set: CC-PVTZ
  Basis Set:

  -Total Gradient:
     Atom            X                  Y                   Z
    ------   -----------------  -----------------  -----------------
       1       -0.000006107331    -0.000007870526    -0.000005320160
       2        0.000021789588    -0.000029712203    -0.000058495867
       3       -0.000014616883     0.000098032072     0.000121526006
       4        0.000004294068    -0.000009358120     0.000008039043
       5       -0.000011545567     0.000002609987    -0.000001686789
       6        0.000015004843    -0.000228280538    -0.000262931874
       7       -0.000009183491    -0.000012092696    -0.000013642166
       8        0.000009638725    -0.000023055905    -0.000014527809
       9        0.000083306106     0.000082240914     0.000098373956
      10       -0.000092580056     0.000127487016     0.000128665661

  **** Optimization is complete! (in 4 steps) ****
    Final optimized geometry and variables:
    Molecular point group: c1

    Geometry (in Angstrom), charge = 0, multiplicity = 1:

    H            2.830398857199    -0.345402693530     0.002812892609
    C            1.878623452827     0.013666392647    -0.365997014432
    C            0.777302018332    -0.473876579250     0.560804653457
    H            1.731721670437    -0.363080611959    -1.368187733467
    H            1.907818129750     1.094794373358    -0.393019148092
    N           -0.540030176940     0.018870768287     0.071703101561
    H            0.706266606020    -1.548915066037     0.565298678983
    H            0.886882304310    -0.090254416416     1.560127003928
    O           -1.039265646751    -0.577060537639    -0.822985923436
    O           -0.988579163889     0.984748587331     0.590933466586

  Mulliken Charges: (a.u.)
   Center  Symbol    Alpha    Beta     Spin     Total
       1     H     0.44795  0.44795  0.00000  0.10410
       2     C     3.14083  3.14083  0.00000 -0.28166
       3     C     3.03743  3.03743  0.00000 -0.07486
       4     H     0.43935  0.43935  0.00000  0.12130
       5     H     0.44228  0.44228  0.00000  0.11543
       6     N     3.27658  3.27658  0.00000  0.44684
       7     H     0.43565  0.43565  0.00000  0.12869
       8     H     0.43400  0.43400  0.00000  0.13201
       9     O     4.17443  4.17443  0.00000 -0.34886
      10     O     4.17150  4.17150  0.00000 -0.34299

   Total alpha = 20.00000, Total beta = 20.00000, Total charge = -0.00000
