  ==> Input File <==

--------------------------------------------------------------------------
set {
	reference rhf
	basis 6-31G*
}

set_num_threads( 1 )
memory 2 gb

molecule MOL {
0 1

H	 -3.161837	 0.500524	 -0.000234
C	 -2.367097	 -0.232926	 -0.000000
O	 -1.158440	 0.455814	 -0.000122
H	 -2.468853	 -0.861886	 -0.882833
H	 -2.468942	 -0.861421	 0.883154
C	 -0.029776	 -0.365156	 0.000148
C	 1.212217	 0.508981	 0.000007
H	 -0.036772	 -1.013236	 -0.877259
H	 -0.036869	 -1.012778	 0.877897
C	 2.057742	 0.323226	 1.259158
H	 1.798320	 0.274155	 -0.883170
H	 0.903690	 1.545534	 -0.095219
H	 2.397568	 -0.703741	 1.360555
H	 2.936539	 0.958726	 1.232679
H	 1.496311	 0.576021	 2.154309

	symmetry c1
}
set optking {
	frozen_dihedral = ("
		6 3 2 4,
		8 6 3 2
	")
}

ee = energy('scf')
oeprop('DIPOLE', 'QUADRUPOLE', 'MULLIKEN_CHARGES')
f=open( 'psi4out.xyz', 'w' )
f.write( "15  " )
f.write( str(ee) + "\n" )
f.write( MOL.save_string_xyz() )
f.close()
--------------------------------------------------------------------------

    Molecular point group: c1

    Geometry (in Angstrom), charge = 0, multiplicity = 1:

       Center              X                  Y                   Z               Mass
    ------------   -----------------  -----------------  -----------------  -----------------
           H         -3.071624485578     0.372307204448    -0.255511104195     1.007825032070
           C         -2.276884485578    -0.361142795552    -0.255277104195    12.000000000000
           O         -1.068227485578     0.327597204448    -0.255399104195    15.994914619560
           H         -2.378640485578    -0.990102795552    -1.138110104195     1.007825032070
           H         -2.378729485578    -0.989637795552     0.627876895805     1.007825032070
           C          0.060436514422    -0.493372795552    -0.255129104195    12.000000000000
           C          1.302429514422     0.380764204448    -0.255270104195    12.000000000000
           H          0.053440514422    -1.141452795552    -1.132536104195     1.007825032070
           H          0.053343514422    -1.140994795552     0.622619895805     1.007825032070
           C          2.147954514422     0.195009204448     1.003880895805    12.000000000000
           H          1.888532514422     0.145938204448    -1.138447104195     1.007825032070
           H          0.993902514422     1.417317204448    -0.350496104195     1.007825032070
           H          2.487780514422    -0.831957795552     1.105277895805     1.007825032070
           H          3.026751514422     0.830509204448     0.977401895805     1.007825032070
           H          1.586523514422     0.447804204448     1.899031895805     1.007825032070

  Charge       = 0
  Multiplicity = 1
  Basis Set: 6-31G*
  Basis Set:

    Orbital Energies (a.u.)
    -----------------------

    Doubly Occupied:

       1A    -20.553310     2A    -11.264785     3A    -11.263358
       4A    -11.212179     5A    -11.209860     6A     -1.378306
       7A     -1.056007     8A     -0.953358     9A     -0.879592
      10A     -0.807347    11A     -0.669914    12A     -0.659571
      13A     -0.631614    14A     -0.591312    15A     -0.574452
      16A     -0.545326    17A     -0.491718    18A     -0.489215
      19A     -0.480189    20A     -0.461588    21A     -0.410681

  @DF-RHF Final Energy:  -232.13308847435252

   => Energetics <=

    Nuclear Repulsion Energy =            190.7972425834992123
    One-Electron Energy =                -692.6934862074828061
    Two-Electron Energy =                 269.7631551496320981
    DFT Exchange-Correlation Energy =       0.0000000000000000
    Empirical Dispersion Energy =           0.0000000000000000
    PCM Polarization Energy =               0.0000000000000000
    EFP Energy =                            0.0000000000000000
    Total Energy =                       -232.1330884743514957

  Mulliken Charges: (a.u.)
   Center  Symbol    Alpha    Beta     Spin     Total
       1     H     0.41243  0.41243  0.00000  0.17513
       2     C     3.07972  3.07972  0.00000 -0.15945
       3     O     4.30448  4.30448  0.00000 -0.60896
       4     H     0.43049  0.43049  0.00000  0.13902
       5     H     0.43054  0.43054  0.00000  0.13893
       6     C     2.98811  2.98811  0.00000  0.02377
       7     C     3.16531  3.16531  0.00000 -0.33062
       8     H     0.43125  0.43125  0.00000  0.13750
       9     H     0.42998  0.42998  0.00000  0.14005
      10     C     3.24567  3.24567  0.00000 -0.49134
      11     H     0.42029  0.42029  0.00000  0.15943
      12     H     0.40273  0.40273  0.00000  0.19454
      13     H     0.42290  0.42290  0.00000  0.15421
      14     H     0.41894  0.41894  0.00000  0.16212
      15     H     0.41717  0.41717  0.00000  0.16567

   Total alpha = 21.00000, Total beta = 21.00000, Total charge =  0.00000
