  ==> Input File <==

--------------------------------------------------------------------------
set {
	reference rhf
	basis 6-31G*
}

set_num_threads( 4 )
memory 2 gb

molecule MOL {
0 1

H	 3.019807	 -0.273865	 0.726260
N	 2.434251	 -0.367735	 -0.081097
C	 1.267428	 0.496480	 0.024474
H	 2.155796	 -1.329672	 -0.126419
C	 -0.016086	 -0.325158	 -0.029487
H	 1.288818	 1.183521	 -0.816092
H	 1.267576	 1.109062	 0.929528
C	 -1.282277	 0.529072	 0.046735
H	 -0.012495	 -0.908639	 -0.945788
H	 -0.015903	 -1.041248	 0.791956
C	 -2.563920	 -0.301775	 -0.006060
H	 -1.284084	 1.244622	 -0.773004
H	 -1.271387	 1.115393	 0.963286
H	 -2.621848	 -0.873522	 -0.927727
H	 -3.445135	 0.329952	 0.047812
H	 -2.609542	 -1.004582	 0.821105

	symmetry c1
}
set optking {
	frozen_dihedral = ("
		1 2 3 6
	")
}

ee = optimize('scf')
oeprop('DIPOLE', 'QUADRUPOLE', 'MULLIKEN_CHARGES')
f=open( 'psi4out.xyz', 'w' )
f.write( "16  " )
f.write( str(ee) + "\n" )
f.write( MOL.save_string_xyz() )
f.close()
--------------------------------------------------------------------------

    Molecular point group: c1
  Charge       = 0
  Multiplicity = 1
  Basis Set: 6-31G*
  Basis Set:
  @DF-RHF Final Energy:  -212.31175684177003
    Total Energy =                       -212.3117568417700909
    Molecular point group: c1
  Basis Set: 6-31G*
  Basis Set:
  Basis Set: 6-31G*
  Basis Set:
  @DF-RHF Final Energy:  -212.31252864564573
    Total Energy =                       -212.3125286456456706
  Basis Set: 6-31G*
  Basis Set:
  Basis Set: 6-31G*
  Basis Set:
  @DF-RHF Final Energy:  -212.31266978370195
    Total Energy =                       -212.3126697837020060
  Basis Set: 6-31G*
  Basis Set:
  Basis Set: 6-31G*
  Basis Set:
  @DF-RHF Final Energy:  -212.31267734022424
    Total Energy =                       -212.3126773402242975
  Basis Set: 6-31G*
  Basis Set:
  Basis Set: 6-31G*
  Basis Set:
  @DF-RHF Final Energy:  -212.31268331429789
    Total Energy =                       -212.3126833142979422
  Basis Set: 6-31G*
  Basis Set:
  Charge       = 0
  Multiplicity = 1
  Basis Set: 6-31G*
  Basis Set:

    Orbital Energies (a.u.)
    -----------------------

    Doubly Occupied:

       1A    -15.528514     2A    -11.239459     3A    -11.218645
       4A    -11.216493     5A    -11.211081     6A     -1.172890
       7A     -1.062721     8A     -0.960557     9A     -0.847285
      10A     -0.798465    11A     -0.665594    12A     -0.636365
      13A     -0.596292    14A     -0.584401    15A     -0.566618
      16A     -0.520557    17A     -0.511662    18A     -0.474421
      19A     -0.473305    20A     -0.465030    21A     -0.372614

  @DF-RHF Final Energy:  -212.31268415147841

   => Energetics <=

    Nuclear Repulsion Energy =            186.1550407671442997
    One-Electron Energy =                -654.6895146312631368
    Two-Electron Energy =                 256.2217897126405433
    DFT Exchange-Correlation Energy =       0.0000000000000000
    Empirical Dispersion Energy =           0.0000000000000000
    PCM Polarization Energy =               0.0000000000000000
    EFP Energy =                            0.0000000000000000
    Total Energy =                       -212.3126841514782654
    Molecular point group: c1
  Basis Set: 6-31G*
  Basis Set:

  -Total Gradient:
     Atom            X                  Y                   Z
    ------   -----------------  -----------------  -----------------
       1        0.000377115527     0.000588369262    -0.000333303114
       2       -0.000331485368    -0.000690373015     0.000494047455
       3       -0.000410308036    -0.000464325643    -0.000551191396
       4       -0.000018163200     0.000038965710    -0.000015801665
       5        0.000121369607     0.000017664435    -0.000023971297
       6        0.000341115575     0.000428152386     0.000407744062
       7       -0.000027022179     0.000050913277     0.000029955037
       8       -0.000019083509     0.000008057566    -0.000032800758
       9       -0.000004295037     0.000011307220     0.000037156400
      10        0.000013640182     0.000007851224    -0.000012488793
      11       -0.000034267329     0.000017406777     0.000020341403
      12        0.000002016366     0.000000748410    -0.000010286889
      13        0.000002855520    -0.000009643927    -0.000012389236
      14       -0.000001373376     0.000011545201    -0.000003346721
      15       -0.000017289718    -0.000009492217     0.000011775202
      16        0.000005174977    -0.000007146665    -0.000005439688

  **** Optimization is complete! (in 6 steps) ****
    Final optimized geometry and variables:
    Molecular point group: c1

    Geometry (in Angstrom), charge = 0, multiplicity = 1:

    H            3.052457352771    -0.259667122529     0.728998878373
    N            2.474586081675    -0.333597797740    -0.082448845292
    C            1.270899095430     0.488486282569     0.028621154545
    H            2.252335247832    -1.300539790810    -0.207904025707
    C           -0.020334198155    -0.326046825448    -0.010914236192
    H            1.259638999027     1.215134662290    -0.779687761276
    H            1.299732834335     1.063244457515     0.951403081507
    C           -1.281098794688     0.538391492788     0.033730533796
    H           -0.028937239071    -0.927784062916    -0.918823650987
    H           -0.026428046537    -1.024835935357     0.824351781193
    C           -2.569101717786    -0.283083895567    -0.011207046412
    H           -1.268779246193     1.235602346122    -0.800869084439
    H           -1.271410846128     1.143638936140     0.937768069718
    H           -2.626475729814    -0.871967046617    -0.922197012144
    H           -3.444952953300     0.357214643491     0.024244640379
    H           -2.626530250655    -0.968959045939     0.829271670109

  Mulliken Charges: (a.u.)
   Center  Symbol    Alpha    Beta     Spin     Total
       1     H     0.33130  0.33130  0.00000  0.33740
       2     N     3.93309  3.93309  0.00000 -0.86619
       3     C     3.04527  3.04527  0.00000 -0.09053
       4     H     0.33119  0.33119  0.00000  0.33762
       5     C     3.16664  3.16664  0.00000 -0.33328
       6     H     0.42065  0.42065  0.00000  0.15870
       7     H     0.42789  0.42789  0.00000  0.14423
       8     C     3.15483  3.15483  0.00000 -0.30966
       9     H     0.42116  0.42116  0.00000  0.15768
      10     H     0.42494  0.42494  0.00000  0.15011
      11     C     3.23911  3.23911  0.00000 -0.47821
      12     H     0.42025  0.42025  0.00000  0.15951
      13     H     0.42250  0.42250  0.00000  0.15500
      14     H     0.42094  0.42094  0.00000  0.15812
      15     H     0.41851  0.41851  0.00000  0.16298
      16     H     0.42174  0.42174  0.00000  0.15653

   Total alpha = 21.00000, Total beta = 21.00000, Total charge =  0.00000
