                              Psi4 1.0.54 Driver

  ==> Input File <==

--------------------------------------------------------------------------
set {
	reference rhf
	basis cc-pvtz
}

set_num_threads( 4 )
memory 2 gb

molecule MOL {
0 1

H	 2.808634	 -0.465350	 0.509029
O	 1.988696	 -0.889745	 0.305739
C	 1.025859	 0.027564	 0.316234
C	 -0.318151	 -0.570512	 0.000144
O	 1.243560	 1.165813	 0.550678
C	 -1.454884	 0.441630	 -0.000560
H	 -0.230211	 -1.064906	 -0.962006
H	 -0.494709	 -1.360761	 0.722801
C	 -2.822577	 -0.232186	 0.000063
H	 -1.359760	 1.084704	 -0.867077
H	 -1.359641	 1.085996	 0.864983
H	 -2.954352	 -0.858985	 -0.875745
H	 -3.615886	 0.505352	 0.000019
H	 -2.953878	 -0.858359	 0.876394

	symmetry c1
}
set optking {
	frozen_dihedral = ("
		7 4 6 10
	")
}

ee,wfn = optimize('scf', return_wfn=True)
oeprop( wfn, 'DIPOLE', 'QUADRUPOLE', 'MULLIKEN_CHARGES')
f=open( 'psi4out.xyz', 'w' )
f.write( "14  " )
f.write( str(ee) + "\n" )
f.write( MOL.save_string_xyz() )
f.close()
--------------------------------------------------------------------------

    Molecular point group: c1
  Charge       = 0
  Multiplicity = 1
  Basis Set: CC-PVTZ
  Basis Set:
  @DF-RHF Final Energy:  -306.00044693345797
    Total Energy =                       -306.0004469334577948
    Molecular point group: c1
  Basis Set: CC-PVTZ
  Basis Set:
  Basis Set: CC-PVTZ
  Basis Set:
  @DF-RHF Final Energy:  -306.00052034551987
    Total Energy =                       -306.0005203455201581
  Basis Set: CC-PVTZ
  Basis Set:
  Basis Set: CC-PVTZ
  Basis Set:
  @DF-RHF Final Energy:  -306.00042867411543
    Total Energy =                       -306.0004286741150850
  Basis Set: CC-PVTZ
  Basis Set:
  Basis Set: CC-PVTZ
  Basis Set:
  @DF-RHF Final Energy:  -306.00053502502590
    Total Energy =                       -306.0005350250256697
  Basis Set: CC-PVTZ
  Basis Set:
  Charge       = 0
  Multiplicity = 1
  Basis Set: CC-PVTZ
  Basis Set:

    Orbital Energies (a.u.)
    -----------------------

    Doubly Occupied:

       1A    -20.604398     2A    -20.541034     3A    -11.373904
       4A    -11.239989     5A    -11.223790     6A    -11.215203
       7A     -1.477999     8A     -1.369527     9A     -1.084190
      10A     -0.980943    11A     -0.858996    12A     -0.792621
      13A     -0.704168    14A     -0.691625    15A     -0.670151
      16A     -0.618169    17A     -0.596851    18A     -0.574163
      19A     -0.547303    20A     -0.505470    21A     -0.492133
      22A     -0.485283    23A     -0.482638    24A     -0.447485

  @DF-RHF Final Energy:  -306.00053576128619

   => Energetics <=

    Nuclear Repulsion Energy =            240.4587468137789017
    One-Electron Energy =                -893.7624990595284089
    Two-Electron Energy =                 347.3032164844634053
    DFT Exchange-Correlation Energy =       0.0000000000000000
    Empirical Dispersion Energy =           0.0000000000000000
    PCM Polarization Energy =               0.0000000000000000
    EFP Energy =                            0.0000000000000000
    Total Energy =                       -306.0005357612860735
    Molecular point group: c1
  Basis Set: CC-PVTZ
  Basis Set:

  -Total Gradient:
     Atom            X                  Y                   Z
    ------   -----------------  -----------------  -----------------
       1       -0.000021149023     0.000007710980     0.000002408293
       2       -0.000006866215    -0.000042440001    -0.000023422732
       3        0.000013529913    -0.000063128005     0.000011965256
       4       -0.002110595225    -0.002311699547     0.000556291050
       5       -0.000022448583     0.000085259478     0.000017145906
       6        0.001934080841     0.002143500821     0.001316526045
       7        0.001451552152     0.001592503356    -0.000691131103
       8        0.000002081676     0.000010732308     0.000010095079
       9        0.000019363281     0.000002803942     0.000014932775
      10       -0.001251754356    -0.001410465055    -0.001213809799
      11       -0.000000492571    -0.000012158482    -0.000005448445
      12        0.000003222056     0.000007989238     0.000012350297
      13        0.000004189167    -0.000009185769    -0.000004023790
      14       -0.000014713113    -0.000001423262    -0.000003878832

  **** Optimization is complete! (in 5 steps) ****
    Final optimized geometry and variables:
    Molecular point group: c1

    Geometry (in Angstrom), charge = 0, multiplicity = 1:

    H            2.825169982953    -0.457882901738     0.291646864540
    O            2.001036945051    -0.880520702216     0.102126091100
    C            1.042525151856     0.041520274354     0.116142836459
    C           -0.307899393897    -0.555056794105    -0.179885800504
    O            1.269000646192     1.180771299559     0.337077770712
    C           -1.439117731993     0.465039567139    -0.185111288996
    H           -0.219178046206    -1.048747155801    -1.142099890907
    H           -0.479124694879    -1.337928011193     0.551321039965
    C           -2.809833569767    -0.203887458272    -0.222403391478
    H           -1.334181578138     1.107446409825    -1.051617718658
    H           -1.358474696365     1.099988722215     0.687176224480
    H           -2.917744047360    -0.836518583504    -1.097423236703
    H           -3.599800007073     0.536714975294    -0.252200903851
    H           -2.970064304993    -0.823170378592     0.653897650954

  Mulliken Charges: (a.u.)
   Center  Symbol    Alpha    Beta     Spin     Total
       1     H     0.38230  0.38230  0.00000  0.23540
       2     O     4.16032  4.16032  0.00000 -0.32064
       3     C     2.80498  2.80498  0.00000  0.39003
       4     C     3.10592  3.10592  0.00000 -0.21185
       5     O     4.19079  4.19079  0.00000 -0.38158
       6     C     3.08011  3.08011  0.00000 -0.16023
       7     H     0.43773  0.43773  0.00000  0.12454
       8     H     0.43942  0.43942  0.00000  0.12117
       9     C     3.15012  3.15012  0.00000 -0.30024
      10     H     0.44888  0.44888  0.00000  0.10224
      11     H     0.44299  0.44299  0.00000  0.11401
      12     H     0.45571  0.45571  0.00000  0.08857
      13     H     0.44542  0.44542  0.00000  0.10915
      14     H     0.45529  0.45529  0.00000  0.08943

   Total alpha = 24.00000, Total beta = 24.00000, Total charge =  0.00000

*** Psi4 exiting successfully. Buy a developer a beer!
