  ==> Input File <==

--------------------------------------------------------------------------
set {
	reference rhf
	basis 6-31G*
}

set_num_threads( 4 )
memory 2 gb

molecule MOL {
0 1

H	 -2.715305	 0.511712	 -0.544247
C	 -2.020704	 0.940016	 -1.256588
C	 -0.735966	 0.123099	 -1.326266
H	 -1.817826	 1.957115	 -0.944127
H	 -2.502002	 0.969907	 -2.228563
C	 -0.000005	 0.033229	 -0.000001
H	 -0.051559	 0.542182	 -2.061352
H	 -0.941144	 -0.890570	 -1.665050
C	 1.290528	 -0.768786	 0.000276
O	 -0.412392	 0.562992	 0.986139
C	 2.545731	 0.095645	 -0.000061
H	 1.275672	 -1.427874	 -0.865626
H	 1.275566	 -1.427086	 0.866768
H	 2.577157	 0.734767	 -0.874036
H	 3.433520	 -0.528139	 0.000137
H	 2.577172	 0.735117	 0.873581

	symmetry c1
}
set optking {
	frozen_dihedral = ("
		3 6 9 12
	")
}

ee = optimize('scf')
oeprop('DIPOLE', 'QUADRUPOLE', 'MULLIKEN_CHARGES')
f=open( 'psi4out.xyz', 'w' )
f.write( "16  " )
f.write( str(ee) + "\n" )
f.write( MOL.save_string_xyz() )
f.close()
--------------------------------------------------------------------------

    Molecular point group: c1
  Charge       = 0
  Multiplicity = 1
  Basis Set: 6-31G*
  Basis Set:
  @DF-RHF Final Energy:  -270.03051773113771
    Total Energy =                       -270.0305177311378202
    Molecular point group: c1
  Basis Set: 6-31G*
  Basis Set:
  Basis Set: 6-31G*
  Basis Set:
  @DF-RHF Final Energy:  -270.03055625133709
    Total Energy =                       -270.0305562513373161
  Basis Set: 6-31G*
  Basis Set:
  Basis Set: 6-31G*
  Basis Set:
  @DF-RHF Final Energy:  -270.03114670620977
    Total Energy =                       -270.0311467062098245
  Basis Set: 6-31G*
  Basis Set:
  Basis Set: 6-31G*
  Basis Set:
  @DF-RHF Final Energy:  -270.03136644883875
    Total Energy =                       -270.0313664488389804
  Basis Set: 6-31G*
  Basis Set:
  Basis Set: 6-31G*
  Basis Set:
  @DF-RHF Final Energy:  -270.03137960291986
    Total Energy =                       -270.0313796029197420
  Basis Set: 6-31G*
  Basis Set:
  Basis Set: 6-31G*
  Basis Set:
  @DF-RHF Final Energy:  -270.03138374310060
    Total Energy =                       -270.0313837431004913
  Basis Set: 6-31G*
  Basis Set:
  Charge       = 0
  Multiplicity = 1
  Basis Set: 6-31G*
  Basis Set:

    Orbital Energies (a.u.)
    -----------------------

    Doubly Occupied:

       1A    -20.548530     2A    -11.322868     3A    -11.234340
       4A    -11.232053     5A    -11.226184     6A    -11.213308
       7A     -1.394356     8A     -1.070548     9A     -1.036837
      10A     -0.912490    11A     -0.854038    12A     -0.726531
      13A     -0.664576    14A     -0.642615    15A     -0.623673
      16A     -0.600679    17A     -0.566677    18A     -0.538165
      19A     -0.530605    20A     -0.511651    21A     -0.502893
      22A     -0.497920    23A     -0.476991    24A     -0.396259

  @DF-RHF Final Energy:  -270.03138385212867

   => Energetics <=

    Nuclear Repulsion Energy =            240.4728608768562310
    One-Electron Energy =                -842.3589163689576935
    Two-Electron Energy =                 331.8546716399727643
    DFT Exchange-Correlation Energy =       0.0000000000000000
    Empirical Dispersion Energy =           0.0000000000000000
    PCM Polarization Energy =               0.0000000000000000
    EFP Energy =                            0.0000000000000000
    Total Energy =                       -270.0313838521287266
    Molecular point group: c1
  Basis Set: 6-31G*
  Basis Set:

  -Total Gradient:
     Atom            X                  Y                   Z
    ------   -----------------  -----------------  -----------------
       1       -0.000002466002     0.000001693337     0.000000200463
       2       -0.000004225715    -0.000003013972    -0.000004806903
       3        0.000042166316     0.000082281558    -0.000009000889
       4        0.000002087219    -0.000004185997     0.000000022726
       5       -0.000002644506    -0.000000103679     0.000000100208
       6       -0.000083924534    -0.000141670409     0.000015919677
       7        0.000004947647    -0.000000089508    -0.000004507553
       8       -0.000000785837     0.000003863701    -0.000003832402
       9        0.000095026909     0.000144887960    -0.000068745059
      10        0.000007088582     0.000005098464     0.000017180518
      11       -0.000002198418     0.000001828050    -0.000009898188
      12       -0.000049752767    -0.000082635367     0.000068666464
      13       -0.000003474496    -0.000003700038     0.000001001264
      14        0.000002578330     0.000004488884    -0.000004045879
      15       -0.000000795317     0.000000299127     0.000000533328
      16       -0.000003627406    -0.000009042111     0.000001212222

  **** Optimization is complete! (in 7 steps) ****
    Final optimized geometry and variables:
    Molecular point group: c1

    Geometry (in Angstrom), charge = 0, multiplicity = 1:

    H           -2.794372817176     0.470386775276    -0.253840314729
    C           -2.086083908989     0.835651662737    -0.987099661623
    C           -0.861566379897    -0.067637588662    -1.058022245609
    H           -1.809231522560     1.843168668570    -0.700260485704
    H           -2.581610876366     0.878797989690    -1.951400287847
    C           -0.116906772673    -0.192908878484     0.257042443635
    H           -0.158212493128     0.284137623634    -1.811045462369
    H           -1.139265830674    -1.073223157747    -1.370748850237
    C            1.191153172017    -0.967118624903     0.244572229245
    O           -0.516655100564     0.308721696218     1.263724124633
    C            2.389899950310    -0.009645907183     0.260594502026
    H            1.243718782389    -1.616883706686    -0.623415657731
    H            1.211867593667    -1.589453549701     1.132121389510
    H            2.404126349715     0.625471185912    -0.620226250225
    H            3.320147283785    -0.566554541086     0.281659413339
    H            2.352694792298     0.627004268182     1.136359705992

  Mulliken Charges: (a.u.)
   Center  Symbol    Alpha    Beta     Spin     Total
       1     H     0.40909  0.40909  0.00000  0.18183
       2     C     3.23532  3.23532  0.00000 -0.47064
       3     C     3.20949  3.20949  0.00000 -0.41899
       4     H     0.41174  0.41174  0.00000  0.17653
       5     H     0.42005  0.42005  0.00000  0.15990
       6     C     2.73547  2.73547  0.00000  0.52906
       7     H     0.40973  0.40973  0.00000  0.18055
       8     H     0.40758  0.40758  0.00000  0.18485
       9     C     3.19710  3.19710  0.00000 -0.39420
      10     O     4.26550  4.26550  0.00000 -0.53100
      11     C     3.24731  3.24731  0.00000 -0.49462
      12     H     0.41570  0.41570  0.00000  0.16859
      13     H     0.40066  0.40066  0.00000  0.19868
      14     H     0.41870  0.41870  0.00000  0.16260
      15     H     0.41269  0.41269  0.00000  0.17461
      16     H     0.40388  0.40388  0.00000  0.19225

   Total alpha = 24.00000, Total beta = 24.00000, Total charge =  0.00000
