  ==> Input File <==

--------------------------------------------------------------------------
set {
	reference rhf
	basis 6-31G*
}

set_num_threads( 1 )
memory 2 gb

molecule MOL {
0 1

H	 -0.502780	 -1.641921	 -0.150465
N	 -0.626943	 -0.667432	 -0.000092
C	 -1.969005	 -0.173575	 0.208934
C	 0.469286	 0.129090	 0.000148
H	 -2.598599	 -0.384660	 -0.649006
H	 -1.917025	 0.893623	 0.350762
H	 -2.416676	 -0.624276	 1.088417
C	 1.788933	 -0.616240	 -0.000037
O	 0.411098	 1.327768	 -0.000049
H	 1.872803	 -1.245775	 -0.880381
H	 2.595421	 0.101576	 0.003713
H	 1.870096	 -1.252171	 0.875943

	symmetry c1
}
set optking {
	frozen_dihedral = ("
		4 2 3 5
	")
}

ee = energy('scf')
oeprop('DIPOLE', 'QUADRUPOLE', 'MULLIKEN_CHARGES')
f=open( 'psi4out.xyz', 'w' )
f.write( "12  " )
f.write( str(ee) + "\n" )
f.write( MOL.save_string_xyz() )
f.close()
--------------------------------------------------------------------------

    Molecular point group: c1

    Geometry (in Angstrom), charge = 0, multiplicity = 1:

       Center              X                  Y                   Z               Mass
    ------------   -----------------  -----------------  -----------------  -----------------
           H         -0.504991743866    -1.638863347321    -0.193590692484     1.007825032070
           N         -0.629154743866    -0.664374347321    -0.043217692484    14.003074004780
           C         -1.971216743866    -0.170517347321     0.165808307516    12.000000000000
           C          0.467074256134     0.132147652679    -0.042977692484    12.000000000000
           H         -2.600810743866    -0.381602347321    -0.692131692484     1.007825032070
           H         -1.919236743866     0.896680652679     0.307636307516     1.007825032070
           H         -2.418887743866    -0.621218347321     1.045291307516     1.007825032070
           C          1.786721256134    -0.613182347321    -0.043162692484    12.000000000000
           O          0.408886256134     1.330825652679    -0.043174692484    15.994914619560
           H          1.870591256134    -1.242717347321    -0.923506692484     1.007825032070
           H          2.593209256134     0.104633652679    -0.039412692484     1.007825032070
           H          1.867884256134    -1.249113347321     0.832817307516     1.007825032070

  Charge       = 0
  Multiplicity = 1
  Basis Set: 6-31G*
  Basis Set:

    Orbital Energies (a.u.)
    -----------------------

    Doubly Occupied:

       1A    -20.516500     2A    -15.580491     3A    -11.343289
       4A    -11.253912     5A    -11.229523     6A     -1.384357
       7A     -1.227880     8A     -1.015484     9A     -0.931672
      10A     -0.786355    11A     -0.689062    12A     -0.647988
      13A     -0.632291    14A     -0.585900    15A     -0.579851
      16A     -0.554899    17A     -0.544374    18A     -0.506827
      19A     -0.413116    20A     -0.383703

  @DF-RHF Final Energy:  -247.00435456014856

   => Energetics <=

    Nuclear Repulsion Energy =            181.2442621346569354
    One-Electron Energy =                -694.8821257335231394
    Two-Electron Energy =                 266.6335090387177047
    DFT Exchange-Correlation Energy =       0.0000000000000000
    Empirical Dispersion Energy =           0.0000000000000000
    PCM Polarization Energy =               0.0000000000000000
    EFP Energy =                            0.0000000000000000
    Total Energy =                       -247.0043545601485562

  Mulliken Charges: (a.u.)
   Center  Symbol    Alpha    Beta     Spin     Total
       1     H     0.31116  0.31116  0.00000  0.37768
       2     N     3.89155  3.89155  0.00000 -0.78310
       3     C     3.14205  3.14205  0.00000 -0.28411
       4     C     2.63157  2.63157  0.00000  0.73685
       5     H     0.41640  0.41640  0.00000  0.16721
       6     H     0.38624  0.38624  0.00000  0.22752
       7     H     0.41704  0.41704  0.00000  0.16592
       8     C     3.29456  3.29456  0.00000 -0.58911
       9     O     4.30130  4.30130  0.00000 -0.60259
      10     H     0.40922  0.40922  0.00000  0.18157
      11     H     0.39213  0.39213  0.00000  0.21575
      12     H     0.40679  0.40679  0.00000  0.18642

   Total alpha = 20.00000, Total beta = 20.00000, Total charge =  0.00000
