  ==> Input File <==

--------------------------------------------------------------------------
set {
	reference rhf
	basis 6-31G*
}

set_num_threads( 4 )
memory 2 gb

molecule MOL {
0 1

H	 -0.944757	 -0.000069	 1.678017
O	 -0.042387	 -0.000390	 1.388199
C	 -0.001487	 0.000018	 -0.026623
C	 -1.427777	 0.000830	 -0.580101
C	 0.773323	 1.225034	 -0.516164
C	 0.724762	 -1.286025	 -0.404875
H	 -1.431802	 -0.041062	 -1.664595
H	 -1.957103	 0.903146	 -0.282534
H	 -1.978397	 -0.852386	 -0.199500
H	 0.857175	 1.234184	 -1.598280
H	 0.273807	 2.143317	 -0.215879
H	 1.771458	 1.231670	 -0.092420
H	 0.809086	 -1.382468	 -1.482527
H	 0.187593	 -2.146196	 -0.021414
H	 1.721230	 -1.292921	 0.022205

	symmetry c1
}
set optking {
	frozen_dihedral = ("
		4 3 2 1
	")
}

ee = optimize('scf')
oeprop('DIPOLE', 'QUADRUPOLE', 'MULLIKEN_CHARGES')
f=open( 'psi4out.xyz', 'w' )
f.write( "15  " )
f.write( str(ee) + "\n" )
f.write( MOL.save_string_xyz() )
f.close()
--------------------------------------------------------------------------

    Molecular point group: c1
  Charge       = 0
  Multiplicity = 1
  Basis Set: 6-31G*
  Basis Set:
  @DF-RHF Final Energy:  -232.15013003303014
    Total Energy =                       -232.1501300330298818
    Molecular point group: c1
  Basis Set: 6-31G*
  Basis Set:
  Basis Set: 6-31G*
  Basis Set:
  @DF-RHF Final Energy:  -232.15066279476511
    Total Energy =                       -232.1506627947649122
  Basis Set: 6-31G*
  Basis Set:
  Basis Set: 6-31G*
  Basis Set:
  @DF-RHF Final Energy:  -232.15085670154400
    Total Energy =                       -232.1508567015440008
  Basis Set: 6-31G*
  Basis Set:
  Basis Set: 6-31G*
  Basis Set:
  @DF-RHF Final Energy:  -232.15084585370482
    Total Energy =                       -232.1508458537047659
  Basis Set: 6-31G*
  Basis Set:
  Basis Set: 6-31G*
  Basis Set:
  @DF-RHF Final Energy:  -232.15086086543351
    Total Energy =                       -232.1508608654336854
  Basis Set: 6-31G*
  Basis Set:
  Charge       = 0
  Multiplicity = 1
  Basis Set: 6-31G*
  Basis Set:

    Orbital Energies (a.u.)
    -----------------------

    Doubly Occupied:

       1A    -20.546572     2A    -11.282031     3A    -11.218879
       4A    -11.204385     5A    -11.204365     6A     -1.357906
       7A     -1.063839     8A     -0.945827     9A     -0.935172
      10A     -0.775637    11A     -0.669121    12A     -0.622657
      13A     -0.621041    14A     -0.575174    15A     -0.556354
      16A     -0.533397    17A     -0.516742    18A     -0.508650
      19A     -0.501458    20A     -0.456733    21A     -0.422364

  @DF-RHF Final Energy:  -232.15086064761829

   => Energetics <=

    Nuclear Repulsion Energy =            200.2418032221646627
    One-Electron Energy =                -711.7487228404795587
    Two-Electron Energy =                 279.3560589706967221
    DFT Exchange-Correlation Energy =       0.0000000000000000
    Empirical Dispersion Energy =           0.0000000000000000
    PCM Polarization Energy =               0.0000000000000000
    EFP Energy =                            0.0000000000000000
    Total Energy =                       -232.1508606476181740
    Molecular point group: c1
  Basis Set: 6-31G*
  Basis Set:

  -Total Gradient:
     Atom            X                  Y                   Z
    ------   -----------------  -----------------  -----------------
       1       -0.000052582398    -0.000001993077    -0.000016877151
       2        0.000054496025    -0.000028412481    -0.000037403926
       3       -0.000015531830    -0.000030737366     0.000036475729
       4        0.000014366013     0.000092413487     0.000050392292
       5        0.000000688496    -0.000017110845    -0.000105049358
       6        0.000006925024     0.000017139057     0.000077510709
       7        0.000005789795     0.000019588762    -0.000030787712
       8       -0.000047091254    -0.000048938024     0.000025213397
       9        0.000059099192    -0.000004315126    -0.000009903270
      10        0.000006019142     0.000026003537     0.000008744930
      11       -0.000021994036    -0.000003726507    -0.000002784168
      12        0.000002330826    -0.000028135978     0.000008849545
      13       -0.000002209372     0.000012163065    -0.000003323321
      14       -0.000009383657     0.000024177617    -0.000007540697
      15       -0.000000921965    -0.000028116121     0.000006482998

  **** Optimization is complete! (in 6 steps) ****
    Final optimized geometry and variables:
    Molecular point group: c1

    Geometry (in Angstrom), charge = 0, multiplicity = 1:

    H           -0.915100103516     0.075721394657     1.707106379938
    O           -0.023756475976     0.049954021734     1.392868592183
    C            0.003099817595    -0.000890603100    -0.025985477086
    C           -1.422213610265     0.002830176461    -0.578920544593
    C            0.772230747299     1.227393886424    -0.509257969234
    C            0.730794829834    -1.285199224056    -0.419151177476
    H           -1.421574562769    -0.030264607294    -1.662855647836
    H           -1.951491849702     0.901682822630    -0.273423214644
    H           -1.976212031590    -0.860481879518    -0.219618454896
    H            0.875756570843     1.230101497236    -1.590182710076
    H            0.260208459771     2.136007492991    -0.209860831987
    H            1.763027974623     1.241462268125    -0.068953761315
    H            0.833375112526    -1.368146609063    -1.497024951503
    H            0.189044514827    -2.152649477277    -0.056765611483
    H            1.720875186217    -1.301055393692     0.022664494154

  Mulliken Charges: (a.u.)
   Center  Symbol    Alpha    Beta     Spin     Total
       1     H     0.27925  0.27925  0.00000  0.44150
       2     O     4.38409  4.38409  0.00000 -0.76818
       3     C     2.84398  2.84398  0.00000  0.31204
       4     C     3.26120  3.26120  0.00000 -0.52240
       5     C     3.23158  3.23158  0.00000 -0.46316
       6     C     3.23156  3.23156  0.00000 -0.46312
       7     H     0.41402  0.41402  0.00000  0.17196
       8     H     0.41805  0.41805  0.00000  0.16389
       9     H     0.41798  0.41798  0.00000  0.16404
      10     H     0.42589  0.42589  0.00000  0.14822
      11     H     0.42013  0.42013  0.00000  0.15975
      12     H     0.41312  0.41312  0.00000  0.17376
      13     H     0.42591  0.42591  0.00000  0.14817
      14     H     0.42014  0.42014  0.00000  0.15973
      15     H     0.41310  0.41310  0.00000  0.17381

   Total alpha = 21.00000, Total beta = 21.00000, Total charge = -0.00000
