                              Psi4 1.0.54 Driver

  ==> Input File <==

--------------------------------------------------------------------------
set {
	reference rhf
	basis cc-pvtz
}

set_num_threads( 4 )
memory 2 gb

molecule MOL {
0 1

H	 2.614283	 2.028610	 0.296620
O	 3.358864	 1.662087	 -0.142800
C	 3.565468	 0.338079	 0.273842
C	 3.580482	 0.173552	 1.786255
H	 2.748271	 -0.234075	 -0.144261
H	 4.485820	 -0.055055	 -0.153765
C	 4.748468	 0.869633	 2.481330
H	 2.642146	 0.548562	 2.183811
H	 3.613704	 -0.890833	 2.006204
C	 4.748854	 0.655036	 3.994203
H	 4.711289	 1.932536	 2.267185
H	 5.685481	 0.499729	 2.068457
C	 5.938927	 1.269058	 4.733769
H	 3.825230	 1.049428	 4.410857
H	 4.736638	 -0.413401	 4.191085
C	 5.982396	 2.796099	 4.733461
H	 5.914639	 0.924528	 5.763933
H	 6.862884	 0.882967	 4.309043
C	 7.130289	 3.361149	 5.566210
H	 5.039784	 3.180983	 5.116627
H	 6.071824	 3.167188	 3.716949
C	 7.178865	 4.885463	 5.565011
H	 7.040861	 3.004875	 6.588780
H	 8.072214	 2.970895	 5.189992
H	 6.262826	 5.306519	 5.966038
H	 8.002306	 5.252983	 6.166661
H	 7.306072	 5.272616	 4.559386

	symmetry c1
}
set optking {
	frozen_dihedral = ("
		4 3 2 1
	")
}

ee,wfn = optimize('scf', return_wfn=True)
oeprop( wfn, 'DIPOLE', 'QUADRUPOLE', 'MULLIKEN_CHARGES')
f=open( 'psi4out.xyz', 'w' )
f.write( "27  " )
f.write( str(ee) + "\n" )
f.write( MOL.save_string_xyz() )
f.close()
--------------------------------------------------------------------------

    Molecular point group: c1
  Charge       = 0
  Multiplicity = 1
  Basis Set: CC-PVTZ
  Basis Set:
  @DF-RHF Final Energy:  -388.42630980614661
    Total Energy =                       -388.4263098061459232
    Molecular point group: c1
  Basis Set: CC-PVTZ
  Basis Set:
  Basis Set: CC-PVTZ
  Basis Set:
  @DF-RHF Final Energy:  -388.42738514532823
    Total Energy =                       -388.4273851453281168
  Basis Set: CC-PVTZ
  Basis Set:
  Basis Set: CC-PVTZ
  Basis Set:
  @DF-RHF Final Energy:  -388.42794474366468
    Total Energy =                       -388.4279447436647388
  Basis Set: CC-PVTZ
  Basis Set:
  Basis Set: CC-PVTZ
  Basis Set:
  @DF-RHF Final Energy:  -388.42795783811340
    Total Energy =                       -388.4279578381137981
  Basis Set: CC-PVTZ
  Basis Set:
  Basis Set: CC-PVTZ
  Basis Set:
  @DF-RHF Final Energy:  -388.42795919779212
    Total Energy =                       -388.4279591977915516
  Basis Set: CC-PVTZ
  Basis Set:
  Charge       = 0
  Multiplicity = 1
  Basis Set: CC-PVTZ
  Basis Set:

    Orbital Energies (a.u.)
    -----------------------

    Doubly Occupied:

       1A    -20.545907     2A    -11.265252     3A    -11.217445
       4A    -11.212381     5A    -11.211444     6A    -11.210745
       7A    -11.210619     8A    -11.208912     9A    -11.205025
      10A     -1.363868    11A     -1.093743    12A     -1.060885
      13A     -1.011305    14A     -0.946708    15A     -0.885719
      16A     -0.823333    17A     -0.802571    18A     -0.776625
      19A     -0.676284    20A     -0.652824    21A     -0.642598
      22A     -0.620617    23A     -0.606382    24A     -0.585385
      25A     -0.571868    26A     -0.560805    27A     -0.537106
      28A     -0.520430    29A     -0.513942    30A     -0.488456
      31A     -0.479708    32A     -0.476067    33A     -0.465936
      34A     -0.457972    35A     -0.454690    36A     -0.442655
      37A     -0.422749

  @DF-RHF Final Energy:  -388.42795945580593

   => Energetics <=

    Nuclear Repulsion Energy =            460.4193131837542410
    One-Electron Energy =               -1439.2366298678266503
    Two-Electron Energy =                 590.3893572282663627
    DFT Exchange-Correlation Energy =       0.0000000000000000
    Empirical Dispersion Energy =           0.0000000000000000
    PCM Polarization Energy =               0.0000000000000000
    EFP Energy =                            0.0000000000000000
    Total Energy =                       -388.4279594558061035
    Molecular point group: c1
  Basis Set: CC-PVTZ
  Basis Set:

  -Total Gradient:
     Atom            X                  Y                   Z
    ------   -----------------  -----------------  -----------------
       1        0.000834286457     0.000417901833     0.000947868489
       2       -0.001405571146    -0.000537020072    -0.001150646772
       3        0.001395821842     0.000249808195     0.000198636794
       4       -0.000822631812    -0.000116508239    -0.000038770551
       5        0.000007008868    -0.000008066435     0.000004118946
       6       -0.000001510829    -0.000013627660     0.000009096386
       7        0.000005045498    -0.000011896773     0.000020788940
       8       -0.000000010821     0.000006385808    -0.000003898253
       9       -0.000012730483    -0.000002653776     0.000017393017
      10        0.000007079505    -0.000000628471    -0.000007927836
      11       -0.000003400905     0.000017334854     0.000004611546
      12       -0.000002008251    -0.000004849854    -0.000004092622
      13       -0.000004772745     0.000005702030     0.000011995340
      14        0.000001235448     0.000002200852    -0.000001084494
      15       -0.000003242746    -0.000004805044    -0.000004871226
      16       -0.000008129342    -0.000007986137     0.000004133558
      17        0.000007268369     0.000001585434     0.000004030365
      18       -0.000002264421    -0.000000301655    -0.000005819533
      19        0.000002606739     0.000008038568     0.000002567401
      20       -0.000004064097    -0.000000710278    -0.000004190741
      21       -0.000000244676    -0.000003136991    -0.000010427589
      22        0.000002947713    -0.000004442629     0.000001217384
      23       -0.000000082447     0.000001972832     0.000002522720
      24        0.000004822936     0.000001156948    -0.000000428260
      25       -0.000003045445     0.000000572028     0.000002445154
      26        0.000005157549     0.000005044091     0.000002155559
      27        0.000000429243    -0.000001069458    -0.000001423725

  **** Optimization is complete! (in 6 steps) ****
    Final optimized geometry and variables:
    Molecular point group: c1

    Geometry (in Angstrom), charge = 0, multiplicity = 1:

    H           -2.432476910510     0.195019639349    -2.836603378840
    O           -1.698745705858    -0.192620027256    -3.278428153320
    C           -1.533463673350    -1.520216584148    -2.854990683583
    C           -1.521377955604    -1.677119606802    -1.342085859633
    H           -2.314845992657    -2.146863716853    -3.278064275129
    H           -0.591962704040    -1.851548232130    -3.274415788595
    C           -0.363021829811    -0.961237492585    -0.651894164871
    H           -2.468060894992    -1.314717424075    -0.942915480487
    H           -1.485862178556    -2.739096538047    -1.113239944317
    C           -0.398730033945    -1.106316362326     0.868362736111
    H           -0.377670503860     0.084890298731    -0.930940954257
    H            0.574544687520    -1.364311665837    -1.028168068173
    C            0.789842392958    -0.482017153355     1.601836557842
    H           -1.321048278262    -0.673232332536     1.249438425396
    H           -0.438144258446    -2.163729154439     1.116425057514
    C            0.867004063683     1.041638651384     1.524393995456
    H            0.738427152566    -0.773139452674     2.647449539180
    H            1.712611653589    -0.908482868654     1.215273039226
    C            2.015727238559     1.624193876276     2.343700041159
    H           -0.071920049062     1.465304153206     1.874819992962
    H            0.977245409945     1.357464634269     0.491762578021
    C            2.096693285482     3.145138086475     2.266539279698
    H            1.906270308716     1.321870937639     3.381670630856
    H            2.953710259688     1.196452262945     2.000041153823
    H            1.185448008865     3.604719831703     2.635021721599
    H            2.921096795865     3.525639136245     2.858767894524
    H            2.242815898501     3.477987998301     1.244307517717

  Mulliken Charges: (a.u.)
   Center  Symbol    Alpha    Beta     Spin     Total
       1     H     0.39474  0.39474  0.00000  0.21052
       2     O     4.20393  4.20393  0.00000 -0.40786
       3     C     2.97157  2.97157  0.00000  0.05687
       4     C     3.10885  3.10885  0.00000 -0.21770
       5     H     0.46158  0.46158  0.00000  0.07684
       6     H     0.46036  0.46036  0.00000  0.07927
       7     C     3.08882  3.08882  0.00000 -0.17765
       8     H     0.45818  0.45818  0.00000  0.08363
       9     H     0.45080  0.45080  0.00000  0.09841
      10     C     3.09914  3.09914  0.00000 -0.19827
      11     H     0.44620  0.44620  0.00000  0.10760
      12     H     0.45437  0.45437  0.00000  0.09127
      13     C     3.09764  3.09764  0.00000 -0.19529
      14     H     0.45425  0.45425  0.00000  0.09151
      15     H     0.44908  0.44908  0.00000  0.10185
      16     C     3.08851  3.08851  0.00000 -0.17703
      17     H     0.44868  0.44868  0.00000  0.10265
      18     H     0.45356  0.45356  0.00000  0.09287
      19     C     3.08396  3.08396  0.00000 -0.16792
      20     H     0.45618  0.45618  0.00000  0.08764
      21     H     0.45169  0.45169  0.00000  0.09663
      22     C     3.14976  3.14976  0.00000 -0.29952
      23     H     0.45446  0.45446  0.00000  0.09109
      24     H     0.45456  0.45456  0.00000  0.09088
      25     H     0.45564  0.45564  0.00000  0.08872
      26     H     0.44867  0.44867  0.00000  0.10266
      27     H     0.45482  0.45482  0.00000  0.09035

   Total alpha = 37.00000, Total beta = 37.00000, Total charge = -0.00000

*** Psi4 exiting successfully. Buy a developer a beer!
