                              Psi4 1.0.54 Driver

  ==> Input File <==

--------------------------------------------------------------------------
set {
	reference rhf
	basis cc-pvtz
}

set_num_threads( 4 )
memory 2 gb

molecule MOL {
0 1

H	 2.646708	 0.758099	 0.000000
O	 2.258158	 -0.097743	 0.000000
C	 0.911162	 -0.015915	 0.000000
C	 0.234636	 -0.590076	 1.063698
C	 0.207554	 0.611490	 -1.010801
H	 0.796800	 -1.072529	 1.838753
C	 -1.141513	 -0.531029	 1.106145
H	 0.732447	 1.057121	 -1.836363
C	 -1.173996	 0.663167	 -0.955045
H	 -1.660489	 -0.977714	 1.932908
C	 -1.857654	 0.094867	 0.099269
H	 -1.712677	 1.152372	 -1.744239
H	 -2.928420	 0.136805	 0.139223

	symmetry c1
}
set optking {
	frozen_dihedral = ("
		4 3 2 1
	")
}

ee,wfn = optimize('scf', return_wfn=True)
oeprop( wfn, 'DIPOLE', 'QUADRUPOLE', 'MULLIKEN_CHARGES')
f=open( 'psi4out.xyz', 'w' )
f.write( "13  " )
f.write( str(ee) + "\n" )
f.write( MOL.save_string_xyz() )
f.close()
--------------------------------------------------------------------------

    Molecular point group: c1
  Charge       = 0
  Multiplicity = 1
  Basis Set: CC-PVTZ
  Basis Set:
  @DF-RHF Final Energy:  -305.66681349502880
    Total Energy =                       -305.6668134950285776
    Molecular point group: c1
  Basis Set: CC-PVTZ
  Basis Set:
  Basis Set: CC-PVTZ
  Basis Set:
  @DF-RHF Final Energy:  -305.66714503293861
    Total Energy =                       -305.6671450329389472
  Basis Set: CC-PVTZ
  Basis Set:
  Basis Set: CC-PVTZ
  Basis Set:
  @DF-RHF Final Energy:  -305.66718262091501
    Total Energy =                       -305.6671826209149003
  Basis Set: CC-PVTZ
  Basis Set:
  Basis Set: CC-PVTZ
  Basis Set:
  @DF-RHF Final Energy:  -305.66718658246617
    Total Energy =                       -305.6671865824660017
  Basis Set: CC-PVTZ
  Basis Set:
  Charge       = 0
  Multiplicity = 1
  Basis Set: CC-PVTZ
  Basis Set:

    Orbital Energies (a.u.)
    -----------------------

    Doubly Occupied:

       1A    -20.574049     2A    -11.290842     3A    -11.234121
       4A    -11.233138     5A    -11.226296     6A    -11.224378
       7A    -11.223626     8A     -1.401739     9A     -1.153224
      10A     -1.022480    11A     -1.008377    12A     -0.842463
      13A     -0.827950    14A     -0.739087    15A     -0.685372
      16A     -0.652114    17A     -0.629162    18A     -0.597795
      19A     -0.592002    20A     -0.533140    21A     -0.517489
      22A     -0.497584    23A     -0.475294    24A     -0.342205
      25A     -0.325836

  @DF-RHF Final Energy:  -305.66718736962190

   => Energetics <=

    Nuclear Repulsion Energy =            273.4290484240619321
    One-Electron Energy =                -956.4929495525364018
    Two-Electron Energy =                 377.3967137588526839
    DFT Exchange-Correlation Energy =       0.0000000000000000
    Empirical Dispersion Energy =           0.0000000000000000
    PCM Polarization Energy =               0.0000000000000000
    EFP Energy =                            0.0000000000000000
    Total Energy =                       -305.6671873696218427
    Molecular point group: c1
  Basis Set: CC-PVTZ
  Basis Set:

  -Total Gradient:
     Atom            X                  Y                   Z
    ------   -----------------  -----------------  -----------------
       1        0.000066735582     0.000014321013     0.002093300974
       2        0.000120386186     0.000609066812    -0.002209032322
       3       -0.000387192974    -0.001872421425    -0.000766396312
       4        0.000096787434     0.001284037248     0.000829677065
       5        0.000156067920    -0.000029750503     0.000043148062
       6       -0.000007581363    -0.000000233649    -0.000015801370
       7        0.000082629848    -0.000014998094     0.000044105694
       8        0.000011749064    -0.000002550172    -0.000010747765
       9       -0.000126186896    -0.000013472766     0.000082811815
      10       -0.000021340866     0.000006540423    -0.000011872501
      11        0.000005722025     0.000042784201    -0.000110911767
      12        0.000011133245    -0.000012800229     0.000008635459
      13       -0.000008909204    -0.000010522858     0.000023082967

  **** Optimization is complete! (in 5 steps) ****
    Final optimized geometry and variables:
    Molecular point group: c1

    Geometry (in Angstrom), charge = 0, multiplicity = 1:

    H            2.661136715642     0.697233714379    -0.098023690306
    O            2.263719967101    -0.155163990133    -0.081368934521
    C            0.904595569617    -0.050090079868    -0.037743324853
    C            0.229714681288    -0.597866971527     1.035737424370
    C            0.205743648666     0.570374932177    -1.056235088174
    H            0.790567074257    -1.075078716359     1.815173749557
    C           -1.149524676654    -0.530111479225     1.083117242384
    H            0.740611360447     0.980299119648    -1.891980750902
    C           -1.172940953542     0.644137832192    -0.994594039677
    H           -1.671503252890    -0.960495724322     1.916471162214
    C           -1.856955727826     0.093401868119     0.072343453880
    H           -1.712338455230     1.127247580595    -1.786927056856
    H           -2.927490163375     0.147303859018     0.114724378532

  Mulliken Charges: (a.u.)
   Center  Symbol    Alpha    Beta     Spin     Total
       1     H     0.38621  0.38621  0.00000  0.22758
       2     O     4.18944  4.18944  0.00000 -0.37887
       3     C     2.86904  2.86904  0.00000  0.26192
       4     C     3.10798  3.10798  0.00000 -0.21596
       5     C     3.11914  3.11914  0.00000 -0.23829
       6     H     0.41640  0.41640  0.00000  0.16721
       7     C     3.06562  3.06562  0.00000 -0.13124
       8     H     0.42144  0.42144  0.00000  0.15712
       9     C     3.06849  3.06849  0.00000 -0.13698
      10     H     0.42177  0.42177  0.00000  0.15645
      11     C     3.08928  3.08928  0.00000 -0.17855
      12     H     0.42195  0.42195  0.00000  0.15611
      13     H     0.42325  0.42325  0.00000  0.15350

   Total alpha = 25.00000, Total beta = 25.00000, Total charge =  0.00000

*** Psi4 exiting successfully. Buy a developer a beer!
