  ==> Input File <==

--------------------------------------------------------------------------
set {
	reference rhf
	basis 6-31G*
}

set_num_threads( 4 )
memory 2 gb

molecule MOL {
0 1

O	 0.074228	 1.262779	 -0.000085
C	 0.028650	 0.075053	 -0.000277
C	 -1.233602	 -0.752807	 0.000328
O	 1.109162	 -0.694619	 -0.000298
C	 -2.501530	 0.091881	 0.000126
H	 -1.193807	 -1.406641	 -0.865785
H	 -1.193516	 -1.405779	 0.867015
H	 -2.545121	 0.729328	 -0.874513
H	 -3.377167	 -0.548497	 0.000561
H	 -2.544818	 0.730135	 0.874258
C	 2.193654	 -0.279765	 0.810481
H	 2.551503	 0.690808	 0.498480
H	 2.963720	 -1.023283	 0.676160
H	 1.895830	 -0.232034	 1.848023

	symmetry c1
}
set optking {
	frozen_dihedral = ("
		11 4 2 3
	")
}

ee = optimize('scf')
oeprop('DIPOLE', 'QUADRUPOLE', 'MULLIKEN_CHARGES')
f=open( 'psi4out.xyz', 'w' )
f.write( "14  " )
f.write( str(ee) + "\n" )
f.write( MOL.save_string_xyz() )
f.close()
--------------------------------------------------------------------------

    Molecular point group: c1
  Charge       = 0
  Multiplicity = 1
  Basis Set: 6-31G*
  Basis Set:
  @DF-RHF Final Energy:  -305.86367531927772
    Total Energy =                       -305.8636753192777178
    Molecular point group: c1
  Basis Set: 6-31G*
  Basis Set:
  Basis Set: 6-31G*
  Basis Set:
  @DF-RHF Final Energy:  -305.86109358232352
    Total Energy =                       -305.8610935823234058
  Basis Set: 6-31G*
  Basis Set:
  Basis Set: 6-31G*
  Basis Set:
  @DF-RHF Final Energy:  -305.86427724754697
    Total Energy =                       -305.8642772475473066
  Basis Set: 6-31G*
  Basis Set:
  Basis Set: 6-31G*
  Basis Set:
  @DF-RHF Final Energy:  -305.86443205939293
    Total Energy =                       -305.8644320593930956
  Basis Set: 6-31G*
  Basis Set:
  Basis Set: 6-31G*
  Basis Set:
  @DF-RHF Final Energy:  -305.86446967925241
    Total Energy =                       -305.8644696792525224
  Basis Set: 6-31G*
  Basis Set:
  Basis Set: 6-31G*
  Basis Set:
  @DF-RHF Final Energy:  -305.86447161698186
    Total Energy =                       -305.8644716169817457
  Basis Set: 6-31G*
  Basis Set:
  Charge       = 0
  Multiplicity = 1
  Basis Set: 6-31G*
  Basis Set:

    Orbital Energies (a.u.)
    -----------------------

    Doubly Occupied:

       1A    -20.597227     2A    -20.549984     3A    -11.374237
       4A    -11.284637     5A    -11.240151     6A    -11.217473
       7A     -1.465830     8A     -1.364730     9A     -1.063865
      10A     -0.978824    11A     -0.882577    12A     -0.767464
      13A     -0.700204    14A     -0.678945    15A     -0.672296
      16A     -0.621052    17A     -0.606010    18A     -0.552377
      19A     -0.539638    20A     -0.520925    21A     -0.510367
      22A     -0.496631    23A     -0.456116    24A     -0.437664

  @DF-RHF Final Energy:  -305.86447180656313

   => Energetics <=

    Nuclear Repulsion Energy =            246.8126882459173999
    One-Electron Energy =                -906.1958753815106320
    Two-Electron Energy =                 353.5187153290301012
    DFT Exchange-Correlation Energy =       0.0000000000000000
    Empirical Dispersion Energy =           0.0000000000000000
    PCM Polarization Energy =               0.0000000000000000
    EFP Energy =                            0.0000000000000000
    Total Energy =                       -305.8644718065631878
    Molecular point group: c1
  Basis Set: 6-31G*
  Basis Set:

  -Total Gradient:
     Atom            X                  Y                   Z
    ------   -----------------  -----------------  -----------------
       1       -0.000008136023    -0.000035087923    -0.000040977188
       2       -0.001713649118    -0.001281081320    -0.007285067085
       3        0.000250362950    -0.000714508181     0.007123914408
       4        0.004139506575     0.006872719178    -0.005586432506
       5       -0.000003917325    -0.000013672572     0.000005998350
       6        0.000004071405     0.000014395304     0.000006601999
       7       -0.000005308397     0.000008721384     0.000006666908
       8       -0.000006955687     0.000000981367    -0.000006876289
       9        0.000000747478     0.000004423623    -0.000003687046
      10        0.000005045053    -0.000000291427     0.000006706565
      11       -0.002670001273    -0.004886094440     0.005776208847
      12        0.000002893686     0.000012493726    -0.000001204620
      13        0.000008112670     0.000007597015    -0.000000051293
      14       -0.000002771995     0.000009404262    -0.000001801049

  **** Optimization is complete! (in 7 steps) ****
    Final optimized geometry and variables:
    Molecular point group: c1

    Geometry (in Angstrom), charge = 0, multiplicity = 1:

    O            0.080336981347     1.300861498150     0.094620678808
    C            0.049205721891     0.133071674815    -0.112686587339
    C           -1.203194598402    -0.707520420111    -0.145803212397
    O            1.149492248909    -0.614612514762    -0.233339227276
    C           -2.482738824540     0.113675719710    -0.241206320040
    H           -1.121412184479    -1.419918381589    -0.960101405478
    H           -1.183064781381    -1.297439016268     0.767473105249
    H           -2.508255047482     0.689760178640    -1.159085586453
    H           -3.349219524900    -0.538731084052    -0.226468606847
    H           -2.561342432884     0.808026429057     0.585706466922
    C            2.257985893627    -0.259380649309     0.573113468011
    H            2.643487706196     0.711420340273     0.298924962155
    H            3.005784019537    -1.018236397561     0.403636357985
    H            1.972182396203    -0.251405000562     1.617310948372

  Mulliken Charges: (a.u.)
   Center  Symbol    Alpha    Beta     Spin     Total
       1     O     4.27545  4.27545  0.00000 -0.55090
       2     C     2.60830  2.60830  0.00000  0.78341
       3     C     3.20584  3.20584  0.00000 -0.41169
       4     O     4.31080  4.31080  0.00000 -0.62159
       5     C     3.24068  3.24068  0.00000 -0.48136
       6     H     0.40011  0.40011  0.00000  0.19978
       7     H     0.40198  0.40198  0.00000  0.19604
       8     H     0.41190  0.41190  0.00000  0.17619
       9     H     0.41749  0.41749  0.00000  0.16503
      10     H     0.40705  0.40705  0.00000  0.18591
      11     C     3.09247  3.09247  0.00000 -0.18494
      12     H     0.40403  0.40403  0.00000  0.19194
      13     H     0.40713  0.40713  0.00000  0.18573
      14     H     0.41677  0.41677  0.00000  0.16647

   Total alpha = 24.00000, Total beta = 24.00000, Total charge =  0.00000
