                              Psi4 1.0.54 Driver

  ==> Input File <==

--------------------------------------------------------------------------
set {
	reference rhf
	basis cc-pvtz
}

set_num_threads( 4 )
memory 2 gb

molecule MOL {
0 1

H	 -3.883344	 -1.711053	 -0.877134
C	 -2.815805	 -1.604770	 -0.912336
C	 -2.124534	 -1.958403	 -2.057207
C	 -2.135832	 -1.114891	 0.186590
H	 -2.652988	 -2.338572	 -2.909796
C	 -0.752752	 -1.821545	 -2.101686
H	 -2.672841	 -0.840930	 1.073967
C	 -0.762256	 -0.977274	 0.143596
H	 -0.201875	 -2.090503	 -2.979897
C	 -0.066562	 -1.330570	 -1.001699
H	 -0.232626	 -0.598208	 0.992908
C	 1.415542	 -1.201616	 -1.099972
O	 1.968286	 -0.725612	 -0.000027
O	 2.040479	 -1.494525	 -2.063735
C	 3.373556	 -0.568203	 0.000011
H	 3.695416	 -0.031588	 -0.879663
H	 3.782700	 -1.565294	 -0.000152
H	 3.695405	 -0.031851	 0.879862

	symmetry c1
}
set optking {
	frozen_dihedral = ("
		12 13 15 16
	")
}

ee,wfn = optimize('scf', return_wfn=True)
oeprop( wfn, 'DIPOLE', 'QUADRUPOLE', 'MULLIKEN_CHARGES')
f=open( 'psi4out.xyz', 'w' )
f.write( "18  " )
f.write( str(ee) + "\n" )
f.write( MOL.save_string_xyz() )
f.close()
--------------------------------------------------------------------------

    Molecular point group: c1
  Charge       = 0
  Multiplicity = 1
  Basis Set: CC-PVTZ
  Basis Set:
  @DF-RHF Final Energy:  -457.50858665442513
    Total Energy =                       -457.5085866544249029
    Molecular point group: c1
  Basis Set: CC-PVTZ
  Basis Set:
  Basis Set: CC-PVTZ
  Basis Set:
  @DF-RHF Final Energy:  -457.50970987022924
    Total Energy =                       -457.5097098702292442
  Basis Set: CC-PVTZ
  Basis Set:
  Basis Set: CC-PVTZ
  Basis Set:
  @DF-RHF Final Energy:  -457.50973784584050
    Total Energy =                       -457.5097378458405046
  Basis Set: CC-PVTZ
  Basis Set:
  Basis Set: CC-PVTZ
  Basis Set:
  @DF-RHF Final Energy:  -457.50993348598740
    Total Energy =                       -457.5099334859870623
  Basis Set: CC-PVTZ
  Basis Set:
  Basis Set: CC-PVTZ
  Basis Set:
  @DF-RHF Final Energy:  -457.51006879021315
    Total Energy =                       -457.5100687902133814
  Basis Set: CC-PVTZ
  Basis Set:
  Basis Set: CC-PVTZ
  Basis Set:
  @DF-RHF Final Energy:  -457.51006906856560
    Total Energy =                       -457.5100690685660538
  Basis Set: CC-PVTZ
  Basis Set:
  Charge       = 0
  Multiplicity = 1
  Basis Set: CC-PVTZ
  Basis Set:

    Orbital Energies (a.u.)
    -----------------------

    Doubly Occupied:

       1A    -20.600935     2A    -20.534448     3A    -11.371896
       4A    -11.281162     5A    -11.245001     6A    -11.243507
       7A    -11.242708     8A    -11.240060     9A    -11.236074
      10A    -11.235314    11A     -1.476908    12A     -1.368547
      13A     -1.170799    14A     -1.051864    15A     -1.029066
      16A     -0.980624    17A     -0.863221    18A     -0.838481
      19A     -0.781305    20A     -0.745120    21A     -0.687968
      22A     -0.681456    23A     -0.676424    24A     -0.634155
      25A     -0.630105    26A     -0.601323    27A     -0.587854
      28A     -0.565085    29A     -0.531778    30A     -0.520365
      31A     -0.509498    32A     -0.502248    33A     -0.463884
      34A     -0.449486    35A     -0.350230    36A     -0.346265

  @DF-RHF Final Energy:  -457.51006973929429

   => Energetics <=

    Nuclear Repulsion Energy =            494.0096604146899608
    One-Electron Energy =               -1602.4891388689197811
    Two-Electron Energy =                 650.9694087149359802
    DFT Exchange-Correlation Energy =       0.0000000000000000
    Empirical Dispersion Energy =           0.0000000000000000
    PCM Polarization Energy =               0.0000000000000000
    EFP Energy =                            0.0000000000000000
    Total Energy =                       -457.5100697392938400
    Molecular point group: c1
  Basis Set: CC-PVTZ
  Basis Set:

  -Total Gradient:
     Atom            X                  Y                   Z
    ------   -----------------  -----------------  -----------------
       1        0.000000294837    -0.000000174590     0.000000130142
       2        0.000000302851    -0.000000278662    -0.000002120466
       3        0.000000628508    -0.000001760617    -0.000000832848
       4        0.000005355084     0.000003020117     0.000001363850
       5       -0.000000335857     0.000000405525    -0.000000811477
       6       -0.000003216395     0.000001254492     0.000001632169
       7       -0.000000218497    -0.000000501692     0.000000662610
       8       -0.000008323053    -0.000002651230     0.000004821042
       9        0.000000167444    -0.000000801879    -0.000000913392
      10       -0.000003763090     0.000000047005    -0.000003111352
      11       -0.000001160380     0.000000597412    -0.000000496867
      12       -0.000102466090     0.000763380761    -0.000300090765
      13        0.000209308200    -0.001311663066     0.000279751195
      14       -0.000001022212     0.000003163713     0.000010645838
      15       -0.000184246657     0.001371418256     0.000497730694
      16        0.000099307452    -0.000823623407    -0.000487804712
      17       -0.000001841246     0.000003565290     0.000001088294
      18       -0.000008770897    -0.000005397431    -0.000001643957

  **** Optimization is complete! (in 7 steps) ****
    Final optimized geometry and variables:
    Molecular point group: c1

    Geometry (in Angstrom), charge = 0, multiplicity = 1:

    H           -4.023978479841    -0.456087934645     0.014732266899
    C           -2.956648366782    -0.348348794849    -0.023339443671
    C           -2.268301109801    -0.698269199158    -1.171232383995
    C           -2.273916927057     0.139512524432     1.074718761926
    H           -2.798839555035    -1.076991988035    -2.023239548180
    C           -0.896854260920    -0.559667757130    -1.219437349380
    H           -2.808423342078     0.410578035711     1.964530995750
    C           -0.900511883150     0.278964365553     1.027946627852
    H           -0.348361651680    -0.825916672561    -2.100024567022
    C           -0.207922297007    -0.070499122237    -0.120266826253
    H           -0.368956244887     0.656462385004     1.876811905124
    C            1.274069520167     0.060612890188    -0.223219595129
    O            1.829552892815     0.531077401358     0.877576164797
    O            1.895420880306    -0.227465771021    -1.190693694369
    C            3.231965746153     0.710680380791     0.872181938735
    H            3.543227183904     1.262805524874    -0.000595983135
    H            3.732620698145    -0.246911471096     0.877726118692
    H            3.466428025757     1.256325968870     1.771491415763

  Mulliken Charges: (a.u.)
   Center  Symbol    Alpha    Beta     Spin     Total
       1     H     0.42029  0.42029  0.00000  0.15943
       2     C     3.06975  3.06975  0.00000 -0.13949
       3     C     3.07550  3.07550  0.00000 -0.15101
       4     C     3.07493  3.07493  0.00000 -0.14987
       5     H     0.42038  0.42038  0.00000  0.15923
       6     C     3.07590  3.07590  0.00000 -0.15179
       7     H     0.42189  0.42189  0.00000  0.15623
       8     C     3.08211  3.08211  0.00000 -0.16421
       9     H     0.40665  0.40665  0.00000  0.18670
      10     C     3.01297  3.01297  0.00000 -0.02593
      11     H     0.41105  0.41105  0.00000  0.17790
      12     C     2.78163  2.78163  0.00000  0.43675
      13     O     4.14848  4.14848  0.00000 -0.29696
      14     O     4.21140  4.21140  0.00000 -0.42280
      15     C     3.03687  3.03687  0.00000 -0.07373
      16     H     0.45035  0.45035  0.00000  0.09930
      17     H     0.45441  0.45441  0.00000  0.09117
      18     H     0.44545  0.44545  0.00000  0.10910

   Total alpha = 36.00000, Total beta = 36.00000, Total charge =  0.00000

*** Psi4 exiting successfully. Buy a developer a beer!
