  ==> Input File <==

--------------------------------------------------------------------------
set {
	reference rhf
	basis 6-31G*
}

set_num_threads( 4 )
memory 2 gb

molecule MOL {
0 1

H	 -1.488957	 -1.846925	 -1.183746
N	 -0.787443	 -1.135235	 -1.253417
C	 -0.563778	 -0.502042	 0.037919
H	 -1.120045	 -0.464998	 -1.920436
C	 0.575259	 0.508231	 -0.048326
H	 -0.297806	 -1.280921	 0.746299
H	 -1.454603	 -0.008773	 0.435235
C	 1.954651	 -0.143624	 0.035137
H	 0.475158	 1.060484	 -0.977307
H	 0.469181	 1.234488	 0.755973
H	 2.103292	 -0.853109	 -0.774172
H	 2.742821	 0.599562	 -0.030094
H	 2.083613	 -0.679371	 0.971560

	symmetry c1
}
set optking {
	frozen_dihedral = ("
		6 3 5 9
	")
}

ee = optimize('scf')
oeprop('DIPOLE', 'QUADRUPOLE', 'MULLIKEN_CHARGES')
f=open( 'psi4out.xyz', 'w' )
f.write( "13  " )
f.write( str(ee) + "\n" )
f.write( MOL.save_string_xyz() )
f.close()
--------------------------------------------------------------------------

    Molecular point group: c1
  Charge       = 0
  Multiplicity = 1
  Basis Set: 6-31G*
  Basis Set:
  @DF-RHF Final Energy:  -173.28058574016427
    Total Energy =                       -173.2805857401643266
    Molecular point group: c1
  Basis Set: 6-31G*
  Basis Set:
  Basis Set: 6-31G*
  Basis Set:
  @DF-RHF Final Energy:  -173.28094378047015
    Total Energy =                       -173.2809437804701247
  Basis Set: 6-31G*
  Basis Set:
  Basis Set: 6-31G*
  Basis Set:
  @DF-RHF Final Energy:  -173.28102497733403
    Total Energy =                       -173.2810249773340843
  Basis Set: 6-31G*
  Basis Set:
  Basis Set: 6-31G*
  Basis Set:
  @DF-RHF Final Energy:  -173.28102649809188
    Total Energy =                       -173.2810264980919044
  Basis Set: 6-31G*
  Basis Set:
  Charge       = 0
  Multiplicity = 1
  Basis Set: 6-31G*
  Basis Set:

    Orbital Energies (a.u.)
    -----------------------

    Doubly Occupied:

       1A    -15.533418     2A    -11.240554     3A    -11.211948
       4A    -11.199689     5A     -1.177037     6A     -1.028680
       7A     -0.898651     8A     -0.794408     9A     -0.661236
      10A     -0.631723    11A     -0.599297    12A     -0.557152
      13A     -0.528484    14A     -0.487583    15A     -0.474754
      16A     -0.467704    17A     -0.380796

  @DF-RHF Final Energy:  -173.28102695877857

   => Energetics <=

    Nuclear Repulsion Energy =            133.4046251373076188
    One-Electron Energy =                -497.6250712868747996
    Two-Electron Energy =                 190.9394191907886125
    DFT Exchange-Correlation Energy =       0.0000000000000000
    Empirical Dispersion Energy =           0.0000000000000000
    PCM Polarization Energy =               0.0000000000000000
    EFP Energy =                            0.0000000000000000
    Total Energy =                       -173.2810269587785683
    Molecular point group: c1
  Basis Set: 6-31G*
  Basis Set:

  -Total Gradient:
     Atom            X                  Y                   Z
    ------   -----------------  -----------------  -----------------
       1        0.000002296631     0.000001879445    -0.000009762448
       2       -0.000027745908    -0.000023250143    -0.000008138986
       3       -0.001389302989     0.001793370578     0.002836841255
       4        0.000002673144    -0.000004606578     0.000024439687
       5       -0.002141996775     0.002529964615     0.001391077218
       6        0.001506603739    -0.001854446675    -0.002646710249
       7        0.000016325671    -0.000004384342     0.000005390246
       8        0.000025899278    -0.000021722360     0.000007055174
       9        0.002003018364    -0.002421381575    -0.001612972188
      10       -0.000007884951     0.000007027817     0.000004840510
      11       -0.000002061139    -0.000010381186     0.000008843425
      12       -0.000001833674     0.000002824935     0.000003406368
      13        0.000014008607     0.000005105466    -0.000004310013

  **** Optimization is complete! (in 5 steps) ****
    Final optimized geometry and variables:
    Molecular point group: c1

    Geometry (in Angstrom), charge = 0, multiplicity = 1:

    H           -1.692960649648    -1.548806274986    -0.870633847300
    N           -1.030508359616    -0.799921186234    -0.931217331148
    C           -0.853438207560    -0.156027761347     0.365350364174
    H           -1.389589441427    -0.147229534098    -1.601818377477
    C            0.297665738767     0.850518218156     0.304611188006
    H           -0.605743905586    -0.943497601483     1.070395643526
    H           -1.759686613063     0.333995622464     0.724735372266
    C            1.671363747696     0.180347005120     0.342566231370
    H            0.217657566662     1.414135814698    -0.622597915621
    H            0.208190274374     1.560453574925     1.122477478432
    H            1.760065944321    -0.550567883634    -0.452816812864
    H            2.467052688390     0.909889292949     0.224375610661
    H            1.830104000005    -0.330527647514     1.288547767075

  Mulliken Charges: (a.u.)
   Center  Symbol    Alpha    Beta     Spin     Total
       1     H     0.33219  0.33219  0.00000  0.33561
       2     N     3.92150  3.92150  0.00000 -0.84300
       3     C     3.06619  3.06619  0.00000 -0.13238
       4     H     0.33512  0.33512  0.00000  0.32976
       5     C     3.14963  3.14963  0.00000 -0.29926
       6     H     0.42040  0.42040  0.00000  0.15921
       7     H     0.43105  0.43105  0.00000  0.13790
       8     C     3.24131  3.24131  0.00000 -0.48262
       9     H     0.42460  0.42460  0.00000  0.15079
      10     H     0.42313  0.42313  0.00000  0.15374
      11     H     0.40717  0.40717  0.00000  0.18566
      12     H     0.42254  0.42254  0.00000  0.15491
      13     H     0.42517  0.42517  0.00000  0.14966

   Total alpha = 17.00000, Total beta = 17.00000, Total charge =  0.00000
