  ==> Input File <==

--------------------------------------------------------------------------
set {
	reference rhf
	basis 6-31G*
}

set_num_threads( 4 )
memory 2 gb

molecule MOL {
0 1

O	 -1.635736	 -2.520617	 0.196514
C	 -1.143642	 -1.963894	 -0.737476
C	 -0.889235	 -0.467034	 -0.705952
C	 -0.720925	 -2.717749	 -1.978600
C	 0.379448	 -0.143569	 0.099626
H	 -1.746220	 0.002354	 -0.235255
H	 -0.799256	 -0.073271	 -1.714356
C	 1.631333	 -0.777471	 -0.511575
H	 0.482768	 0.934507	 0.149241
H	 0.263088	 -0.495696	 1.123449
C	 2.915987	 -0.544314	 0.291766
H	 1.766672	 -0.399098	 -1.523130
H	 1.471257	 -1.849544	 -0.605828
C	 3.373361	 0.914346	 0.347591
H	 3.708709	 -1.142521	 -0.150311
H	 2.780642	 -0.921148	 1.303579
H	 3.506512	 1.320010	 -0.651625
H	 4.322697	 0.999599	 0.867103
H	 2.660624	 1.545032	 0.868198
H	 -1.336299	 -2.410288	 -2.820055
H	 -0.832911	 -3.781541	 -1.821788
H	 0.309426	 -2.488910	 -2.235141

	symmetry c1
}
set optking {
	frozen_dihedral = ("
		6 3 5 8
	")
}

ee = optimize('scf')
oeprop('DIPOLE', 'QUADRUPOLE', 'MULLIKEN_CHARGES')
f=open( 'psi4out.xyz', 'w' )
f.write( "22  " )
f.write( str(ee) + "\n" )
f.write( MOL.save_string_xyz() )
f.close()
--------------------------------------------------------------------------

    Molecular point group: c1
  Charge       = 0
  Multiplicity = 1
  Basis Set: 6-31G*
  Basis Set:
  @DF-RHF Final Energy:  -348.09443435209488
    Total Energy =                       -348.0944343520944813
    Molecular point group: c1
  Basis Set: 6-31G*
  Basis Set:
  Basis Set: 6-31G*
  Basis Set:
  @DF-RHF Final Energy:  -348.09639760635787
    Total Energy =                       -348.0963976063580390
  Basis Set: 6-31G*
  Basis Set:
  Basis Set: 6-31G*
  Basis Set:
  @DF-RHF Final Energy:  -348.09544933994880
    Total Energy =                       -348.0954493399488001
  Basis Set: 6-31G*
  Basis Set:
  Basis Set: 6-31G*
  Basis Set:
  @DF-RHF Final Energy:  -348.09712003341258
    Total Energy =                       -348.0971200334124660
  Basis Set: 6-31G*
  Basis Set:
  @DF-RHF Final Energy:  -348.09741843652586
    Total Energy =                       -348.0974184365257997
  @DF-RHF Final Energy:  -348.09758850693902
    Total Energy =                       -348.0975885069395872
  @DF-RHF Final Energy:  -348.09771155300729
    Total Energy =                       -348.0977115530076276
  @DF-RHF Final Energy:  -348.09802853558233
    Total Energy =                       -348.0980285355823298
  @DF-RHF Final Energy:  -348.09834952367044
    Total Energy =                       -348.0983495236705494
  @DF-RHF Final Energy:  -348.09895728073758
    Total Energy =                       -348.0989572807374088
  @DF-RHF Final Energy:  -348.09865606860114
    Total Energy =                       -348.0986560686012581
  @DF-RHF Final Energy:  -348.09852036227102
    Total Energy =                       -348.0985203622710742
  @DF-RHF Final Energy:  -348.09825661487878
    Total Energy =                       -348.0982566148789488
  @DF-RHF Final Energy:  -348.09900052950621
    Total Energy =                       -348.0990005295064975
  @DF-RHF Final Energy:  -348.09907607319036
    Total Energy =                       -348.0990760731900764
  @DF-RHF Final Energy:  -348.09910396840218
    Total Energy =                       -348.0991039684023463
  @DF-RHF Final Energy:  -348.09911209104524
    Total Energy =                       -348.0991120910450718
  Basis Set: 6-31G*
  Basis Set:
  @DF-RHF Final Energy:  -348.09912489529842
    Total Energy =                       -348.0991248952983597
  Basis Set: 6-31G*
  Basis Set:
  Basis Set: 6-31G*
  Basis Set:
  @DF-RHF Final Energy:  -348.09913312470781
    Total Energy =                       -348.0991331247078620
  Basis Set: 6-31G*
  Basis Set:
  Basis Set: 6-31G*
  Basis Set:
  @DF-RHF Final Energy:  -348.09913464861097
    Total Energy =                       -348.0991346486111979
  Basis Set: 6-31G*
  Basis Set:
  Charge       = 0
  Multiplicity = 1
  Basis Set: 6-31G*
  Basis Set:

    Orbital Energies (a.u.)
    -----------------------

    Doubly Occupied:

       1A    -20.550119     2A    -11.327179     3A    -11.232698
       4A    -11.228947     5A    -11.218583     6A    -11.212806
       7A    -11.210565     8A    -11.207014     9A     -1.396012
      10A     -1.087849    11A     -1.041810    12A     -1.000308
      13A     -0.933356    14A     -0.854687    15A     -0.781892
      16A     -0.726446    17A     -0.665061    18A     -0.631738
      19A     -0.628883    20A     -0.611196    21A     -0.602230
      22A     -0.581813    23A     -0.559984    24A     -0.548478
      25A     -0.523740    26A     -0.516734    27A     -0.496632
      28A     -0.485704    29A     -0.461496    30A     -0.458376
      31A     -0.448910    32A     -0.399089

  @DF-RHF Final Energy:  -348.09913480476519

   => Energetics <=

    Nuclear Repulsion Energy =            379.0867013037576498
    One-Electron Energy =               -1223.1110003754724858
    Two-Electron Energy =                 495.9251642669495368
    DFT Exchange-Correlation Energy =       0.0000000000000000
    Empirical Dispersion Energy =           0.0000000000000000
    PCM Polarization Energy =               0.0000000000000000
    EFP Energy =                            0.0000000000000000
    Total Energy =                       -348.0991348047652991
    Molecular point group: c1
  Basis Set: 6-31G*
  Basis Set:

  -Total Gradient:
     Atom            X                  Y                   Z
    ------   -----------------  -----------------  -----------------
       1        0.000000817842     0.000002620063     0.000002625507
       2        0.000002817517    -0.000004141624    -0.000001690089
       3        0.000521307911     0.002298430725    -0.001755193541
       4        0.000001996386     0.000005214888    -0.000000982077
       5        0.000431152795     0.001941196207    -0.001485151716
       6       -0.000552019450    -0.002442421478     0.001866833137
       7       -0.000002566836    -0.000000895987     0.000001648516
       8       -0.000401352288    -0.001791579659     0.001369397411
       9       -0.000001204552    -0.000002421680    -0.000001624060
      10       -0.000000812538    -0.000000862969     0.000000775513
      11       -0.000003548808    -0.000001162718     0.000003484875
      12       -0.000002723263    -0.000002589761    -0.000000145710
      13       -0.000001402375    -0.000001225511    -0.000002595249
      14        0.000004769741    -0.000002224754    -0.000000458569
      15        0.000000785391     0.000005643771     0.000000279449
      16        0.000003750243    -0.000000372751     0.000002442088
      17        0.000000670972     0.000000578506     0.000000069978
      18        0.000000915331     0.000002844266     0.000000934325
      19        0.000000390956    -0.000004435690    -0.000000744791
      20       -0.000003128790    -0.000000562094    -0.000001649995
      21       -0.000000238078    -0.000000225477    -0.000001152850
      22       -0.000000378103    -0.000001406275     0.000002897848

  **** Optimization is complete! (in 21 steps) ****
    Final optimized geometry and variables:
    Molecular point group: c1

    Geometry (in Angstrom), charge = 0, multiplicity = 1:

    O           -1.180989287712    -1.794140274133     0.379940868249
    C           -1.512506239337    -1.098666056191    -0.531231165751
    C           -1.248644800358     0.398488062378    -0.546208257852
    C           -2.261075885712    -1.660695166280    -1.720924824259
    C           -0.137089952299     0.868314519047     0.393787687226
    H           -2.195928547436     0.844157621736    -0.241044553049
    H           -1.069056730172     0.726454731375    -1.566842322342
    C            1.244445327573     0.299552201949     0.054893152868
    H           -0.114455374338     1.953329967460     0.363786832946
    H           -0.397341580394     0.586034377877     1.408912189054
    C            2.357738704864     0.748916300647     1.008525880191
    H            1.512923595448     0.583288501199    -0.963063453962
    H            1.192522216249    -0.782687921620     0.075158154892
    C            2.686627542422     2.241912429022     0.950806715299
    H            3.257179129689     0.185573663364     0.772929464712
    H            2.088034674220     0.475617157107     2.026269175165
    H            2.948792050233     2.545262933623    -0.059471347344
    H            3.529857018208     2.475506829404     1.593595563074
    H            1.853126840696     2.856361342267     1.274966702434
    H           -3.134775069420    -1.058549805038    -1.951182936266
    H           -2.559231595928    -2.680280408395    -1.519875869945
    H           -1.617189466413    -1.642122881908    -2.596234646432

  Mulliken Charges: (a.u.)
   Center  Symbol    Alpha    Beta     Spin     Total
       1     O     4.26424  4.26424  0.00000 -0.52849
       2     C     2.73467  2.73467  0.00000  0.53065
       3     C     3.21022  3.21022  0.00000 -0.42044
       4     C     3.28762  3.28762  0.00000 -0.57525
       5     C     3.15146  3.15146  0.00000 -0.30292
       6     H     0.40411  0.40411  0.00000  0.19178
       7     H     0.41266  0.41266  0.00000  0.17468
       8     C     3.15965  3.15965  0.00000 -0.31931
       9     H     0.41852  0.41852  0.00000  0.16296
      10     H     0.40950  0.40950  0.00000  0.18100
      11     C     3.15345  3.15345  0.00000 -0.30690
      12     H     0.42958  0.42958  0.00000  0.14084
      13     H     0.40564  0.40564  0.00000  0.18871
      14     C     3.24137  3.24137  0.00000 -0.48274
      15     H     0.42053  0.42053  0.00000  0.15895
      16     H     0.42014  0.42014  0.00000  0.15972
      17     H     0.42335  0.42335  0.00000  0.15330
      18     H     0.41897  0.41897  0.00000  0.16207
      19     H     0.42117  0.42117  0.00000  0.15766
      20     H     0.41002  0.41002  0.00000  0.17997
      21     H     0.39681  0.39681  0.00000  0.20637
      22     H     0.40631  0.40631  0.00000  0.18737

   Total alpha = 32.00000, Total beta = 32.00000, Total charge =  0.00000
