  ==> Input File <==

--------------------------------------------------------------------------
set {
	reference rhf
	basis cc-pvtz
}

set_num_threads( 4 )
memory 2 gb

molecule MOL {
0 1

H	 -3.642953	 0.223825	 0.000000
C	 -2.571844	 0.155001	 0.000000
C	 -1.957580	 -1.086132	 0.000000
C	 -1.807160	 1.303787	 0.000000
H	 -2.551493	 -1.979629	 0.000000
C	 -0.582719	 -1.174294	 0.000000
H	 -2.279934	 2.266806	 0.000000
C	 -0.427220	 1.213406	 0.000000
H	 -0.094904	 -2.127556	 0.000000
C	 0.196908	 -0.024061	 0.000000
H	 0.151409	 2.115254	 0.000000
C	 1.690041	 -0.173233	 0.000000
C	 2.320216	 -1.253246	 0.849183
O	 2.369155	 0.547969	 -0.658811
H	 2.073686	 -1.111975	 1.894767
H	 3.390116	 -1.208459	 0.722542
H	 1.961788	 -2.232007	 0.553319

	symmetry c1
}
set optking {
	frozen_dihedral = ("
		13 12 10 8
	")
}

ee = optimize('scf')
oeprop('DIPOLE', 'QUADRUPOLE', 'MULLIKEN_CHARGES')
f=open( 'psi4out.xyz', 'w' )
f.write( "17  " )
f.write( str(ee) + "\n" )
f.write( MOL.save_string_xyz() )
f.close()
--------------------------------------------------------------------------

    Molecular point group: c1
  Charge       = 0
  Multiplicity = 1
  Basis Set: CC-PVTZ
  Basis Set:
  @DF-RHF Final Energy:  -382.60107408122104
    Total Energy =                       -382.6010740812207587
    Molecular point group: c1
  Basis Set: CC-PVTZ
  Basis Set:
  Basis Set: CC-PVTZ
  Basis Set:
  @DF-RHF Final Energy:  -382.60083126419829
    Total Energy =                       -382.6008312641982911
  Basis Set: CC-PVTZ
  Basis Set:
  Basis Set: CC-PVTZ
  Basis Set:
  @DF-RHF Final Energy:  -382.60179755801119
    Total Energy =                       -382.6017975580114125
  Basis Set: CC-PVTZ
  Basis Set:
  Basis Set: CC-PVTZ
  Basis Set:
  @DF-RHF Final Energy:  -382.60286297651840
    Total Energy =                       -382.6028629765185087
  Basis Set: CC-PVTZ
  Basis Set:
  Basis Set: CC-PVTZ
  Basis Set:
  @DF-RHF Final Energy:  -382.60287443042597
    Total Energy =                       -382.6028744304256861
  Basis Set: CC-PVTZ
  Basis Set:
  Basis Set: CC-PVTZ
  Basis Set:
  @DF-RHF Final Energy:  -382.60287604585051
    Total Energy =                       -382.6028760458502802
  Basis Set: CC-PVTZ
  Basis Set:
  Charge       = 0
  Multiplicity = 1
  Basis Set: CC-PVTZ
  Basis Set:

    Orbital Energies (a.u.)
    -----------------------

    Doubly Occupied:

       1A    -20.542688     2A    -11.328493     3A    -11.245756
       4A    -11.243969     5A    -11.242376     6A    -11.239958
       7A    -11.239293     8A    -11.237434     9A    -11.229844
      10A     -1.403513    11A     -1.171385    12A     -1.053664
      13A     -1.030645    14A     -0.999700    15A     -0.864105
      16A     -0.840123    17A     -0.764333    18A     -0.710610
      19A     -0.661566    20A     -0.651445    21A     -0.627755
      22A     -0.618880    23A     -0.603379    24A     -0.594056
      25A     -0.559409    26A     -0.530402    27A     -0.519002
      28A     -0.505578    29A     -0.496734    30A     -0.414414
      31A     -0.350012    32A     -0.347200

  @DF-RHF Final Energy:  -382.60287634846458

   => Energetics <=

    Nuclear Repulsion Energy =            404.2633567588537176
    One-Electron Energy =               -1319.9970201374994758
    Two-Electron Energy =                 533.1307870301807270
    DFT Exchange-Correlation Energy =       0.0000000000000000
    Empirical Dispersion Energy =           0.0000000000000000
    PCM Polarization Energy =               0.0000000000000000
    EFP Energy =                            0.0000000000000000
    Total Energy =                       -382.6028763484650881
    Molecular point group: c1
  Basis Set: CC-PVTZ
  Basis Set:

  -Total Gradient:
     Atom            X                  Y                   Z
    ------   -----------------  -----------------  -----------------
       1       -0.000003360353    -0.000007008879     0.000006840755
       2        0.000020024975     0.000051342684    -0.000007376550
       3        0.000042934714    -0.000028058983     0.000000295838
       4       -0.000041100477    -0.000008040825    -0.000006447027
       5       -0.000006172085     0.000008104629     0.000001860486
       6       -0.000060220855    -0.000030529565    -0.000006358195
       7       -0.000000704735    -0.000002237224    -0.000002390906
       8       -0.000019839736    -0.000024999926     0.003318194749
       9        0.000001979880     0.000012923677    -0.000003832679
      10        0.000093608721     0.000945080041    -0.003623547701
      11        0.000000951615    -0.000001865862    -0.000002340961
      12       -0.000083790965    -0.002832592455    -0.002041604550
      13        0.000082025811     0.001929942189     0.002344537004
      14       -0.000028749803    -0.000002187139     0.000011322242
      15        0.000006209628     0.000003097733    -0.000003899216
      16       -0.000002462128    -0.000009374430     0.000011770432
      17       -0.000001334203    -0.000003595667     0.000002976282

  **** Optimization is complete! (in 7 steps) ****
    Final optimized geometry and variables:
    Molecular point group: c1

    Geometry (in Angstrom), charge = 0, multiplicity = 1:

    H           -3.631236799434     0.323721977405     0.000032621614
    C           -2.562374428709     0.227852921450    -0.013531383265
    C           -1.981504294260    -1.025133454363    -0.018177182130
    C           -1.765684657477     1.358865215646    -0.023237906648
    H           -2.596519366631    -1.904308762365    -0.013104531865
    C           -0.604779370274    -1.148183824691    -0.021121733100
    H           -2.214877648630     2.333223275482    -0.012767654237
    C           -0.391962424414     1.235386279634    -0.050051275538
    H           -0.166915982043    -2.127155657353    -0.013649766791
    C            0.198756131691    -0.019877461579    -0.054533432125
    H            0.233318544871     2.105499140010    -0.073839039805
    C            1.698113555637    -0.100687425178    -0.041636526122
    C            2.348899418993    -1.164332499447     0.811879176349
    O            2.350552822190     0.700541346772    -0.628773228634
    H            1.997310355860    -1.080119939148     1.833304327313
    H            3.419610064564    -1.036963619056     0.776906423921
    H            2.095610440770    -2.157940205418     0.462061050632

  Mulliken Charges: (a.u.)
   Center  Symbol    Alpha    Beta     Spin     Total
       1     H     0.42069  0.42069  0.00000  0.15862
       2     C     3.07783  3.07783  0.00000 -0.15565
       3     C     3.07009  3.07009  0.00000 -0.14017
       4     C     3.06960  3.06960  0.00000 -0.13919
       5     H     0.42177  0.42177  0.00000  0.15647
       6     C     3.08969  3.08969  0.00000 -0.17938
       7     H     0.42072  0.42072  0.00000  0.15856
       8     C     3.08518  3.08518  0.00000 -0.17036
       9     H     0.42369  0.42369  0.00000  0.15263
      10     C     2.98468  2.98468  0.00000  0.03064
      11     H     0.41148  0.41148  0.00000  0.17705
      12     C     2.86028  2.86028  0.00000  0.27944
      13     C     3.15840  3.15840  0.00000 -0.31681
      14     O     4.17579  4.17579  0.00000 -0.35158
      15     H     0.44506  0.44506  0.00000  0.10988
      16     H     0.43411  0.43411  0.00000  0.13178
      17     H     0.45096  0.45096  0.00000  0.09808

   Total alpha = 32.00000, Total beta = 32.00000, Total charge = -0.00000
