  ==> Input File <==

--------------------------------------------------------------------------
set {
	reference rhf
	basis 6-31G*
}

set_num_threads( 1 )
memory 2 gb

molecule MOL {
0 1

H	 -2.172150	 0.880146	 0.502514
C	 -2.018062	 -0.000025	 -0.114509
O	 -0.774054	 0.001095	 -0.743181
H	 -2.760490	 0.003458	 -0.901350
H	 -2.173624	 -0.884374	 0.496163
C	 -0.620631	 0.649419	 -1.993248
C	 0.852366	 0.433720	 -2.333492
C	 -1.504405	 0.001472	 -3.063901
C	 -0.916395	 2.148256	 -1.878673
H	 1.071214	 -0.626680	 -2.389065
H	 1.480660	 0.867110	 -1.563561
H	 1.104761	 0.890410	 -3.285013
H	 -1.339779	 -1.070600	 -3.088190
H	 -1.266760	 0.405514	 -4.042613
H	 -2.559467	 0.180695	 -2.887045
H	 -0.338450	 2.584379	 -1.070695
H	 -0.650754	 2.655350	 -2.800531
H	 -1.966636	 2.345024	 -1.691835

	symmetry c1
}
set optking {
	frozen_dihedral = ("
		2 3 6 7
	")
}

ee = energy('scf')
oeprop('DIPOLE', 'QUADRUPOLE', 'MULLIKEN_CHARGES')
f=open( 'psi4out.xyz', 'w' )
f.write( "18  " )
f.write( str(ee) + "\n" )
f.write( MOL.save_string_xyz() )
f.close()
--------------------------------------------------------------------------

    Molecular point group: c1

    Geometry (in Angstrom), charge = 0, multiplicity = 1:

       Center              X                  Y                   Z               Mass
    ------------   -----------------  -----------------  -----------------  -----------------
           H         -1.326089421251     0.345385101883     2.175734464114     1.007825032070
           C         -1.172001421251    -0.534785898117     1.558711464114    12.000000000000
           O          0.072006578749    -0.533665898117     0.930039464114    15.994914619560
           H         -1.914429421251    -0.531302898117     0.771870464114     1.007825032070
           H         -1.327563421251    -1.419134898117     2.169383464114     1.007825032070
           C          0.225429578749     0.114658101883    -0.320027535886    12.000000000000
           C          1.698426578749    -0.101040898117    -0.660271535886    12.000000000000
           C         -0.658344421251    -0.533288898117    -1.390680535886    12.000000000000
           C         -0.070334421251     1.613495101883    -0.205452535886    12.000000000000
           H          1.917274578749    -1.161440898117    -0.715844535886     1.007825032070
           H          2.326720578749     0.332349101883     0.109659464114     1.007825032070
           H          1.950821578749     0.355649101883    -1.611792535886     1.007825032070
           H         -0.493718421251    -1.605360898117    -1.414969535886     1.007825032070
           H         -0.420699421251    -0.129246898117    -2.369392535886     1.007825032070
           H         -1.713406421251    -0.354065898117    -1.213824535886     1.007825032070
           H          0.507610578749     2.049618101883     0.602525464114     1.007825032070
           H          0.195306578749     2.120589101883    -1.127310535886     1.007825032070
           H         -1.120575421251     1.810263101883    -0.018614535886     1.007825032070

  Charge       = 0
  Multiplicity = 1
  Basis Set: 6-31G*
  Basis Set:

    Orbital Energies (a.u.)
    -----------------------

    Doubly Occupied:

       1A    -20.544346     2A    -11.282531     3A    -11.260505
       4A    -11.209306     5A    -11.208880     6A    -11.203506
       7A     -1.369294     8A     -1.072941     9A     -0.946901
      10A     -0.940202    11A     -0.911542    12A     -0.752579
      13A     -0.654779    14A     -0.645093    15A     -0.640507
      16A     -0.592050    17A     -0.575188    18A     -0.549536
      19A     -0.535575    20A     -0.525165    21A     -0.515278
      22A     -0.489585    23A     -0.486832    24A     -0.435480
      25A     -0.402790

  @DF-RHF Final Energy:  -271.17155478318290

   => Energetics <=

    Nuclear Repulsion Energy =            272.4916539231151660
    One-Electron Energy =                -907.8253648318602700
    Two-Electron Energy =                 364.1621561255620918
    DFT Exchange-Correlation Energy =       0.0000000000000000
    Empirical Dispersion Energy =           0.0000000000000000
    PCM Polarization Energy =               0.0000000000000000
    EFP Energy =                            0.0000000000000000
    Total Energy =                       -271.1715547831830690

  Mulliken Charges: (a.u.)
   Center  Symbol    Alpha    Beta     Spin     Total
       1     H     0.42720  0.42720  0.00000  0.14560
       2     C     3.07501  3.07501  0.00000 -0.15003
       3     O     4.32074  4.32074  0.00000 -0.64148
       4     H     0.43308  0.43308  0.00000  0.13383
       5     H     0.41507  0.41507  0.00000  0.16986
       6     C     2.84444  2.84444  0.00000  0.31112
       7     C     3.23263  3.23263  0.00000 -0.46527
       8     C     3.24797  3.24797  0.00000 -0.49593
       9     C     3.24605  3.24605  0.00000 -0.49211
      10     H     0.41396  0.41396  0.00000  0.17209
      11     H     0.41381  0.41381  0.00000  0.17237
      12     H     0.42522  0.42522  0.00000  0.14957
      13     H     0.41276  0.41276  0.00000  0.17447
      14     H     0.41909  0.41909  0.00000  0.16182
      15     H     0.41925  0.41925  0.00000  0.16149
      16     H     0.41310  0.41310  0.00000  0.17380
      17     H     0.41992  0.41992  0.00000  0.16015
      18     H     0.42068  0.42068  0.00000  0.15863

   Total alpha = 25.00000, Total beta = 25.00000, Total charge = -0.00000
