  ==> Input File <==

--------------------------------------------------------------------------
set {
	reference rhf
	basis 6-31G*
}

set_num_threads( 1 )
memory 2 gb

molecule MOL {
0 1

O	 -0.097949	 -1.724074	 -2.545143
C	 -0.558309	 -0.688266	 -2.171506
C	 -0.889235	 -0.467034	 -0.705952
C	 -0.804178	 0.460720	 -3.123743
C	 0.379448	 -0.143569	 0.099626
H	 -1.334788	 -1.380726	 -0.327858
H	 -1.614223	 0.334214	 -0.594505
C	 1.631333	 -0.777471	 -0.511575
H	 0.482768	 0.934507	 0.149241
H	 0.263088	 -0.495696	 1.123449
C	 2.915987	 -0.544314	 0.291766
H	 1.766672	 -0.399098	 -1.523130
H	 1.471257	 -1.849544	 -0.605828
C	 3.373361	 0.914346	 0.347591
H	 3.708709	 -1.142521	 -0.150311
H	 2.780642	 -0.921148	 1.303579
H	 3.506512	 1.320010	 -0.651625
H	 4.322697	 0.999599	 0.867103
H	 2.660624	 1.545032	 0.868198
H	 -1.872017	 0.646652	 -3.203827
H	 -0.406904	 0.223363	 -4.100790
H	 -0.347508	 1.373155	 -2.751293

	symmetry c1
}
set optking {
	frozen_dihedral = ("
		6 3 2 1,
		3 5 8 12,
		12 8 11 15
	")
}

ee = energy('scf')
oeprop('DIPOLE', 'QUADRUPOLE', 'MULLIKEN_CHARGES')
f=open( 'psi4out.xyz', 'w' )
f.write( "22  " )
f.write( str(ee) + "\n" )
f.write( MOL.save_string_xyz() )
f.close()
--------------------------------------------------------------------------

    Molecular point group: c1

    Geometry (in Angstrom), charge = 0, multiplicity = 1:

       Center              X                  Y                   Z               Mass
    ------------   -----------------  -----------------  -----------------  -----------------
           O         -0.856220247000    -1.361893792260    -1.496388602773    15.994914619560
           C         -1.316580247000    -0.326085792260    -1.122751602773    12.000000000000
           C         -1.647506247000    -0.104853792260     0.342802397227    12.000000000000
           C         -1.562449247000     0.822900207740    -2.074988602773    12.000000000000
           C         -0.378823247000     0.218611207740     1.148380397227    12.000000000000
           H         -2.093059247000    -1.018545792260     0.720896397227     1.007825032070
           H         -2.372494247000     0.696394207740     0.454249397227     1.007825032070
           C          0.873061753000    -0.415290792260     0.537179397227    12.000000000000
           H         -0.275503247000     1.296687207740     1.197995397227     1.007825032070
           H         -0.495183247000    -0.133515792260     2.172203397227     1.007825032070
           C          2.157715753000    -0.182133792260     1.340520397227    12.000000000000
           H          1.008400753000    -0.036917792260    -0.474375602773     1.007825032070
           H          0.712985753000    -1.487363792260     0.442926397227     1.007825032070
           C          2.615089753000     1.276526207740     1.396345397227    12.000000000000
           H          2.950437753000    -0.780340792260     0.898443397227     1.007825032070
           H          2.022370753000    -0.558967792260     2.352333397227     1.007825032070
           H          2.748240753000     1.682190207740     0.397129397227     1.007825032070
           H          3.564425753000     1.361779207740     1.915857397227     1.007825032070
           H          1.902352753000     1.907212207740     1.916952397227     1.007825032070
           H         -2.630288247000     1.008832207740    -2.155072602773     1.007825032070
           H         -1.165175247000     0.585543207740    -3.052035602773     1.007825032070
           H         -1.105779247000     1.735335207740    -1.702538602773     1.007825032070

  Charge       = 0
  Multiplicity = 1
  Basis Set: 6-31G*
  Basis Set:

    Orbital Energies (a.u.)
    -----------------------

    Doubly Occupied:

       1A    -20.546180     2A    -11.324749     3A    -11.228978
       4A    -11.228782     5A    -11.227609     6A    -11.213847
       7A    -11.210646     8A    -11.208725     9A     -1.394349
      10A     -1.093006    11A     -1.041098    12A     -0.998992
      13A     -0.933714    14A     -0.856198    15A     -0.787439
      16A     -0.726791    17A     -0.657418    18A     -0.643822
      19A     -0.627424    20A     -0.615712    21A     -0.597861
      22A     -0.576683    23A     -0.569814    24A     -0.541721
      25A     -0.532645    26A     -0.517917    27A     -0.501610
      28A     -0.482335    29A     -0.460313    30A     -0.456327
      31A     -0.452158    32A     -0.395560

  @DF-RHF Final Energy:  -348.08843990653094

   => Energetics <=

    Nuclear Repulsion Energy =            387.4724899761947086
    One-Electron Energy =               -1239.8209667338069266
    Two-Electron Energy =                 504.2600368510812245
    DFT Exchange-Correlation Energy =       0.0000000000000000
    Empirical Dispersion Energy =           0.0000000000000000
    PCM Polarization Energy =               0.0000000000000000
    EFP Energy =                            0.0000000000000000
    Total Energy =                       -348.0884399065309367

  Mulliken Charges: (a.u.)
   Center  Symbol    Alpha    Beta     Spin     Total
       1     O     4.26269  4.26269  0.00000 -0.52537
       2     C     2.74138  2.74138  0.00000  0.51724
       3     C     3.19692  3.19692  0.00000 -0.39383
       4     C     3.28862  3.28862  0.00000 -0.57725
       5     C     3.16372  3.16372  0.00000 -0.32744
       6     H     0.40046  0.40046  0.00000  0.19908
       7     H     0.41496  0.41496  0.00000  0.17009
       8     C     3.16072  3.16072  0.00000 -0.32143
       9     H     0.41794  0.41794  0.00000  0.16412
      10     H     0.41416  0.41416  0.00000  0.17168
      11     C     3.15258  3.15258  0.00000 -0.30515
      12     H     0.42040  0.42040  0.00000  0.15921
      13     H     0.40350  0.40350  0.00000  0.19300
      14     C     3.24158  3.24158  0.00000 -0.48316
      15     H     0.41851  0.41851  0.00000  0.16299
      16     H     0.42449  0.42449  0.00000  0.15102
      17     H     0.42277  0.42277  0.00000  0.15446
      18     H     0.41869  0.41869  0.00000  0.16261
      19     H     0.42227  0.42227  0.00000  0.15545
      20     H     0.40633  0.40633  0.00000  0.18734
      21     H     0.39725  0.39725  0.00000  0.20550
      22     H     0.41007  0.41007  0.00000  0.17985

   Total alpha = 32.00000, Total beta = 32.00000, Total charge =  0.00000
