                              Psi4 1.0.54 Driver

  ==> Input File <==

--------------------------------------------------------------------------
set {
	reference rhf
	basis cc-pvtz
}

set_num_threads( 4 )
memory 2 gb

molecule MOL {
0 1

H	 1.616875	 -1.768066	 0.973201
C	 0.730279	 -1.189725	 1.171442
O	 0.462329	 -0.453336	 -0.000137
H	 0.915058	 -0.532191	 2.011516
H	 -0.086759	 -1.860355	 1.405842
C	 -0.590565	 0.341382	 0.000062
O	 -1.693898	 -0.053880	 0.000252
H	 -0.340426	 1.403822	 0.000200

	symmetry c1
}
set optking {
	frozen_dihedral = ("
		2 3 6 7
	")
}

ee,wfn = optimize('scf', return_wfn=True)
oeprop( wfn, 'DIPOLE', 'QUADRUPOLE', 'MULLIKEN_CHARGES')
f=open( 'psi4out.xyz', 'w' )
f.write( "8  " )
f.write( str(ee) + "\n" )
f.write( MOL.save_string_xyz() )
f.close()
--------------------------------------------------------------------------

    Molecular point group: c1
  Charge       = 0
  Multiplicity = 1
  Basis Set: CC-PVTZ
  Basis Set:
  @DF-RHF Final Energy:  -227.86094680218253
    Total Energy =                       -227.8609468021825251
    Molecular point group: c1
  Basis Set: CC-PVTZ
  Basis Set:
  Basis Set: CC-PVTZ
  Basis Set:
  @DF-RHF Final Energy:  -227.85627950203863
    Total Energy =                       -227.8562795020387739
  Basis Set: CC-PVTZ
  Basis Set:
  Basis Set: CC-PVTZ
  Basis Set:
  @DF-RHF Final Energy:  -227.86078217871676
    Total Energy =                       -227.8607821787168461
  Basis Set: CC-PVTZ
  Basis Set:
  Basis Set: CC-PVTZ
  Basis Set:
  @DF-RHF Final Energy:  -227.86175157559285
    Total Energy =                       -227.8617515755927911
  Basis Set: CC-PVTZ
  Basis Set:
  Basis Set: CC-PVTZ
  Basis Set:
  @DF-RHF Final Energy:  -227.86177115010184
    Total Energy =                       -227.8617711501019301
  Basis Set: CC-PVTZ
  Basis Set:
  Basis Set: CC-PVTZ
  Basis Set:
  @DF-RHF Final Energy:  -227.86177680155470
    Total Energy =                       -227.8617768015548393
  Basis Set: CC-PVTZ
  Basis Set:
  Charge       = 0
  Multiplicity = 1
  Basis Set: CC-PVTZ
  Basis Set:

    Orbital Energies (a.u.)
    -----------------------

    Doubly Occupied:

       1A    -20.591454     2A    -20.560784     3A    -11.375715
       4A    -11.294024     5A     -1.473178     6A     -1.382925
       7A     -0.989315     8A     -0.829087     9A     -0.741770
      10A     -0.689357    11A     -0.669444    12A     -0.624609
      13A     -0.562678    14A     -0.518494    15A     -0.474265
      16A     -0.459090

  @DF-RHF Final Energy:  -227.86177703666067

   => Energetics <=

    Nuclear Repulsion Energy =            122.4007373151463440
    One-Electron Energy =                -554.0526488680241073
    Two-Electron Energy =                 203.7901345162171083
    DFT Exchange-Correlation Energy =       0.0000000000000000
    Empirical Dispersion Energy =           0.0000000000000000
    PCM Polarization Energy =               0.0000000000000000
    EFP Energy =                            0.0000000000000000
    Total Energy =                       -227.8617770366606692
    Molecular point group: c1
  Basis Set: CC-PVTZ
  Basis Set:

  -Total Gradient:
     Atom            X                  Y                   Z
    ------   -----------------  -----------------  -----------------
       1       -0.000000878026    -0.000007548404     0.000015677513
       2        0.002900611316     0.003956636083     0.001722056265
       3       -0.004385508356    -0.005954012757    -0.005931056416
       4       -0.000008059861     0.000018686989    -0.000027847242
       5        0.000001315832     0.000008214202    -0.000006884947
       6        0.001618324163     0.002026182911     0.011059738123
       7       -0.000114456666    -0.000038912965    -0.006825810809
       8       -0.000011348403    -0.000009246057    -0.000005872487

  **** Optimization is complete! (in 7 steps) ****
    Final optimized geometry and variables:
    Molecular point group: c1

    Geometry (in Angstrom), charge = 0, multiplicity = 1:

    H            1.894692558460    -1.428685803507     0.627203137231
    C            1.043450843310    -0.809719693988     0.857046219178
    O            0.734533042350    -0.093013951348    -0.323951104671
    H            1.301843445011    -0.125991711110     1.656640330629
    H            0.210581440266    -1.429458626849     1.157641046386
    C           -0.356689978585     0.675508266101    -0.306828516869
    O           -1.457163840154     0.272601254302    -0.280390043784
    H           -0.115586245275     1.731987799526    -0.401499848830

  Mulliken Charges: (a.u.)
   Center  Symbol    Alpha    Beta     Spin     Total
       1     H     0.44535  0.44535  0.00000  0.10931
       2     C     3.02332  3.02332  0.00000 -0.04665
       3     O     4.15596  4.15596  0.00000 -0.31192
       4     H     0.46405  0.46405  0.00000  0.07191
       5     H     0.45143  0.45143  0.00000  0.09714
       6     C     2.83012  2.83012  0.00000  0.33976
       7     O     4.16853  4.16853  0.00000 -0.33706
       8     H     0.46124  0.46124  0.00000  0.07751

   Total alpha = 16.00000, Total beta = 16.00000, Total charge =  0.00000

*** Psi4 exiting successfully. Buy a developer a beer!
