  ==> Input File <==

--------------------------------------------------------------------------
set {
	reference rhf
	basis 6-31G*
}

set_num_threads( 4 )
memory 2 gb

molecule MOL {
0 1

H	 -3.808872	 -2.365196	 0.178812
C	 -2.737391	 -2.272035	 0.184544
C	 -1.947533	 -3.389670	 0.408519
C	 -2.150769	 -1.035136	 -0.031990
H	 -2.403758	 -4.348351	 0.576315
C	 -0.569893	 -3.269094	 0.415742
H	 -2.764663	 -0.169886	 -0.205437
C	 -0.771936	 -0.912057	 -0.025204
H	 0.056954	 -4.123071	 0.587379
C	 0.022464	 -2.030285	 0.198978
H	 -0.313730	 0.043161	 -0.192314
C	 1.510589	 -1.953958	 0.216764
O	 1.970282	 -0.730723	 0.000018
O	 2.222814	 -2.889907	 0.405428
C	 3.377318	 -0.566646	 -0.000065
H	 3.695437	 -0.028981	 -0.881264
H	 3.789299	 -1.563704	 0.000236
H	 3.695516	 -0.028316	 0.880770

	symmetry c1
}
set optking {
	frozen_dihedral = ("
		12 13 15 16
	")
}

ee = optimize('scf')
oeprop('DIPOLE', 'QUADRUPOLE', 'MULLIKEN_CHARGES')
f=open( 'psi4out.xyz', 'w' )
f.write( "18  " )
f.write( str(ee) + "\n" )
f.write( MOL.save_string_xyz() )
f.close()
--------------------------------------------------------------------------

    Molecular point group: c1
  Charge       = 0
  Multiplicity = 1
  Basis Set: 6-31G*
  Basis Set:
  @DF-RHF Final Energy:  -457.34646916059381
    Total Energy =                       -457.3464691605937560
    Molecular point group: c1
  Basis Set: 6-31G*
  Basis Set:
  Basis Set: 6-31G*
  Basis Set:
  @DF-RHF Final Energy:  -457.34744328979377
    Total Energy =                       -457.3474432897936595
  Basis Set: 6-31G*
  Basis Set:
  Basis Set: 6-31G*
  Basis Set:
  @DF-RHF Final Energy:  -457.34850543438563
    Total Energy =                       -457.3485054343857428
  Basis Set: 6-31G*
  Basis Set:
  Basis Set: 6-31G*
  Basis Set:
  @DF-RHF Final Energy:  -457.34819200151907
    Total Energy =                       -457.3481920015193509
  Basis Set: 6-31G*
  Basis Set:
  Basis Set: 6-31G*
  Basis Set:
  @DF-RHF Final Energy:  -457.34857104432689
    Total Energy =                       -457.3485710443276275
  Basis Set: 6-31G*
  Basis Set:
  Charge       = 0
  Multiplicity = 1
  Basis Set: 6-31G*
  Basis Set:

    Orbital Energies (a.u.)
    -----------------------

    Doubly Occupied:

       1A    -20.606656     2A    -20.543625     3A    -11.379430
       4A    -11.281459     5A    -11.245082     6A    -11.244896
       7A    -11.243620     8A    -11.241209     9A    -11.237012
      10A    -11.236249    11A     -1.470141    12A     -1.364405
      13A     -1.164746    14A     -1.047766    15A     -1.024324
      16A     -0.979244    17A     -0.859652    18A     -0.833810
      19A     -0.776934    20A     -0.739859    21A     -0.683818
      22A     -0.675174    23A     -0.671481    24A     -0.631225
      25A     -0.623515    26A     -0.597269    27A     -0.584491
      28A     -0.567752    29A     -0.523626    30A     -0.516212
      31A     -0.503841    32A     -0.498107    33A     -0.455391
      34A     -0.444830    35A     -0.344574    36A     -0.340501

  @DF-RHF Final Energy:  -457.34857591899930

   => Energetics <=

    Nuclear Repulsion Energy =            492.5661052853354818
    One-Electron Energy =               -1599.4655086183797721
    Two-Electron Energy =                 649.5508274140456706
    DFT Exchange-Correlation Energy =       0.0000000000000000
    Empirical Dispersion Energy =           0.0000000000000000
    PCM Polarization Energy =               0.0000000000000000
    EFP Energy =                            0.0000000000000000
    Total Energy =                       -457.3485759189986766
    Molecular point group: c1
  Basis Set: 6-31G*
  Basis Set:

  -Total Gradient:
     Atom            X                  Y                   Z
    ------   -----------------  -----------------  -----------------
       1       -0.000000822785     0.000000837808    -0.000000696960
       2       -0.000002243492    -0.000002655383    -0.000000554916
       3       -0.000018139826     0.000000984471     0.000001823919
       4       -0.000008216555    -0.000008584081     0.000002602343
       5       -0.000005596729     0.000000926265    -0.000000256914
       6       -0.000008725308     0.000004331675    -0.000006564256
       7       -0.000005852946    -0.000001170964     0.000001014805
       8       -0.000021255944     0.000012997878    -0.000006556050
       9       -0.000002254225     0.000005977037     0.000000370317
      10       -0.000045160599    -0.000016101468     0.000038027360
      11       -0.000013896215    -0.000017601097     0.000004200416
      12       -0.000029914895    -0.000142328890    -0.000718420321
      13        0.000129104421     0.000047860439     0.000843291240
      14        0.000086034842     0.000121761578     0.000019645121
      15       -0.000185611286     0.000624741622     0.000174417328
      16        0.000076675540    -0.000602447709    -0.000333486592
      17        0.000052044194    -0.000034395248    -0.000000260246
      18        0.000003831808     0.000004866066    -0.000018596596

  **** Optimization is complete! (in 6 steps) ****
    Final optimized geometry and variables:
    Molecular point group: c1

    Geometry (in Angstrom), charge = 0, multiplicity = 1:

    H           -4.030666672339    -0.444939204346    -0.008766616075
    C           -2.958197170238    -0.364676114538     0.000864547756
    C           -2.182442868725    -1.492092665533     0.225021117642
    C           -2.355999821211     0.865500818981    -0.210744479355
    H           -2.650543832226    -2.445722729268     0.389137155287
    C           -0.803539193563    -1.387958413794     0.237330254112
    H           -2.958887622370     1.738443606778    -0.384251447356
    C           -0.975786266062     0.972038557532    -0.198947887849
    H           -0.187909722279    -2.249865991514     0.409291552909
    C           -0.195202716099    -0.155959485388     0.025346054827
    H           -0.506089931661     1.922157743747    -0.362059086710
    C            1.294828253085    -0.099482613099     0.048667472003
    O            1.761720586264     1.123019883822    -0.161608395923
    O            1.987472767373    -1.049777686105     0.237122056473
    C            3.163599034293     1.335771730436    -0.183399273574
    H            3.389368194582     1.892121538436    -1.081509100853
    H            3.693557688133     0.398586872165    -0.181069671812
    H            3.434597981753     1.918655753150     0.685912201838

  Mulliken Charges: (a.u.)
   Center  Symbol    Alpha    Beta     Spin     Total
       1     H     0.39548  0.39548  0.00000  0.20903
       2     C     3.09000  3.09000  0.00000 -0.18001
       3     C     3.10702  3.10702  0.00000 -0.21403
       4     C     3.10708  3.10708  0.00000 -0.21416
       5     H     0.39549  0.39549  0.00000  0.20903
       6     C     3.08657  3.08657  0.00000 -0.17314
       7     H     0.39640  0.39640  0.00000  0.20720
       8     C     3.08692  3.08692  0.00000 -0.17385
       9     H     0.37594  0.37594  0.00000  0.24813
      10     C     3.07792  3.07792  0.00000 -0.15583
      11     H     0.38064  0.38064  0.00000  0.23873
      12     C     2.57944  2.57944  0.00000  0.84113
      13     O     4.31665  4.31665  0.00000 -0.63331
      14     O     4.29127  4.29127  0.00000 -0.58255
      15     C     3.09833  3.09833  0.00000 -0.19667
      16     H     0.41082  0.41082  0.00000  0.17837
      17     H     0.39227  0.39227  0.00000  0.21545
      18     H     0.41176  0.41176  0.00000  0.17648

   Total alpha = 36.00000, Total beta = 36.00000, Total charge =  0.00000
