  ==> Input File <==

--------------------------------------------------------------------------
set {
	reference rhf
	basis 6-31G*
}

set_num_threads( 4 )
memory 2 gb

molecule MOL {
0 1

H	 0.948109	 -0.900333	 -1.028422
O	 1.654024	 -0.625927	 -0.460906
C	 1.135793	 0.118896	 0.612333
C	 0.031547	 1.023609	 0.088541
H	 1.915668	 0.729681	 1.063582
H	 0.754543	 -0.542641	 1.387006
C	 -1.134819	 0.293262	 -0.585751
H	 0.474374	 1.714721	 -0.623187
H	 -0.338529	 1.620940	 0.920081
C	 -1.917817	 -0.639439	 0.339494
H	 -0.758119	 -0.268455	 -1.433105
H	 -1.813832	 1.041889	 -0.986690
H	 -2.777680	 -1.057197	 -0.174994
H	 -1.310268	 -1.471279	 0.680599
H	 -2.283753	 -0.111424	 1.216626

	symmetry c1
}
set optking {
	frozen_dihedral = ("
		1 2 3 4
	")
}

ee = optimize('scf')
oeprop('DIPOLE', 'QUADRUPOLE', 'MULLIKEN_CHARGES')
f=open( 'psi4out.xyz', 'w' )
f.write( "15  " )
f.write( str(ee) + "\n" )
f.write( MOL.save_string_xyz() )
f.close()
--------------------------------------------------------------------------

    Molecular point group: c1
  Charge       = 0
  Multiplicity = 1
  Basis Set: 6-31G*
  Basis Set:
  @DF-RHF Final Energy:  -232.13887193437017
    Total Energy =                       -232.1388719343702860
    Molecular point group: c1
  Basis Set: 6-31G*
  Basis Set:
  Basis Set: 6-31G*
  Basis Set:
  @DF-RHF Final Energy:  -232.14060813297093
    Total Energy =                       -232.1406081329710673
  Basis Set: 6-31G*
  Basis Set:
  Basis Set: 6-31G*
  Basis Set:
  @DF-RHF Final Energy:  -232.14167119275359
    Total Energy =                       -232.1416711927536767
  Basis Set: 6-31G*
  Basis Set:
  Basis Set: 6-31G*
  Basis Set:
  @DF-RHF Final Energy:  -232.14175558346403
    Total Energy =                       -232.1417555834640893
  Basis Set: 6-31G*
  Basis Set:
  Basis Set: 6-31G*
  Basis Set:
  @DF-RHF Final Energy:  -232.14176556080648
    Total Energy =                       -232.1417655608065616
  Basis Set: 6-31G*
  Basis Set:
  Charge       = 0
  Multiplicity = 1
  Basis Set: 6-31G*
  Basis Set:

    Orbital Energies (a.u.)
    -----------------------

    Doubly Occupied:

       1A    -20.550396     2A    -11.266226     3A    -11.228979
       4A    -11.221843     5A    -11.217743     6A     -1.357836
       7A     -1.074792     8A     -0.977405     9A     -0.883295
      10A     -0.791518    11A     -0.685306    12A     -0.646914
      13A     -0.622433    14A     -0.586616    15A     -0.577997
      16A     -0.549240    17A     -0.506120    18A     -0.488215
      19A     -0.482006    20A     -0.460310    21A     -0.427315

  @DF-RHF Final Energy:  -232.14176652259783

   => Energetics <=

    Nuclear Repulsion Energy =            191.4609006284438806
    One-Electron Energy =                -694.0003268029138326
    Two-Electron Energy =                 270.3976596518721749
    DFT Exchange-Correlation Energy =       0.0000000000000000
    Empirical Dispersion Energy =           0.0000000000000000
    PCM Polarization Energy =               0.0000000000000000
    EFP Energy =                            0.0000000000000000
    Total Energy =                       -232.1417665225977771
    Molecular point group: c1
  Basis Set: 6-31G*
  Basis Set:

  -Total Gradient:
     Atom            X                  Y                   Z
    ------   -----------------  -----------------  -----------------
       1        0.000299022727     0.001822228775    -0.001188334689
       2       -0.000847164863    -0.002709694581     0.001422920336
       3        0.001452472471     0.001901396310    -0.000417752377
       4       -0.000902077112    -0.001057096544     0.000109041062
       5       -0.000021947139     0.000057822973     0.000062646684
       6       -0.000007253541    -0.000006911608     0.000023955844
       7        0.000021076469    -0.000044475024     0.000001985634
       8       -0.000008983018     0.000014110040    -0.000003928160
       9        0.000024603634     0.000002124521     0.000007739826
      10        0.000011287620     0.000033050912    -0.000025718062
      11        0.000010312298     0.000001975670     0.000024038675
      12       -0.000032692320    -0.000033990874     0.000005080617
      13       -0.000019020120     0.000021445365     0.000001597375
      14       -0.000007561671    -0.000007545294    -0.000030153075
      15        0.000027924562     0.000005559361     0.000006880311

  **** Optimization is complete! (in 6 steps) ****
    Final optimized geometry and variables:
    Molecular point group: c1

    Geometry (in Angstrom), charge = 0, multiplicity = 1:

    H            1.143888974410    -0.946822300800    -1.033367724086
    O            1.778300113821    -0.635211354494    -0.405069291120
    C            1.138385432910     0.108752793538     0.600235128299
    C            0.025899078257     1.015022289534     0.079515292138
    H            1.908869290705     0.713917736642     1.060729307070
    H            0.753507199813    -0.557624726122     1.369048160571
    C           -1.163537470144     0.300549833093    -0.577623436310
    H            0.458432451831     1.711044481079    -0.634726059587
    H           -0.339629668832     1.609767167390     0.914244103166
    C           -1.936640207738    -0.637174391727     0.351398782998
    H           -0.834164983165    -0.251618489376    -1.456651625206
    H           -1.841975364839     1.059518183054    -0.956783230461
    H           -2.813848915852    -1.035399422717    -0.148431366620
    H           -1.334692566458    -1.480803312831     0.672991052344
    H           -2.272951418535    -0.113180601745     1.241637371625

  Mulliken Charges: (a.u.)
   Center  Symbol    Alpha    Beta     Spin     Total
       1     H     0.27853  0.27853  0.00000  0.44295
       2     O     4.37580  4.37580  0.00000 -0.75161
       3     C     2.98807  2.98807  0.00000  0.02385
       4     C     3.17471  3.17471  0.00000 -0.34943
       5     H     0.41600  0.41600  0.00000  0.16799
       6     H     0.42928  0.42928  0.00000  0.14143
       7     C     3.16315  3.16315  0.00000 -0.32631
       8     H     0.41370  0.41370  0.00000  0.17259
       9     H     0.42075  0.42075  0.00000  0.15851
      10     C     3.24241  3.24241  0.00000 -0.48481
      11     H     0.42927  0.42927  0.00000  0.14145
      12     H     0.41417  0.41417  0.00000  0.17167
      13     H     0.41649  0.41649  0.00000  0.16702
      14     H     0.41821  0.41821  0.00000  0.16359
      15     H     0.41945  0.41945  0.00000  0.16110

   Total alpha = 21.00000, Total beta = 21.00000, Total charge =  0.00000
