  ==> Input File <==

--------------------------------------------------------------------------
set {
	reference rhf
	basis 6-31G*
}

set_num_threads( 4 )
memory 2 gb

molecule MOL {
0 1

H	 -3.301617	 0.570527	 0.000000
C	 -2.250981	 0.344174	 0.000000
C	 -1.813665	 -0.976045	 0.000000
C	 -1.315303	 1.358057	 0.000000
H	 -2.528860	 -1.779366	 0.000000
C	 -0.467298	 -1.270142	 0.000000
H	 -1.635074	 2.385107	 0.000000
C	 0.047081	 1.078114	 0.000000
H	 -0.115948	 -2.285222	 0.000000
C	 0.472063	 -0.241155	 0.000000
H	 0.749976	 1.888426	 0.000000
O	 1.765256	 -0.628444	 0.000000
C	 2.102966	 -1.920219	 -0.415139
H	 1.642779	 -2.673383	 0.215974
H	 3.176690	 -1.994223	 -0.328823
H	 1.816452	 -2.093472	 -1.447237

	symmetry c1
}
set optking {
	frozen_dihedral = ("
		13 12 10 8
	")
}

ee = optimize('scf')
oeprop('DIPOLE', 'QUADRUPOLE', 'MULLIKEN_CHARGES')
f=open( 'psi4out.xyz', 'w' )
f.write( "16  " )
f.write( str(ee) + "\n" )
f.write( MOL.save_string_xyz() )
f.close()
--------------------------------------------------------------------------

    Molecular point group: c1
  Charge       = 0
  Multiplicity = 1
  Basis Set: 6-31G*
  Basis Set:
  @DF-RHF Final Energy:  -344.57295524954560
    Total Energy =                       -344.5729552495456574
    Molecular point group: c1
  Basis Set: 6-31G*
  Basis Set:
  Basis Set: 6-31G*
  Basis Set:
  @DF-RHF Final Energy:  -344.57687661704728
    Total Energy =                       -344.5768766170472759
  Basis Set: 6-31G*
  Basis Set:
  Basis Set: 6-31G*
  Basis Set:
  @DF-RHF Final Energy:  -344.58140412456271
    Total Energy =                       -344.5814041245628800
  Basis Set: 6-31G*
  Basis Set:
  Basis Set: 6-31G*
  Basis Set:
  @DF-RHF Final Energy:  -344.58211721049412
    Total Energy =                       -344.5821172104939478
  Basis Set: 6-31G*
  Basis Set:
  Basis Set: 6-31G*
  Basis Set:
  @DF-RHF Final Energy:  -344.58218216124004
    Total Energy =                       -344.5821821612398139
  Basis Set: 6-31G*
  Basis Set:
  Basis Set: 6-31G*
  Basis Set:
  @DF-RHF Final Energy:  -344.58218998523307
    Total Energy =                       -344.5821899852329580
  Basis Set: 6-31G*
  Basis Set:
  Basis Set: 6-31G*
  Basis Set:
  @DF-RHF Final Energy:  -344.58219208716730
    Total Energy =                       -344.5821920871676411
  Basis Set: 6-31G*
  Basis Set:
  Charge       = 0
  Multiplicity = 1
  Basis Set: 6-31G*
  Basis Set:

    Orbital Energies (a.u.)
    -----------------------

    Doubly Occupied:

       1A    -20.583192     2A    -11.293022     3A    -11.279473
       4A    -11.232995     5A    -11.231467     6A    -11.224145
       7A    -11.220008     8A    -11.219588     9A     -1.412175
      10A     -1.145935    11A     -1.021109    12A     -1.012864
      13A     -0.940675    14A     -0.830779    15A     -0.804756
      16A     -0.720510    17A     -0.664163    18A     -0.661717
      19A     -0.654065    20A     -0.616231    21A     -0.587458
      22A     -0.577051    23A     -0.525605    24A     -0.517644
      25A     -0.507906    26A     -0.477585    27A     -0.458092
      28A     -0.334601    29A     -0.306368

  @DF-RHF Final Energy:  -344.58219222522717

   => Energetics <=

    Nuclear Repulsion Energy =            348.0914635966875608
    One-Electron Energy =               -1157.2249542083022789
    Two-Electron Energy =                 464.5512983863876570
    DFT Exchange-Correlation Energy =       0.0000000000000000
    Empirical Dispersion Energy =           0.0000000000000000
    PCM Polarization Energy =               0.0000000000000000
    EFP Energy =                            0.0000000000000000
    Total Energy =                       -344.5821922252270042
    Molecular point group: c1
  Basis Set: 6-31G*
  Basis Set:

  -Total Gradient:
     Atom            X                  Y                   Z
    ------   -----------------  -----------------  -----------------
       1        0.000000186742     0.000001227294     0.000001633977
       2        0.000004350671     0.000013741243     0.000004921961
       3        0.000009056272    -0.000005354163    -0.000006365583
       4       -0.000016197928     0.000000250866    -0.000005144809
       5       -0.000002334101     0.000002995422     0.000001380984
       6       -0.000006843532    -0.000020038781     0.000008694644
       7       -0.000004526154     0.000000449094    -0.000000896807
       8        0.000022180347     0.000003634325    -0.001355772622
       9        0.000000213483     0.000010589487    -0.000002050140
      10        0.000010294530     0.000264264221     0.001300003378
      11       -0.000004350268    -0.000001702971    -0.000000080116
      12       -0.000144757834    -0.000727449810     0.001367567675
      13        0.000128524451     0.000456703769    -0.001305494502
      14        0.000010893413     0.000006224213    -0.000010832551
      15       -0.000002708647    -0.000004520487     0.000004042867
      16       -0.000003981453    -0.000001013719    -0.000001608355

  **** Optimization is complete! (in 8 steps) ****
    Final optimized geometry and variables:
    Molecular point group: c1

    Geometry (in Angstrom), charge = 0, multiplicity = 1:

    H           -3.194452833320     1.002408600883     0.051546852904
    C           -2.157196974805     0.720832164995     0.054095120229
    C           -1.792372239021    -0.610593848312     0.041973302416
    C           -1.163367643784     1.692598034968     0.067281104939
    H           -2.548495862166    -1.375587025930     0.031277065908
    C           -0.454124256131    -0.986255066557     0.045076396652
    H           -1.430361084349     2.734513113817     0.072476278740
    C            0.168651413157     1.335122993531     0.065970947671
    H           -0.197792729795    -2.028274234903     0.040467478357
    C            0.529129120878    -0.009461798361     0.061102346593
    H            0.947052278626     2.075304185946     0.071401918999
    O            1.855328202539    -0.268927973902     0.075441470712
    C            2.316699922037    -1.521850917348    -0.344304458833
    H            2.078272700243    -2.297994176568     0.375292650169
    H            3.390493655313    -1.438822860460    -0.424327590582
    H            1.903019514843    -1.790361557200    -1.310603053058

  Mulliken Charges: (a.u.)
   Center  Symbol    Alpha    Beta     Spin     Total
       1     H     0.40110  0.40110  0.00000  0.19779
       2     C     3.11139  3.11139  0.00000 -0.22278
       3     C     3.09165  3.09165  0.00000 -0.18329
       4     C     3.09242  3.09242  0.00000 -0.18483
       5     H     0.39952  0.39952  0.00000  0.20096
       6     C     3.14177  3.14177  0.00000 -0.28353
       7     H     0.39874  0.39874  0.00000  0.20252
       8     C     3.12504  3.12504  0.00000 -0.25008
       9     H     0.39745  0.39745  0.00000  0.20509
      10     C     2.78429  2.78429  0.00000  0.43141
      11     H     0.39298  0.39298  0.00000  0.21405
      12     O     4.32708  4.32708  0.00000 -0.65417
      13     C     3.09128  3.09128  0.00000 -0.18256
      14     H     0.42084  0.42084  0.00000  0.15832
      15     H     0.40543  0.40543  0.00000  0.18913
      16     H     0.41902  0.41902  0.00000  0.16196

   Total alpha = 29.00000, Total beta = 29.00000, Total charge = -0.00000
