  ==> Input File <==

--------------------------------------------------------------------------
set {
	reference rhf
	basis cc-pvtz
}

set_num_threads( 4 )
memory 2 gb

molecule MOL {
0 1

O	 -2.817697	 1.304178	 0.001046
C	 -2.664672	 0.129869	 0.003507
C	 -3.797908	 -0.860100	 -0.001145
O	 -1.481217	 -0.452708	 0.001092
H	 -4.408836	 -0.679689	 -0.875387
H	 -3.443486	 -1.878443	 -0.002770
H	 -4.412123	 -0.683688	 0.871605
C	 -0.332055	 0.384012	 -0.000250
C	 0.892252	 -0.506059	 -0.000295
H	 -0.360822	 1.020205	 -0.874146
H	 -0.359817	 1.021310	 0.872861
C	 2.088153	 0.161893	 -0.672620
H	 0.652256	 -1.434491	 -0.508316
H	 1.139562	 -0.764389	 1.024287
C	 3.335472	 -0.717419	 -0.684130
H	 1.828427	 0.426488	 -1.694633
H	 2.314569	 1.096037	 -0.164600
C	 4.531093	 -0.049849	 -1.354838
H	 3.110971	 -1.650494	 -1.193077
H	 3.596079	 -0.982344	 0.336647
H	 4.312910	 0.196412	 -2.388567
H	 5.398599	 -0.699358	 -1.346052
H	 4.801569	 0.869920	 -0.847174

	symmetry c1
}
set optking {
	frozen_dihedral = ("
		13 9 8 10
	")
}

ee = optimize('scf')
oeprop('DIPOLE', 'QUADRUPOLE', 'MULLIKEN_CHARGES')
f=open( 'psi4out.xyz', 'w' )
f.write( "23  " )
f.write( str(ee) + "\n" )
f.write( MOL.save_string_xyz() )
f.close()
--------------------------------------------------------------------------

    Molecular point group: c1
  Charge       = 0
  Multiplicity = 1
  Basis Set: CC-PVTZ
  Basis Set:
  @DF-RHF Final Energy:  -423.13199461336228
    Total Energy =                       -423.1319946133627354
    Molecular point group: c1
  Basis Set: CC-PVTZ
  Basis Set:
  Basis Set: CC-PVTZ
  Basis Set:
  @DF-RHF Final Energy:  -423.13215323057227
    Total Energy =                       -423.1321532305718165
  Basis Set: CC-PVTZ
  Basis Set:
  Basis Set: CC-PVTZ
  Basis Set:
  @DF-RHF Final Energy:  -423.13219027912999
    Total Energy =                       -423.1321902791303273
  Basis Set: CC-PVTZ
  Basis Set:
  Basis Set: CC-PVTZ
  Basis Set:
  @DF-RHF Final Energy:  -423.13234625865744
    Total Energy =                       -423.1323462586576625
  Basis Set: CC-PVTZ
  Basis Set:
  Basis Set: CC-PVTZ
  Basis Set:
  @DF-RHF Final Energy:  -423.13234792354450
    Total Energy =                       -423.1323479235450122
  Basis Set: CC-PVTZ
  Basis Set:
  Basis Set: CC-PVTZ
  Basis Set:
  @DF-RHF Final Energy:  -423.13235003537551
    Total Energy =                       -423.1323500353756799
  Basis Set: CC-PVTZ
  Basis Set:
  Charge       = 0
  Multiplicity = 1
  Basis Set: CC-PVTZ
  Basis Set:

    Orbital Energies (a.u.)
    -----------------------

    Doubly Occupied:

       1A    -20.596780     2A    -20.529987     3A    -11.366769
       4A    -11.279193     5A    -11.230984     6A    -11.221997
       7A    -11.221240     8A    -11.219222     9A    -11.210818
      10A     -1.471778    11A     -1.364629    12A     -1.094427
      13A     -1.042921    14A     -1.004150    15A     -0.931798
      16A     -0.842924    17A     -0.803116    18A     -0.778660
      19A     -0.692560    20A     -0.687634    21A     -0.671667
      22A     -0.647525    23A     -0.607117    24A     -0.587950
      25A     -0.584413    26A     -0.568008    27A     -0.559839
      28A     -0.538871    29A     -0.524740    30A     -0.505657
      31A     -0.492548    32A     -0.477754    33A     -0.471004
      34A     -0.466501    35A     -0.452346    36A     -0.439345

  @DF-RHF Final Energy:  -423.13235008160552

   => Energetics <=

    Nuclear Repulsion Energy =            450.4532195206290908
    One-Electron Energy =               -1468.7973951713611314
    Two-Electron Energy =                 595.2118255691265176
    DFT Exchange-Correlation Energy =       0.0000000000000000
    Empirical Dispersion Energy =           0.0000000000000000
    PCM Polarization Energy =               0.0000000000000000
    EFP Energy =                            0.0000000000000000
    Total Energy =                       -423.1323500816055230
    Molecular point group: c1
  Basis Set: CC-PVTZ
  Basis Set:

  -Total Gradient:
     Atom            X                  Y                   Z
    ------   -----------------  -----------------  -----------------
       1       -0.000000101274     0.000012931123    -0.000002795512
       2        0.000026359469    -0.000028744131     0.000007724522
       3       -0.000004831845     0.000001217184    -0.000008825498
       4       -0.000023185241     0.000007965503     0.000001156969
       5       -0.000000054973    -0.000000179207     0.000002416987
       6       -0.000001115805    -0.000001819411    -0.000000207490
       7        0.000002503205     0.000000665565     0.000002122841
       8       -0.003214973815    -0.004378935724    -0.002034470617
       9        0.002172316505     0.003123914595    -0.004100003784
      10        0.002327973851     0.003124388654     0.002296438889
      11        0.000000517909     0.000002840130     0.000006213915
      12       -0.000005537007    -0.000003643463     0.000006225422
      13       -0.001276782417    -0.001863761732     0.003814541643
      14       -0.000001370871    -0.000001707463     0.000006344150
      15        0.000002254305     0.000004030945     0.000005027707
      16        0.000003925111     0.000001299999     0.000000582401
      17       -0.000002127757    -0.000000789124     0.000002798895
      18       -0.000002766498    -0.000002513400    -0.000006734413
      19       -0.000000681570     0.000000727167     0.000001767811
      20       -0.000000319380     0.000003068764     0.000000855060
      21        0.000000924317     0.000002299278    -0.000001417435
      22       -0.000002324978    -0.000001478953    -0.000001429236
      23       -0.000000601243    -0.000001776296     0.000001666774

  **** Optimization is complete! (in 7 steps) ****
    Final optimized geometry and variables:
    Molecular point group: c1

    Geometry (in Angstrom), charge = 0, multiplicity = 1:

    O           -2.767934570482     1.374441303762     0.359567112310
    C           -2.631385627250     0.198553120125     0.332180070803
    C           -3.776884864647    -0.776777912618     0.366452168382
    O           -1.456992635128    -0.399412038383     0.267094975181
    H           -4.425985936115    -0.574669320928    -0.474964540750
    H           -3.436828887104    -1.799482155164     0.332539569111
    H           -4.346559224983    -0.606293124967     1.270114698094
    C           -0.299484427945     0.420903476885     0.234270695559
    C            0.929218670396    -0.473864126451     0.207301166499
    H           -0.334926297238     1.078080396580    -0.624165908168
    H           -0.298783509697     1.059099571321     1.107305138800
    C            2.142611830156     0.211354731426    -0.410886370974
    H            0.683939370214    -1.389047345343    -0.320122421823
    H            1.162907990796    -0.780647589211     1.222608328892
    C            3.404861283664    -0.644235601946    -0.360933774963
    H            1.922405051449     0.467674410086    -1.443927047981
    H            2.328445600415     1.152120817011     0.102711997430
    C            4.613458611566     0.036277830620    -0.994401602621
    H            3.216856759776    -1.588235882267    -0.864866729343
    H            3.630481909473    -0.890545672195     0.672763610111
    H            4.431726092171     0.263752222192    -2.039461084585
    H            5.491656497948    -0.596651068822    -0.941995128496
    H            4.846893133852     0.968124116603    -0.490237687689

  Mulliken Charges: (a.u.)
   Center  Symbol    Alpha    Beta     Spin     Total
       1     O     4.20203  4.20203  0.00000 -0.40406
       2     C     2.81198  2.81198  0.00000  0.37604
       3     C     3.13951  3.13951  0.00000 -0.27903
       4     O     4.14506  4.14506  0.00000 -0.29013
       5     H     0.44212  0.44212  0.00000  0.11576
       6     H     0.44193  0.44193  0.00000  0.11614
       7     H     0.44209  0.44209  0.00000  0.11581
       8     C     2.98018  2.98018  0.00000  0.03964
       9     C     3.08597  3.08597  0.00000 -0.17194
      10     H     0.45581  0.45581  0.00000  0.08839
      11     H     0.45313  0.45313  0.00000  0.09375
      12     C     3.09594  3.09594  0.00000 -0.19188
      13     H     0.44813  0.44813  0.00000  0.10373
      14     H     0.45247  0.45247  0.00000  0.09507
      15     C     3.08547  3.08547  0.00000 -0.17094
      16     H     0.45226  0.45226  0.00000  0.09547
      17     H     0.45272  0.45272  0.00000  0.09456
      18     C     3.14948  3.14948  0.00000 -0.29896
      19     H     0.45341  0.45341  0.00000  0.09318
      20     H     0.45337  0.45337  0.00000  0.09325
      21     H     0.45456  0.45456  0.00000  0.09088
      22     H     0.44774  0.44774  0.00000  0.10451
      23     H     0.45463  0.45463  0.00000  0.09075

   Total alpha = 36.00000, Total beta = 36.00000, Total charge = -0.00000
