                              Psi4 1.0.54 Driver

  ==> Input File <==

--------------------------------------------------------------------------
set {
	reference rhf
	basis cc-pvtz
}

set_num_threads( 4 )
memory 2 gb

molecule MOL {
0 1

H	 -0.430136	 2.862367	 -1.140039
C	 0.322319	 2.332958	 -0.539725
C	 0.062554	 0.862911	 -0.350953
O	 1.251605	 2.919581	 -0.104460
C	 -1.339253	 0.577611	 0.196911
H	 0.831321	 0.457080	 0.293867
H	 0.165458	 0.399143	 -1.329423
C	 -1.813142	 -0.849710	 -0.061612
H	 -2.032833	 1.276441	 -0.256032
H	 -1.357249	 0.782269	 1.263793
H	 -1.839268	 -1.063526	 -1.124230
H	 -2.810118	 -1.001930	 0.334000
H	 -1.159274	 -1.579980	 0.402282

	symmetry c1
}
set optking {
	frozen_dihedral = ("
		6 3 5 9
	")
}

ee,wfn = optimize('scf', return_wfn=True)
oeprop( wfn, 'DIPOLE', 'QUADRUPOLE', 'MULLIKEN_CHARGES')
f=open( 'psi4out.xyz', 'w' )
f.write( "13  " )
f.write( str(ee) + "\n" )
f.write( MOL.save_string_xyz() )
f.close()
--------------------------------------------------------------------------

    Molecular point group: c1
  Charge       = 0
  Multiplicity = 1
  Basis Set: CC-PVTZ
  Basis Set:
  @DF-RHF Final Energy:  -231.07018512507494
    Total Energy =                       -231.0701851250750565
    Molecular point group: c1
  Basis Set: CC-PVTZ
  Basis Set:
  Basis Set: CC-PVTZ
  Basis Set:
  @DF-RHF Final Energy:  -231.07037775909649
    Total Energy =                       -231.0703777590963739
  Basis Set: CC-PVTZ
  Basis Set:
  Basis Set: CC-PVTZ
  Basis Set:
  @DF-RHF Final Energy:  -231.07041009908355
    Total Energy =                       -231.0704100990837162
  Basis Set: CC-PVTZ
  Basis Set:
  Basis Set: CC-PVTZ
  Basis Set:
  @DF-RHF Final Energy:  -231.07025296069446
    Total Energy =                       -231.0702529606945745
  Basis Set: CC-PVTZ
  Basis Set:
  Basis Set: CC-PVTZ
  Basis Set:
  @DF-RHF Final Energy:  -231.07042862984318
    Total Energy =                       -231.0704286298433772
  Basis Set: CC-PVTZ
  Basis Set:
  Basis Set: CC-PVTZ
  Basis Set:
  @DF-RHF Final Energy:  -231.07043321619841
    Total Energy =                       -231.0704332161983530
  Basis Set: CC-PVTZ
  Basis Set:
  Basis Set: CC-PVTZ
  Basis Set:
  @DF-RHF Final Energy:  -231.07043545425191
    Total Energy =                       -231.0704354542517933
  Basis Set: CC-PVTZ
  Basis Set:
  Charge       = 0
  Multiplicity = 1
  Basis Set: CC-PVTZ
  Basis Set:

    Orbital Energies (a.u.)
    -----------------------

    Doubly Occupied:

       1A    -20.552769     2A    -11.321752     3A    -11.237422
       4A    -11.234765     5A    -11.222451     6A     -1.407628
       7A     -1.088035     8A     -0.977814     9A     -0.841288
      10A     -0.794430    11A     -0.680872    12A     -0.645306
      13A     -0.628723    14A     -0.591123    15A     -0.563113
      16A     -0.531724    17A     -0.517995    18A     -0.491161
      19A     -0.485923    20A     -0.413116

  @DF-RHF Final Energy:  -231.07043575414704

   => Energetics <=

    Nuclear Repulsion Energy =            170.8374245313306403
    One-Electron Energy =                -651.3608998944366704
    Two-Electron Energy =                 249.4530396089592159
    DFT Exchange-Correlation Energy =       0.0000000000000000
    Empirical Dispersion Energy =           0.0000000000000000
    PCM Polarization Energy =               0.0000000000000000
    EFP Energy =                            0.0000000000000000
    Total Energy =                       -231.0704357541468426
    Molecular point group: c1
  Basis Set: CC-PVTZ
  Basis Set:

  -Total Gradient:
     Atom            X                  Y                   Z
    ------   -----------------  -----------------  -----------------
       1       -0.000007630317     0.000006475421     0.000018092735
       2       -0.000011660376     0.000004821241    -0.000004297490
       3        0.000001491804    -0.002703245356    -0.001322259469
       4        0.000009189564    -0.000009297479    -0.000017843435
       5       -0.000564667190    -0.001652866105    -0.002260795973
       6        0.000087208192     0.002499976603     0.001463178079
       7        0.000009853764     0.000001160446     0.000007952268
       8        0.000001822300    -0.000000873736     0.000001855438
       9        0.000470405094     0.001855508270     0.002114657181
      10        0.000002406641    -0.000002207633     0.000000468985
      11        0.000001527074    -0.000000261382     0.000001698697
      12        0.000002146894     0.000001509906    -0.000002371443
      13       -0.000002093445    -0.000000700193    -0.000000335573

  **** Optimization is complete! (in 8 steps) ****
    Final optimized geometry and variables:
    Molecular point group: c1

    Geometry (in Angstrom), charge = 0, multiplicity = 1:

    H           -0.042864951100     1.700045202531    -1.038489201961
    C            0.646335661270     1.162895197251    -0.373430635977
    C            0.374166297688    -0.310133540448    -0.227833700845
    O            1.519885967183     1.745699358927     0.169178812503
    C           -1.035270761601    -0.573406413937     0.315437509401
    H            1.131242829437    -0.719458551099     0.427605475270
    H            0.480660913710    -0.758913862305    -1.212648437521
    C           -1.501193929803    -2.007637073130     0.098452493414
    H           -1.738345543806     0.120564956282    -0.136805662384
    H           -1.043222303784    -0.345465768523     1.376365757476
    H           -1.558070136737    -2.244501788348    -0.958346520771
    H           -2.482553586502    -2.166870304466     0.528734779080
    H           -0.818231928385    -2.712559862966     0.559627381106

  Mulliken Charges: (a.u.)
   Center  Symbol    Alpha    Beta     Spin     Total
       1     H     0.46584  0.46584  0.00000  0.06833
       2     C     2.90592  2.90592  0.00000  0.18816
       3     C     3.07872  3.07872  0.00000 -0.15743
       4     O     4.16377  4.16377  0.00000 -0.32754
       5     C     3.09561  3.09561  0.00000 -0.19123
       6     H     0.44201  0.44201  0.00000  0.11597
       7     H     0.45156  0.45156  0.00000  0.09687
       8     C     3.14702  3.14702  0.00000 -0.29403
       9     H     0.45278  0.45278  0.00000  0.09443
      10     H     0.44513  0.44513  0.00000  0.10974
      11     H     0.45434  0.45434  0.00000  0.09132
      12     H     0.44597  0.44597  0.00000  0.10806
      13     H     0.45132  0.45132  0.00000  0.09735

   Total alpha = 20.00000, Total beta = 20.00000, Total charge =  0.00000

*** Psi4 exiting successfully. Buy a developer a beer!
