                              Psi4 1.0.54 Driver

  ==> Input File <==

--------------------------------------------------------------------------
set {
	reference rhf
	basis cc-pvtz
}

set_num_threads( 4 )
memory 2 gb

molecule MOL {
0 1

H	 2.147615	 -1.015147	 -0.251058
C	 1.852444	 -0.011726	 -0.585235
C	 0.692262	 0.592428	 0.156232
O	 2.434445	 0.511408	 -1.471372
C	 -0.554654	 -0.292621	 0.086567
H	 0.500329	 1.576593	 -0.250484
H	 0.994782	 0.708607	 1.194915
C	 -1.846385	 0.513195	 -0.016346
H	 -0.473986	 -0.956115	 -0.769708
H	 -0.597929	 -0.929215	 0.966651
C	 -3.089953	 -0.365049	 -0.098564
H	 -1.798267	 1.154820	 -0.891143
H	 -1.925398	 1.173265	 0.842889
H	 -3.055079	 -1.012299	 -0.968245
H	 -3.988403	 0.236438	 -0.170014
H	 -3.183055	 -0.995885	 0.779079

	symmetry c1
}
set optking {
	frozen_dihedral = ("
		6 3 5 9
	")
}

ee,wfn = optimize('scf', return_wfn=True)
oeprop( wfn, 'DIPOLE', 'QUADRUPOLE', 'MULLIKEN_CHARGES')
f=open( 'psi4out.xyz', 'w' )
f.write( "16  " )
f.write( str(ee) + "\n" )
f.write( MOL.save_string_xyz() )
f.close()
--------------------------------------------------------------------------

    Molecular point group: c1
  Charge       = 0
  Multiplicity = 1
  Basis Set: CC-PVTZ
  Basis Set:
  @DF-RHF Final Energy:  -270.11543292642386
    Total Energy =                       -270.1154329264240346
    Molecular point group: c1
  Basis Set: CC-PVTZ
  Basis Set:
  Basis Set: CC-PVTZ
  Basis Set:
  @DF-RHF Final Energy:  -270.11534081815552
    Total Energy =                       -270.1153408181553459
  Basis Set: CC-PVTZ
  Basis Set:
  Basis Set: CC-PVTZ
  Basis Set:
  @DF-RHF Final Energy:  -270.11301883757494
    Total Energy =                       -270.1130188375751686
  Basis Set: CC-PVTZ
  Basis Set:
  Basis Set: CC-PVTZ
  Basis Set:
  @DF-RHF Final Energy:  -270.11566372070672
    Total Energy =                       -270.1156637207066069
  Basis Set: CC-PVTZ
  Basis Set:
  @DF-RHF Final Energy:  -270.11571040336452
    Total Energy =                       -270.1157104033645169
  Basis Set: CC-PVTZ
  Basis Set:
  @DF-RHF Final Energy:  -270.11578103165061
    Total Energy =                       -270.1157810316507266
  Basis Set: CC-PVTZ
  Basis Set:
  Basis Set: CC-PVTZ
  Basis Set:
  @DF-RHF Final Energy:  -270.11578662942361
    Total Energy =                       -270.1157866294235532
  Basis Set: CC-PVTZ
  Basis Set:
  Basis Set: CC-PVTZ
  Basis Set:
  @DF-RHF Final Energy:  -270.11579027586140
    Total Energy =                       -270.1157902758612863
  Basis Set: CC-PVTZ
  Basis Set:
  Charge       = 0
  Multiplicity = 1
  Basis Set: CC-PVTZ
  Basis Set:

    Orbital Energies (a.u.)
    -----------------------

    Doubly Occupied:

       1A    -20.551554     2A    -11.321682     3A    -11.234493
       4A    -11.233764     5A    -11.227407     6A    -11.216388
       7A     -1.406672     8A     -1.096311     9A     -1.019591
      10A     -0.907273    11A     -0.813139    12A     -0.795310
      13A     -0.676801    14A     -0.651020    15A     -0.631469
      16A     -0.604216    17A     -0.589806    18A     -0.542873
      19A     -0.530825    20A     -0.516202    21A     -0.486836
      22A     -0.484401    23A     -0.473356    24A     -0.412336

  @DF-RHF Final Energy:  -270.11579053235948

   => Energetics <=

    Nuclear Repulsion Energy =            229.4196288001588755
    One-Electron Energy =                -820.2233909054239120
    Two-Electron Energy =                 320.6879715729055533
    DFT Exchange-Correlation Energy =       0.0000000000000000
    Empirical Dispersion Energy =           0.0000000000000000
    PCM Polarization Energy =               0.0000000000000000
    EFP Energy =                            0.0000000000000000
    Total Energy =                       -270.1157905323594832
    Molecular point group: c1
  Basis Set: CC-PVTZ
  Basis Set:

  -Total Gradient:
     Atom            X                  Y                   Z
    ------   -----------------  -----------------  -----------------
       1       -0.000017312847     0.000004201974     0.000012582907
       2        0.000096599959     0.000059669704    -0.000104936387
       3        0.001739045037    -0.001961566786    -0.003679249154
       4       -0.000104072667    -0.000061048603     0.000109302910
       5       -0.002311835539     0.003319201220    -0.001670677171
       6       -0.001013076480     0.001116406716     0.003319852790
       7        0.000011673384     0.000008995166    -0.000016276584
       8       -0.000025210636    -0.000013142462     0.000026547796
       9        0.001617059923    -0.002486707719     0.002023919393
      10       -0.000007518236     0.000013320832    -0.000015585466
      11        0.000013118596     0.000009950951    -0.000009765307
      12        0.000014648459    -0.000001243154     0.000003707149
      13        0.000001966034    -0.000001433847     0.000003370742
      14       -0.000004745011    -0.000006123616     0.000002417676
      15       -0.000007269788    -0.000001636664    -0.000004335437
      16       -0.000003070191     0.000001156289    -0.000000875858

  **** Optimization is complete! (in 9 steps) ****
    Final optimized geometry and variables:
    Molecular point group: c1

    Geometry (in Angstrom), charge = 0, multiplicity = 1:

    H            2.163084401042    -1.204760106813    -0.018663566972
    C            1.948592507656    -0.156845051569    -0.266943043074
    C            0.759743796080     0.434113427621     0.436138959159
    O            2.634337438703     0.420921068085    -1.037167887362
    C           -0.490323104331    -0.461697352609     0.354159759112
    H            0.571270309392     1.424759917501     0.044349551592
    H            1.042625892339     0.565044083782     1.478163996537
    C           -1.790891352811     0.332836406466     0.297187580170
    H           -0.420956700190    -1.120470951634    -0.507631533741
    H           -0.515114016888    -1.124089059534     1.214012596960
    C           -3.029590725274    -0.554881876536     0.263608777271
    H           -1.778368240936     0.972777313162    -0.579801713077
    H           -1.842161525177     0.994659195228     1.157326770556
    H           -3.019084034608    -1.208397623465    -0.602175263049
    H           -3.934269780980     0.039699877480     0.217801648059
    H           -3.088722054707    -1.179723850811     1.148412020071

  Mulliken Charges: (a.u.)
   Center  Symbol    Alpha    Beta     Spin     Total
       1     H     0.46443  0.46443  0.00000  0.07114
       2     C     2.90839  2.90839  0.00000  0.18322
       3     C     3.08120  3.08120  0.00000 -0.16241
       4     O     4.16457  4.16457  0.00000 -0.32913
       5     C     3.10007  3.10007  0.00000 -0.20013
       6     H     0.44267  0.44267  0.00000  0.11465
       7     H     0.44719  0.44719  0.00000  0.10562
       8     C     3.08417  3.08417  0.00000 -0.16833
       9     H     0.45144  0.45144  0.00000  0.09712
      10     H     0.45075  0.45075  0.00000  0.09851
      11     C     3.14926  3.14926  0.00000 -0.29852
      12     H     0.44952  0.44952  0.00000  0.10096
      13     H     0.45167  0.45167  0.00000  0.09666
      14     H     0.45358  0.45358  0.00000  0.09284
      15     H     0.44648  0.44648  0.00000  0.10705
      16     H     0.45462  0.45462  0.00000  0.09075

   Total alpha = 24.00000, Total beta = 24.00000, Total charge =  0.00000

*** Psi4 exiting successfully. Buy a developer a beer!
