                              Psi4 1.0.54 Driver

  ==> Input File <==

--------------------------------------------------------------------------
set {
	reference rhf
	basis cc-pvtz
}

set_num_threads( 4 )
memory 2 gb

molecule MOL {
0 1

O	 1.216069	 1.304886	 0.000821
C	 1.121787	 0.124983	 0.000110
C	 -0.170912	 -0.649867	 -0.000147
O	 2.167739	 -0.685178	 -0.000678
C	 -1.413045	 0.229353	 0.001137
H	 -0.152877	 -1.303435	 -0.866175
H	 -0.152278	 -1.305116	 0.864586
C	 -2.480003	 -0.273393	 0.969205
H	 -1.820276	 0.275374	 -1.002649
H	 -1.132911	 1.244710	 0.258274
C	 -3.730314	 0.599278	 0.976841
H	 -2.754179	 -1.292277	 0.708545
H	 -2.066092	 -0.317524	 1.973180
H	 -4.187332	 0.635485	 -0.006220
H	 -4.469653	 0.218973	 1.672128
H	 -3.494307	 1.617257	 1.267703
C	 3.449556	 -0.089977	 -0.000570
H	 3.585694	 0.522473	 -0.879546
H	 4.155805	 -0.904274	 -0.001389
H	 3.586173	 0.521118	 0.879272

	symmetry c1
}
set optking {
	frozen_dihedral = ("
		9 5 3 6
	")
}

ee,wfn = optimize('scf', return_wfn=True)
oeprop( wfn, 'DIPOLE', 'QUADRUPOLE', 'MULLIKEN_CHARGES')
f=open( 'psi4out.xyz', 'w' )
f.write( "20  " )
f.write( str(ee) + "\n" )
f.write( MOL.save_string_xyz() )
f.close()
--------------------------------------------------------------------------

    Molecular point group: c1
  Charge       = 0
  Multiplicity = 1
  Basis Set: CC-PVTZ
  Basis Set:
  @DF-RHF Final Energy:  -384.07919310159832
    Total Energy =                       -384.0791931015982072
    Molecular point group: c1
  Basis Set: CC-PVTZ
  Basis Set:
  Basis Set: CC-PVTZ
  Basis Set:
  @DF-RHF Final Energy:  -384.07948823263172
    Total Energy =                       -384.0794882326320021
  Basis Set: CC-PVTZ
  Basis Set:
  Basis Set: CC-PVTZ
  Basis Set:
  @DF-RHF Final Energy:  -384.07946408226815
    Total Energy =                       -384.0794640822682595
  Basis Set: CC-PVTZ
  Basis Set:
  Basis Set: CC-PVTZ
  Basis Set:
  @DF-RHF Final Energy:  -384.07955080134246
    Total Energy =                       -384.0795508013427479
  Basis Set: CC-PVTZ
  Basis Set:
  Basis Set: CC-PVTZ
  Basis Set:
  @DF-RHF Final Energy:  -384.07956692447328
    Total Energy =                       -384.0795669244737383
  Basis Set: CC-PVTZ
  Basis Set:
  Basis Set: CC-PVTZ
  Basis Set:
  @DF-RHF Final Energy:  -384.07956803715433
    Total Energy =                       -384.0795680371542176
  Basis Set: CC-PVTZ
  Basis Set:
  Charge       = 0
  Multiplicity = 1
  Basis Set: CC-PVTZ
  Basis Set:

    Orbital Energies (a.u.)
    -----------------------

    Doubly Occupied:

       1A    -20.596513     2A    -20.534874     3A    -11.365288
       4A    -11.278692     5A    -11.234110     6A    -11.217745
       7A    -11.216005     8A    -11.207996     9A     -1.472734
      10A     -1.366266    11A     -1.087823    12A     -1.025303
      13A     -0.969096    14A     -0.886668    15A     -0.804747
      16A     -0.769152    17A     -0.701427    18A     -0.685120
      19A     -0.676433    20A     -0.641164    21A     -0.601616
      22A     -0.593108    23A     -0.580055    24A     -0.546162
      25A     -0.531774    26A     -0.522224    27A     -0.505902
      28A     -0.478799    29A     -0.470557    30A     -0.466990
      31A     -0.460708    32A     -0.441476

  @DF-RHF Final Energy:  -384.07956839750017

   => Energetics <=

    Nuclear Repulsion Energy =            382.1792076145576971
    One-Electron Energy =               -1280.6444930966979427
    Two-Electron Energy =                 514.3857170846399640
    DFT Exchange-Correlation Energy =       0.0000000000000000
    Empirical Dispersion Energy =           0.0000000000000000
    PCM Polarization Energy =               0.0000000000000000
    EFP Energy =                            0.0000000000000000
    Total Energy =                       -384.0795683975002248
    Molecular point group: c1
  Basis Set: CC-PVTZ
  Basis Set:

  -Total Gradient:
     Atom            X                  Y                   Z
    ------   -----------------  -----------------  -----------------
       1       -0.000022744251     0.000030998779    -0.000042714569
       2        0.000035120140    -0.000009415957     0.000063475823
       3       -0.002129306934    -0.003100839929     0.001963794097
       4        0.000009733885    -0.000036190927    -0.000006345432
       5        0.002305014988     0.003340543917    -0.000982560959
       6        0.001418908364     0.002021364999    -0.001453453606
       7        0.000012065086    -0.000003125694    -0.000029531614
       8       -0.000009255190     0.000009481077    -0.000000329308
       9       -0.001596823167    -0.002240030422     0.000514934931
      10       -0.000015623314    -0.000003521757    -0.000007295794
      11       -0.000003858673    -0.000010914715    -0.000012661917
      12       -0.000002444814    -0.000008929743     0.000002764157
      13        0.000006977219     0.000009491014     0.000001802802
      14       -0.000007720961     0.000003324947    -0.000006872840
      15        0.000001837732    -0.000002915391    -0.000003160430
      16        0.000006208610    -0.000000187622     0.000004147860
      17       -0.000014946590    -0.000002103839    -0.000004442187
      18        0.000001863136     0.000008512139    -0.000010048070
      19        0.000004362509    -0.000011356449    -0.000000445226
      20        0.000000632226     0.000005815576     0.000008942281

  **** Optimization is complete! (in 7 steps) ****
    Final optimized geometry and variables:
    Molecular point group: c1

    Geometry (in Angstrom), charge = 0, multiplicity = 1:

    O            1.198740805606     1.240641062140    -0.195369068146
    C            1.082517010435     0.063217090674    -0.226255556129
    C           -0.219217235958    -0.703112635522    -0.215868236893
    O            2.115118099145    -0.762862716087    -0.274328269098
    C           -1.473599760796     0.176105672072    -0.206226852410
    H           -0.188751252669    -1.346415419635    -1.087458558806
    H           -0.182716008611    -1.359476793642     0.646295057576
    C           -2.563870237358    -0.364746891148     0.717887760613
    H           -1.878154268868     0.234571761124    -1.211129602307
    H           -1.209244148865     1.181632611920     0.089136175336
    C           -3.833305893703     0.478677867843     0.691769383168
    H           -2.804696713696    -1.387215621501     0.438114884371
    H           -2.180991321703    -0.408858426955     1.733969945916
    H           -4.261327217326     0.510959926172    -0.304630738638
    H           -4.584951138217     0.077227012769     1.361540478686
    H           -3.629173179170     1.499756890787     0.995545822466
    C            3.406343050879    -0.188652318085    -0.285876338289
    H            3.533226475821     0.447243315514    -1.149451694321
    H            4.098593755748    -1.013924032631    -0.326523851758
    H            3.572913881013     0.393770480349     0.608164207606

  Mulliken Charges: (a.u.)
   Center  Symbol    Alpha    Beta     Spin     Total
       1     O     4.19588  4.19588  0.00000 -0.39175
       2     C     2.80138  2.80138  0.00000  0.39723
       3     C     3.10767  3.10767  0.00000 -0.21534
       4     O     4.14748  4.14748  0.00000 -0.29497
       5     C     3.09084  3.09084  0.00000 -0.18169
       6     H     0.43598  0.43598  0.00000  0.12805
       7     H     0.43897  0.43897  0.00000  0.12207
       8     C     3.08687  3.08687  0.00000 -0.17375
       9     H     0.45338  0.45338  0.00000  0.09323
      10     H     0.43548  0.43548  0.00000  0.12905
      11     C     3.14968  3.14968  0.00000 -0.29937
      12     H     0.45452  0.45452  0.00000  0.09096
      13     H     0.45448  0.45448  0.00000  0.09103
      14     H     0.45505  0.45505  0.00000  0.08990
      15     H     0.44847  0.44847  0.00000  0.10306
      16     H     0.45285  0.45285  0.00000  0.09431
      17     C     3.03672  3.03672  0.00000 -0.07343
      18     H     0.45433  0.45433  0.00000  0.09135
      19     H     0.44552  0.44552  0.00000  0.10897
      20     H     0.45446  0.45446  0.00000  0.09108

   Total alpha = 32.00000, Total beta = 32.00000, Total charge = -0.00000

*** Psi4 exiting successfully. Buy a developer a beer!
