                              Psi4 1.0.54 Driver

  ==> Input File <==

--------------------------------------------------------------------------
set {
	reference rhf
	basis cc-pvtz
}

set_num_threads( 4 )
memory 2 gb

molecule MOL {
0 1

H	 3.889604	 0.356866	 -0.089510
N	 3.091268	 -0.241216	 -0.065538
C	 1.860978	 0.530248	 0.016256
H	 3.192566	 -0.835836	 0.730398
C	 0.644130	 -0.381765	 -0.031064
H	 1.835721	 1.204666	 -0.833114
H	 1.808789	 1.151975	 0.911067
C	 -0.678115	 0.376691	 0.025731
H	 0.693998	 -0.977147	 -0.936845
H	 0.693309	 -1.082142	 0.800523
C	 -1.875330	 -0.462060	 -0.412874
H	 -0.612753	 1.260840	 -0.604319
H	 -0.847292	 0.737255	 1.037781
C	 -3.194305	 0.301661	 -0.360796
H	 -1.708074	 -0.823666	 -1.423595
H	 -1.945168	 -1.344315	 0.217618
H	 -3.168672	 1.171630	 -1.008666
H	 -4.022366	 -0.321790	 -0.678018
H	 -3.407350	 0.647209	 0.645456

	symmetry c1
}
set optking {
	frozen_dihedral = ("
		12 8 5 9
	")
}

ee,wfn = optimize('scf', return_wfn=True)
oeprop( wfn, 'DIPOLE', 'QUADRUPOLE', 'MULLIKEN_CHARGES')
f=open( 'psi4out.xyz', 'w' )
f.write( "19  " )
f.write( str(ee) + "\n" )
f.write( MOL.save_string_xyz() )
f.close()
--------------------------------------------------------------------------

    Molecular point group: c1
  Charge       = 0
  Multiplicity = 1
  Basis Set: CC-PVTZ
  Basis Set:
  @DF-RHF Final Energy:  -251.44727054915364
    Total Energy =                       -251.4472705491537567
    Molecular point group: c1
  Basis Set: CC-PVTZ
  Basis Set:
  Basis Set: CC-PVTZ
  Basis Set:
  @DF-RHF Final Energy:  -251.44735651271475
    Total Energy =                       -251.4473565127148618
  Basis Set: CC-PVTZ
  Basis Set:
  Basis Set: CC-PVTZ
  Basis Set:
  @DF-RHF Final Energy:  -251.44740602487067
    Total Energy =                       -251.4474060248707019
  Basis Set: CC-PVTZ
  Basis Set:
  Basis Set: CC-PVTZ
  Basis Set:
  @DF-RHF Final Energy:  -251.44740742868854
    Total Energy =                       -251.4474074286885070
  Basis Set: CC-PVTZ
  Basis Set:
  Charge       = 0
  Multiplicity = 1
  Basis Set: CC-PVTZ
  Basis Set:

    Orbital Energies (a.u.)
    -----------------------

    Doubly Occupied:

       1A    -15.526503     2A    -11.238227     3A    -11.212021
       4A    -11.210458     5A    -11.207625     6A    -11.205450
       7A     -1.178274     8A     -1.074062     9A     -0.999573
      10A     -0.901135    11A     -0.814028    12A     -0.789905
      13A     -0.665009    14A     -0.641958    15A     -0.619956
      16A     -0.587714    17A     -0.567829    18A     -0.550216
      19A     -0.527952    20A     -0.501430    21A     -0.479491
      22A     -0.465918    23A     -0.458910    24A     -0.452159
      25A     -0.383828

  @DF-RHF Final Energy:  -251.44740772916660

   => Energetics <=

    Nuclear Repulsion Energy =            246.0374401662922708
    One-Electron Energy =                -826.4504426263367804
    Two-Electron Energy =                 328.9655947308780242
    DFT Exchange-Correlation Energy =       0.0000000000000000
    Empirical Dispersion Energy =           0.0000000000000000
    PCM Polarization Energy =               0.0000000000000000
    EFP Energy =                            0.0000000000000000
    Total Energy =                       -251.4474077291664571
    Molecular point group: c1
  Basis Set: CC-PVTZ
  Basis Set:

  -Total Gradient:
     Atom            X                  Y                   Z
    ------   -----------------  -----------------  -----------------
       1        0.000030878752     0.000001943204     0.000005295390
       2        0.000036222908    -0.000024071607     0.000007307764
       3       -0.000048494925     0.000012593942    -0.000022493507
       4        0.000014330510    -0.000009315259     0.000005507760
       5        0.001575523630     0.002871180127    -0.001106184661
       6       -0.000018222519    -0.000003787190     0.000011885716
       7       -0.000002969829    -0.000014683443    -0.000015036693
       8       -0.001361659323    -0.002233574958    -0.002185498017
       9       -0.001087398223    -0.001994314824     0.001264374712
      10       -0.000001670093     0.000003101243     0.000006086703
      11       -0.000004711946    -0.000003186656     0.000016578918
      12        0.000874937020     0.001380028433     0.002007562773
      13       -0.000006804427    -0.000005003282     0.000003503269
      14       -0.000012451190     0.000011605072    -0.000005911583
      15        0.000007008994     0.000006795398     0.000023495000
      16        0.000004897046     0.000010468983    -0.000009919161
      17       -0.000001621233    -0.000010481609     0.000012049866
      18       -0.000001658203     0.000006756126    -0.000001550424
      19        0.000003863047    -0.000006053702    -0.000017053827

  **** Optimization is complete! (in 5 steps) ****
    Final optimized geometry and variables:
    Molecular point group: c1

    Geometry (in Angstrom), charge = 0, multiplicity = 1:

    H            3.888320283931     0.324100399986     0.107013953216
    N            3.086712071904    -0.270092344976     0.114143236612
    C            1.857916462061     0.507425762772     0.134619929313
    H            3.156194664317    -0.848660679891     0.925147527429
    C            0.639674472127    -0.398939217694     0.058483721254
    H            1.867069883031     1.165620625540    -0.727535465911
    H            1.774102572240     1.146682503063     1.014893393010
    C           -0.685063843592     0.359720043791     0.111591309390
    H            0.695453922785    -1.000079823967    -0.843200970056
    H            0.674161216439    -1.107150047403     0.884451784509
    C           -1.888212464939    -0.485938707326    -0.292393082491
    H           -0.626266538032     1.242907144094    -0.520851777743
    H           -0.838776988559     0.737391302720     1.120053151013
    C           -3.211885198177     0.263849759020    -0.187470422861
    H           -1.752183601704    -0.836884702814    -1.311302727681
    H           -1.926878360875    -1.374564627706     0.332086292894
    H           -3.214839179789     1.142799005081    -0.823639596190
    H           -4.043710871513    -0.363320349835    -0.487065881972
    H           -3.395966114252     0.593436314807     0.829706068022

  Mulliken Charges: (a.u.)
   Center  Symbol    Alpha    Beta     Spin     Total
       1     H     0.43025  0.43025  0.00000  0.13951
       2     N     3.68917  3.68917  0.00000 -0.37833
       3     C     3.02709  3.02709  0.00000 -0.05419
       4     H     0.43088  0.43088  0.00000  0.13824
       5     C     3.08150  3.08150  0.00000 -0.16300
       6     H     0.45673  0.45673  0.00000  0.08654
       7     H     0.46833  0.46833  0.00000  0.06335
       8     C     3.09425  3.09425  0.00000 -0.18850
       9     H     0.44982  0.44982  0.00000  0.10036
      10     H     0.45978  0.45978  0.00000  0.08044
      11     C     3.08285  3.08285  0.00000 -0.16569
      12     H     0.45595  0.45595  0.00000  0.08810
      13     H     0.45604  0.45604  0.00000  0.08792
      14     C     3.14981  3.14981  0.00000 -0.29962
      15     H     0.45359  0.45359  0.00000  0.09281
      16     H     0.45465  0.45465  0.00000  0.09071
      17     H     0.45524  0.45524  0.00000  0.08953
      18     H     0.44853  0.44853  0.00000  0.10293
      19     H     0.45556  0.45556  0.00000  0.08889

   Total alpha = 25.00000, Total beta = 25.00000, Total charge = -0.00000

*** Psi4 exiting successfully. Buy a developer a beer!
