  ==> Input File <==

--------------------------------------------------------------------------
set {
	reference rhf
	basis 6-31G*
}

set_num_threads( 4 )
memory 2 gb

molecule MOL {
0 1

H	 -0.000158	 1.970498	 0.756846
O	 -0.000074	 1.880206	 -0.189275
C	 -0.000015	 0.544847	 -0.545111
C	 -1.278788	 -0.123820	 -0.051541
C	 1.278802	 -0.123718	 -0.051505
H	 -0.000001	 0.490777	 -1.623619
F	 -2.228970	 0.021496	 -0.950197
F	 -1.116593	 -1.411859	 0.165270
F	 -1.697670	 0.434441	 1.072950
F	 2.323327	 0.466644	 -0.591854
F	 1.326242	 -1.401483	 -0.363667
F	 1.388946	 -0.015632	 1.262939

	symmetry c1
}
set optking {
	frozen_dihedral = ("
		7 4 3 6
	")
}

ee = optimize('scf')
oeprop('DIPOLE', 'QUADRUPOLE', 'MULLIKEN_CHARGES')
f=open( 'psi4out.xyz', 'w' )
f.write( "12  " )
f.write( str(ee) + "\n" )
f.write( MOL.save_string_xyz() )
f.close()
--------------------------------------------------------------------------

    Molecular point group: c1
  Charge       = 0
  Multiplicity = 1
  Basis Set: 6-31G*
  Basis Set:
  @DF-RHF Final Energy:  -786.27459180410847
    Total Energy =                       -786.2745918041085815
    Molecular point group: c1
  Basis Set: 6-31G*
  Basis Set:
  Basis Set: 6-31G*
  Basis Set:
  @DF-RHF Final Energy:  -786.27541905649844
    Total Energy =                       -786.2754190564978671
  Basis Set: 6-31G*
  Basis Set:
  Basis Set: 6-31G*
  Basis Set:
  @DF-RHF Final Energy:  -786.27570371376021
    Total Energy =                       -786.2757037137591851
  Basis Set: 6-31G*
  Basis Set:
  Basis Set: 6-31G*
  Basis Set:
  @DF-RHF Final Energy:  -786.27574993034182
    Total Energy =                       -786.2757499303419308
  Basis Set: 6-31G*
  Basis Set:
  Basis Set: 6-31G*
  Basis Set:
  @DF-RHF Final Energy:  -786.27575636296183
    Total Energy =                       -786.2757563629618289
  Basis Set: 6-31G*
  Basis Set:
  Charge       = 0
  Multiplicity = 1
  Basis Set: 6-31G*
  Basis Set:

    Orbital Energies (a.u.)
    -----------------------

    Doubly Occupied:

       1A    -26.366488     2A    -26.361927     3A    -26.361573
       4A    -26.360199     5A    -26.359607     6A    -26.356850
       7A    -20.615346     8A    -11.528507     9A    -11.524223
      10A    -11.349100    11A     -1.765487    12A     -1.758399
      13A     -1.662509    14A     -1.658753    15A     -1.657424
      16A     -1.654013    17A     -1.433694    18A     -1.100229
      19A     -0.997026    20A     -0.937669    21A     -0.865532
      22A     -0.861834    23A     -0.851449    24A     -0.845731
      25A     -0.832954    26A     -0.816076    27A     -0.738617
      28A     -0.729431    29A     -0.725015    30A     -0.721209
      31A     -0.688358    32A     -0.685884    33A     -0.682039
      34A     -0.676236    35A     -0.669502    36A     -0.661243
      37A     -0.658027    38A     -0.650331    39A     -0.619860
      40A     -0.551553    41A     -0.505086

  @DF-RHF Final Energy:  -786.27575715694695

   => Energetics <=

    Nuclear Repulsion Energy =            670.1051461267353488
    One-Electron Energy =               -2427.0718271945434026
    Two-Electron Energy =                 970.6909239108606471
    DFT Exchange-Correlation Energy =       0.0000000000000000
    Empirical Dispersion Energy =           0.0000000000000000
    PCM Polarization Energy =               0.0000000000000000
    EFP Energy =                            0.0000000000000000
    Total Energy =                       -786.2757571569475203
    Molecular point group: c1
  Basis Set: 6-31G*
  Basis Set:

  -Total Gradient:
     Atom            X                  Y                   Z
    ------   -----------------  -----------------  -----------------
       1       -0.000005492594     0.000008837804     0.000004734294
       2        0.000008110217    -0.000022011879    -0.000016445888
       3        0.002917615308    -0.005998431575    -0.000220341770
       4       -0.001792601578     0.005345351457     0.002155847151
       5       -0.000000930227    -0.000018333842    -0.000128460207
       6       -0.002169572384     0.004153061716    -0.000222501279
       7        0.000992803560    -0.003384914027    -0.001665669841
       8        0.000002469996    -0.000067255852    -0.000009568771
       9        0.000010154910    -0.000017974591    -0.000036830204
      10       -0.000024385385    -0.000038730256     0.000034955398
      11        0.000023326437     0.000046200777     0.000032948310
      12        0.000038501740    -0.000005799734     0.000071332805

  **** Optimization is complete! (in 6 steps) ****
    Final optimized geometry and variables:
    Molecular point group: c1

    Geometry (in Angstrom), charge = 0, multiplicity = 1:

    H           -0.060888113755     2.018367963963     0.669092744602
    O            0.020773953175     1.882769492552    -0.267345750269
    C            0.007851130925     0.532287798033    -0.566404887173
    C           -1.279653124594    -0.109631193148    -0.031671295415
    C            1.280138979667    -0.135137229860    -0.058864468708
    H           -0.014181838175     0.464202936747    -1.643148592321
    F           -2.254098405167     0.035384827618    -0.906030957256
    F           -1.142874411071    -1.401484273238     0.193096128926
    F           -1.651189553107     0.456857649932     1.102267073348
    F            2.333394504619     0.533606155918    -0.474029471701
    F            1.392523909770    -1.374048200996    -0.489039622082
    F            1.303470584457    -0.148737118847     1.265433828560

  Mulliken Charges: (a.u.)
   Center  Symbol    Alpha    Beta     Spin     Total
       1     H     0.26556  0.26556  0.00000  0.46888
       2     O     4.36263  4.36263  0.00000 -0.72527
       3     C     3.06022  3.06022  0.00000 -0.12045
       4     C     2.43754  2.43754  0.00000  1.12492
       5     C     2.44195  2.44195  0.00000  1.11609
       6     H     0.37269  0.37269  0.00000  0.25462
       7     F     4.67606  4.67606  0.00000 -0.35213
       8     F     4.67416  4.67416  0.00000 -0.34833
       9     F     4.67898  4.67898  0.00000 -0.35796
      10     F     4.67405  4.67405  0.00000 -0.34809
      11     F     4.67456  4.67456  0.00000 -0.34913
      12     F     4.68158  4.68158  0.00000 -0.36316

   Total alpha = 41.00000, Total beta = 41.00000, Total charge = -0.00000
