                              Psi4 1.0.54 Driver

  ==> Input File <==

--------------------------------------------------------------------------
set {
	reference rhf
	basis cc-pvtz
}

set_num_threads( 4 )
memory 2 gb

molecule MOL {
0 1

H	 -1.835082	 1.385983	 0.000069
C	 -1.300516	 0.441153	 -0.000028
O	 -0.006604	 0.654344	 -0.000106
O	 -1.828920	 -0.612308	 0.000113
C	 0.852093	 -0.482521	 -0.000161
C	 0.578601	 -1.266876	 -1.261387
H	 0.654587	 -1.069409	 0.885566
H	 1.877875	 -0.145426	 0.045679
H	 -0.452638	 -1.594511	 -1.295617
H	 1.217721	 -2.141186	 -1.292388
H	 0.776775	 -0.665873	 -2.139733

	symmetry c1
}
set optking {
	frozen_dihedral = ("
		7 5 3 2
	")
}

ee,wfn = optimize('scf', return_wfn=True)
oeprop( wfn, 'DIPOLE', 'QUADRUPOLE', 'MULLIKEN_CHARGES')
f=open( 'psi4out.xyz', 'w' )
f.write( "11  " )
f.write( str(ee) + "\n" )
f.write( MOL.save_string_xyz() )
f.close()
--------------------------------------------------------------------------

    Molecular point group: c1
  Charge       = 0
  Multiplicity = 1
  Basis Set: CC-PVTZ
  Basis Set:
  @DF-RHF Final Energy:  -266.92341793835948
    Total Energy =                       -266.9234179383593641
    Molecular point group: c1
  Basis Set: CC-PVTZ
  Basis Set:
  Basis Set: CC-PVTZ
  Basis Set:
  @DF-RHF Final Energy:  -266.92864185729155
    Total Energy =                       -266.9286418572912680
  Basis Set: CC-PVTZ
  Basis Set:
  Basis Set: CC-PVTZ
  Basis Set:
  @DF-RHF Final Energy:  -266.92921852524887
    Total Energy =                       -266.9292185252487570
  Basis Set: CC-PVTZ
  Basis Set:
  Basis Set: CC-PVTZ
  Basis Set:
  @DF-RHF Final Energy:  -266.92839357534251
    Total Energy =                       -266.9283935753426817
  Basis Set: CC-PVTZ
  Basis Set:
  Basis Set: CC-PVTZ
  Basis Set:
  @DF-RHF Final Energy:  -266.92934928800383
    Total Energy =                       -266.9293492880038912
  Basis Set: CC-PVTZ
  Basis Set:
  Basis Set: CC-PVTZ
  Basis Set:
  @DF-RHF Final Energy:  -266.92946727331241
    Total Energy =                       -266.9294672733124116
  Basis Set: CC-PVTZ
  Basis Set:
  Charge       = 0
  Multiplicity = 1
  Basis Set: CC-PVTZ
  Basis Set:

    Orbital Energies (a.u.)
    -----------------------

    Doubly Occupied:

       1A    -20.604940     2A    -20.545318     3A    -11.370663
       4A    -11.291563     5A    -11.220216     6A     -1.477875
       7A     -1.377331     8A     -1.049039     9A     -0.915624
      10A     -0.796065    11A     -0.743145    12A     -0.687634
      13A     -0.658946    14A     -0.625808    15A     -0.577818
      16A     -0.544078    17A     -0.534919    18A     -0.502257
      19A     -0.462917    20A     -0.454484

  @DF-RHF Final Energy:  -266.92946784285806

   => Energetics <=

    Nuclear Repulsion Energy =            183.0204901849883186
    One-Electron Energy =                -727.0186350349397344
    Two-Electron Energy =                 277.0686770070932425
    DFT Exchange-Correlation Energy =       0.0000000000000000
    Empirical Dispersion Energy =           0.0000000000000000
    PCM Polarization Energy =               0.0000000000000000
    EFP Energy =                            0.0000000000000000
    Total Energy =                       -266.9294678428581165
    Molecular point group: c1
  Basis Set: CC-PVTZ
  Basis Set:

  -Total Gradient:
     Atom            X                  Y                   Z
    ------   -----------------  -----------------  -----------------
       1        0.000007196126     0.000004862890    -0.000004555656
       2       -0.000823409013    -0.000191556079    -0.003370479414
       3        0.002190223272     0.000715601435     0.005093310148
       4       -0.000097182697    -0.000066320594     0.000016207043
       5       -0.004622262193    -0.002177726549    -0.002755647171
       6       -0.000033805999     0.000086366618    -0.000014291240
       7        0.003402294371     0.001578782914     0.001051329391
       8       -0.000000596053     0.000066452881    -0.000006330610
       9       -0.000041312461    -0.000008471750     0.000011341270
      10        0.000022139766    -0.000000636163     0.000012802169
      11       -0.000003285123    -0.000007355603    -0.000033685928

  **** Optimization is complete! (in 7 steps) ****
    Final optimized geometry and variables:
    Molecular point group: c1

    Geometry (in Angstrom), charge = 0, multiplicity = 1:

    H           -1.062422773978     1.962164296902     0.367285102807
    C           -0.746663229484     0.923952752942     0.403304253898
    O            0.518164719397     0.830903954983     0.071032341435
    O           -1.456255609997     0.035775393890     0.715374864164
    C            1.125294653269    -0.456951648487    -0.026454911560
    C            0.575652659597    -1.304653865029    -1.154793491100
    H            1.058046592913    -0.948881930529     0.933762788667
    H            2.165687044653    -0.230729136484    -0.205065939843
    H           -0.449949278312    -1.590195848296    -0.980386963768
    H            1.174736591750    -2.204259953089    -1.238849613519
    H            0.639587916181    -0.769139712242    -2.094750704054

  Mulliken Charges: (a.u.)
   Center  Symbol    Alpha    Beta     Spin     Total
       1     H     0.44615  0.44615  0.00000  0.10770
       2     C     2.84148  2.84148  0.00000  0.31703
       3     O     4.14845  4.14845  0.00000 -0.29689
       4     O     4.19763  4.19763  0.00000 -0.39526
       5     C     2.97967  2.97967  0.00000  0.04067
       6     C     3.15178  3.15178  0.00000 -0.30356
       7     H     0.45163  0.45163  0.00000  0.09673
       8     H     0.44456  0.44456  0.00000  0.11089
       9     H     0.43650  0.43650  0.00000  0.12699
      10     H     0.45014  0.45014  0.00000  0.09971
      11     H     0.45201  0.45201  0.00000  0.09599

   Total alpha = 20.00000, Total beta = 20.00000, Total charge = -0.00000

*** Psi4 exiting successfully. Buy a developer a beer!
