  ==> Input File <==

--------------------------------------------------------------------------
set {
	reference rhf
	basis cc-pvtz
}

set_num_threads( 4 )
memory 2 gb

molecule MOL {
0 1

H	 4.593262	 0.300174	 -0.540077
C	 3.737539	 -0.340578	 -0.363207
C	 2.438852	 0.457609	 -0.394198
H	 3.740894	 -1.112605	 -1.125441
H	 3.880952	 -0.824682	 0.597050
C	 1.209450	 -0.404650	 -0.149150
H	 2.329127	 0.954191	 -1.351868
H	 2.480625	 1.242070	 0.357768
N	 -0.006886	 0.376881	 -0.208086
H	 1.152759	 -1.173422	 -0.913967
H	 1.318162	 -0.927551	 0.805753
C	 -1.215959	 -0.382435	 0.027143
H	 0.047220	 1.133967	 0.440923
C	 -2.451944	 0.502410	 -0.038737
H	 -1.284466	 -1.151099	 -0.736820
H	 -1.195004	 -0.904538	 0.988417
C	 -3.752217	 -0.292550	 0.005776
H	 -2.407325	 1.093801	 -0.946480
H	 -2.431979	 1.206234	 0.790023
H	 -3.817783	 -0.982946	 -0.828547
H	 -4.612613	 0.364348	 -0.042306
H	 -3.830160	 -0.871666	 0.919868

	symmetry c1
}
set optking {
	frozen_dihedral = ("
		15 12 14 18
	")
}

ee = optimize('scf')
oeprop('DIPOLE', 'QUADRUPOLE', 'MULLIKEN_CHARGES')
f=open( 'psi4out.xyz', 'w' )
f.write( "22  " )
f.write( str(ee) + "\n" )
f.write( MOL.save_string_xyz() )
f.close()
--------------------------------------------------------------------------

    Molecular point group: c1
  Charge       = 0
  Multiplicity = 1
  Basis Set: CC-PVTZ
  Basis Set:
  @DF-RHF Final Energy:  -290.48989324634584
    Total Energy =                       -290.4898932463461279
    Molecular point group: c1
  Basis Set: CC-PVTZ
  Basis Set:
  Basis Set: CC-PVTZ
  Basis Set:
  @DF-RHF Final Energy:  -290.48992053521238
    Total Energy =                       -290.4899205352125477
  Basis Set: CC-PVTZ
  Basis Set:
  Basis Set: CC-PVTZ
  Basis Set:
  @DF-RHF Final Energy:  -290.48992698332938
    Total Energy =                       -290.4899269833291555
  Basis Set: CC-PVTZ
  Basis Set:
  Charge       = 0
  Multiplicity = 1
  Basis Set: CC-PVTZ
  Basis Set:

    Orbital Energies (a.u.)
    -----------------------

    Doubly Occupied:

       1A    -15.528282     2A    -11.236236     3A    -11.236128
       4A    -11.211804     5A    -11.211726     6A    -11.207671
       7A    -11.207553     8A     -1.207568     9A     -1.060430
      10A     -1.027139    11A     -0.928825    12A     -0.868980
      13A     -0.812206    14A     -0.794030    15A     -0.669141
      16A     -0.626905    17A     -0.616777    18A     -0.615168
      19A     -0.574002    20A     -0.563382    21A     -0.529634
      22A     -0.528800    23A     -0.516981    24A     -0.485882
      25A     -0.482415    26A     -0.474574    27A     -0.465781
      28A     -0.452008    29A     -0.361478

  @DF-RHF Final Energy:  -290.48992711050943

   => Energetics <=

    Nuclear Repulsion Energy =            313.6552551328708773
    One-Electron Energy =               -1013.2873556236759214
    Two-Electron Energy =                 409.1421733802958443
    DFT Exchange-Correlation Energy =       0.0000000000000000
    Empirical Dispersion Energy =           0.0000000000000000
    PCM Polarization Energy =               0.0000000000000000
    EFP Energy =                            0.0000000000000000
    Total Energy =                       -290.4899271105091429
    Molecular point group: c1
  Basis Set: CC-PVTZ
  Basis Set:

  -Total Gradient:
     Atom            X                  Y                   Z
    ------   -----------------  -----------------  -----------------
       1        0.000001147525    -0.000001020121    -0.000001458249
       2        0.000002469614     0.000000596720    -0.000009387316
       3        0.000005379172     0.000000280439     0.000001528384
       4        0.000001987249    -0.000002238799     0.000000596756
       5       -0.000002043530     0.000002767354    -0.000000122818
       6        0.000009112314    -0.000002894695     0.000023093240
       7        0.000005708000     0.000003190178    -0.000000224589
       8       -0.000003647213    -0.000002234675     0.000000586501
       9       -0.000002247818     0.000012532512    -0.000019379944
      10       -0.000004541323     0.000008216792    -0.000000902652
      11       -0.000003142165    -0.000003254610    -0.000000531950
      12        0.000958018838     0.001307151567    -0.001003130589
      13        0.000012480295     0.000003574771     0.000009024968
      14       -0.001037065309    -0.001493924602    -0.000660220791
      15       -0.000668115413    -0.000882255232     0.000944020965
      16        0.000005247599     0.000000612084     0.000002242932
      17       -0.000004511051    -0.000002339978    -0.000004852305
      18        0.000711521435     0.001040847773     0.000712458985
      19        0.000002090596     0.000001905603     0.000001779704
      20        0.000003693034     0.000003878317     0.000003860739
      21        0.000000360410     0.000001151179     0.000000535454
      22        0.000006097741     0.000003457423     0.000000482575

  **** Optimization is complete! (in 4 steps) ****
    Final optimized geometry and variables:
    Molecular point group: c1

    Geometry (in Angstrom), charge = 0, multiplicity = 1:

    H            4.600858121088     0.320595916628    -0.370624733191
    C            3.744679306655    -0.319960720365    -0.195160477136
    C            2.445567314056     0.476934864651    -0.237729390685
    H            3.752937626535    -1.096067268335    -0.953206400226
    H            3.882984209165    -0.798725526914     0.768517704752
    C            1.215406257352    -0.385355675280     0.003354579083
    H            2.341434294946     0.969210364794    -1.198218086991
    H            2.481862145589     1.264623402490     0.511144142501
    N           -0.001312814246     0.394523948105    -0.068181824422
    H            1.164669767875    -1.158038344909    -0.757946937128
    H            1.317954017071    -0.903259993995     0.961618651130
    C           -1.210901869158    -0.365582633723     0.158690550020
    H            0.046224395983     1.153046396059     0.579872354294
    C           -2.447857463608     0.519630275897     0.109029075462
    H           -1.284582051932    -1.131406460763    -0.607789481082
    H           -1.189743192385    -0.897937218929     1.114666010058
    C           -3.748705812566    -0.271581950914     0.176704462982
    H           -2.411878046778     1.115504906751    -0.796262017027
    H           -2.412907531928     1.224063819766     0.937189783479
    H           -3.838275048237    -0.949980463958    -0.664966097943
    H           -4.607912697216     0.388434054562     0.161337371694
    H           -3.803806952903    -0.862956864781     1.084731498490

  Mulliken Charges: (a.u.)
   Center  Symbol    Alpha    Beta     Spin     Total
       1     H     0.44770  0.44770  0.00000  0.10460
       2     C     3.15361  3.15361  0.00000 -0.30721
       3     C     3.08014  3.08014  0.00000 -0.16029
       4     H     0.45475  0.45475  0.00000  0.09051
       5     H     0.45614  0.45614  0.00000  0.08773
       6     C     3.02276  3.02276  0.00000 -0.04552
       7     H     0.44915  0.44915  0.00000  0.10170
       8     H     0.45970  0.45970  0.00000  0.08060
       9     N     3.63789  3.63789  0.00000 -0.27578
      10     H     0.45908  0.45908  0.00000  0.08184
      11     H     0.47464  0.47464  0.00000  0.05072
      12     C     3.02196  3.02196  0.00000 -0.04393
      13     H     0.44577  0.44577  0.00000  0.10845
      14     C     3.08187  3.08187  0.00000 -0.16373
      15     H     0.46010  0.46010  0.00000  0.07980
      16     H     0.47500  0.47500  0.00000  0.04999
      17     C     3.15308  3.15308  0.00000 -0.30617
      18     H     0.44912  0.44912  0.00000  0.10175
      19     H     0.45922  0.45922  0.00000  0.08156
      20     H     0.45442  0.45442  0.00000  0.09116
      21     H     0.44778  0.44778  0.00000  0.10444
      22     H     0.45612  0.45612  0.00000  0.08777

   Total alpha = 29.00000, Total beta = 29.00000, Total charge = -0.00000
