  ==> Input File <==

--------------------------------------------------------------------------
set {
	reference rhf
	basis 6-31G*
}

set_num_threads( 1 )
memory 2 gb

molecule MOL {
0 1

H	 -2.646374	 -0.642757	 1.268656
C	 -2.083525	 -0.384536	 0.393091
O	 -0.807605	 -0.127164	 0.768327
F	 -2.118945	 -1.383102	 -0.486752
F	 -2.621877	 0.670592	 -0.209486
C	 -0.372786	 1.184756	 0.718467
C	 0.989348	 1.176177	 0.036794
Cl	 -0.251343	 1.871846	 2.346463
H	 -1.033031	 1.813621	 0.147170
F	 1.463176	 2.400316	 -0.058648
F	 0.850661	 0.694832	 -1.182432
F	 1.859352	 0.435537	 0.679070

	symmetry c1
}
set optking {
	frozen_dihedral = ("
		10 7 6 9,
		9 6 3 2
	")
}

ee = energy('scf')
oeprop('DIPOLE', 'QUADRUPOLE', 'MULLIKEN_CHARGES')
f=open( 'psi4out.xyz', 'w' )
f.write( "12  " )
f.write( str(ee) + "\n" )
f.write( MOL.save_string_xyz() )
f.close()
--------------------------------------------------------------------------

    Molecular point group: c1

    Geometry (in Angstrom), charge = 0, multiplicity = 1:

       Center              X                  Y                   Z               Mass
    ------------   -----------------  -----------------  -----------------  -----------------
           H         -2.353923039430    -1.413854675661     0.803122475925     1.007825032070
           C         -1.791074039430    -1.155633675661    -0.072442524075    12.000000000000
           O         -0.515154039430    -0.898261675661     0.302793475925    15.994914619560
           F         -1.826494039430    -2.154199675661    -0.952285524075    18.998403224000
           F         -2.329426039430    -0.100505675661    -0.675019524075    18.998403224000
           C         -0.080335039430     0.413658324339     0.252933475925    12.000000000000
           C          1.281798960570     0.405079324339    -0.428739524075    12.000000000000
          CL          0.041107960570     1.100748324339     1.880929475925    34.968852682000
           H         -0.740580039430     1.042523324339    -0.318363524075     1.007825032070
           F          1.755626960570     1.629218324339    -0.524181524075    18.998403224000
           F          1.143111960570    -0.076265675661    -1.647965524075    18.998403224000
           F          2.151802960570    -0.335560675661     0.213536475925    18.998403224000

  Charge       = 0
  Multiplicity = 1
  Basis Set: 6-31G*
  Basis Set:

    Orbital Energies (a.u.)
    -----------------------

    Doubly Occupied:

       1A   -104.847202     2A    -26.359913     3A    -26.359048
       4A    -26.358495     5A    -26.356489     6A    -26.342044
       7A    -20.649336     8A    -11.526692     9A    -11.491705
      10A    -11.400330    11A    -10.582020    12A     -8.051356
      13A     -8.047896    14A     -8.047752    15A     -1.760546
      16A     -1.722377    17A     -1.657167    18A     -1.655611
      19A     -1.641347    20A     -1.487705    21A     -1.181965
      22A     -1.053722    23A     -0.985879    24A     -0.919317
      25A     -0.860712    26A     -0.848319    27A     -0.842188
      28A     -0.839391    29A     -0.823603    30A     -0.790460
      31A     -0.726662    32A     -0.724859    33A     -0.699705
      34A     -0.697645    35A     -0.680021    36A     -0.673254
      37A     -0.661817    38A     -0.657546    39A     -0.653247
      40A     -0.633403    41A     -0.605010    42A     -0.583506
      43A     -0.513533    44A     -0.481618    45A     -0.471726

  @DF-RHF Final Energy: -1146.30556230250409

   => Energetics <=

    Nuclear Repulsion Energy =            734.5266969556421373
    One-Electron Energy =               -3051.7561684600332228
    Two-Electron Energy =                1170.9239092018849533
    DFT Exchange-Correlation Energy =       0.0000000000000000
    Empirical Dispersion Energy =           0.0000000000000000
    PCM Polarization Energy =               0.0000000000000000
    EFP Energy =                            0.0000000000000000
    Total Energy =                      -1146.3055623025059049

  Mulliken Charges: (a.u.)
   Center  Symbol    Alpha    Beta     Spin     Total
       1     H     0.41128  0.41128  0.00000  0.17744
       2     C     2.56299  2.56299  0.00000  0.87401
       3     O     4.30304  4.30304  0.00000 -0.60608
       4     F     4.67555  4.67555  0.00000 -0.35111
       5     F     4.68376  4.68376  0.00000 -0.36751
       6     C     3.05039  3.05039  0.00000 -0.10077
       7     C     2.43136  2.43136  0.00000  1.13729
       8    CL     8.50553  8.50553  0.00000 -0.01106
       9     H     0.35740  0.35740  0.00000  0.28521
      10     F     4.67419  4.67419  0.00000 -0.34838
      11     F     4.67606  4.67606  0.00000 -0.35212
      12     F     4.66846  4.66846  0.00000 -0.33692

   Total alpha = 45.00000, Total beta = 45.00000, Total charge = -0.00000
