                              Psi4 1.0.54 Driver

  ==> Input File <==

--------------------------------------------------------------------------
set {
	reference rhf
	basis cc-pvtz
}

set_num_threads( 4 )
memory 2 gb

molecule MOL {
0 1

H	 2.251795	 0.625892	 -0.692231
O	 2.063695	 -0.083403	 -0.105237
C	 0.742924	 0.005675	 0.350750
H	 0.731380	 0.039219	 1.440080
C	 -0.064076	 -1.193495	 -0.124425
C	 -0.047832	 1.190568	 -0.194462
H	 0.194729	 -1.376165	 -1.161308
H	 0.163013	 -2.094508	 0.429933
C	 -1.533112	 -0.752002	 0.006102
H	 0.148003	 1.266545	 -1.259275
H	 0.226235	 2.136493	 0.259722
C	 -1.506634	 0.799189	 0.067162
H	 -2.124360	 -1.110499	 -0.826089
H	 -1.983103	 -1.158030	 0.903403
H	 -2.183808	 1.252169	 -0.644677
H	 -1.813926	 1.138698	 1.049457

	symmetry c1
}
set optking {
	frozen_dihedral = ("
		1 2 3 6
	")
}

ee,wfn = optimize('scf', return_wfn=True)
oeprop( wfn, 'DIPOLE', 'QUADRUPOLE', 'MULLIKEN_CHARGES')
f=open( 'psi4out.xyz', 'w' )
f.write( "16  " )
f.write( str(ee) + "\n" )
f.write( MOL.save_string_xyz() )
f.close()
--------------------------------------------------------------------------

    Molecular point group: c1
  Charge       = 0
  Multiplicity = 1
  Basis Set: CC-PVTZ
  Basis Set:
  @DF-RHF Final Energy:  -270.11400593296196
    Total Energy =                       -270.1140059329623000
    Molecular point group: c1
  Basis Set: CC-PVTZ
  Basis Set:
  Basis Set: CC-PVTZ
  Basis Set:
  @DF-RHF Final Energy:  -270.11452033962365
    Total Energy =                       -270.1145203396234820
  Basis Set: CC-PVTZ
  Basis Set:
  Basis Set: CC-PVTZ
  Basis Set:
  @DF-RHF Final Energy:  -270.11464671743840
    Total Energy =                       -270.1146467174384043
  Basis Set: CC-PVTZ
  Basis Set:
  Basis Set: CC-PVTZ
  Basis Set:
  @DF-RHF Final Energy:  -270.11465439120525
    Total Energy =                       -270.1146543912053630
  Basis Set: CC-PVTZ
  Basis Set:
  @DF-RHF Final Energy:  -270.11466470308437
    Total Energy =                       -270.1146647030843724
  @DF-RHF Final Energy:  -270.11467688552932
    Total Energy =                       -270.1146768855293203
  Basis Set: CC-PVTZ
  Basis Set:
  @DF-RHF Final Energy:  -270.11468710270799
    Total Energy =                       -270.1146871027082170
  Basis Set: CC-PVTZ
  Basis Set:
  Basis Set: CC-PVTZ
  Basis Set:
  @DF-RHF Final Energy:  -270.11469539144406
    Total Energy =                       -270.1146953914440019
  Basis Set: CC-PVTZ
  Basis Set:
  Basis Set: CC-PVTZ
  Basis Set:
  @DF-RHF Final Energy:  -270.11469750758852
    Total Energy =                       -270.1146975075885166
  Basis Set: CC-PVTZ
  Basis Set:
  Charge       = 0
  Multiplicity = 1
  Basis Set: CC-PVTZ
  Basis Set:

    Orbital Energies (a.u.)
    -----------------------

    Doubly Occupied:

       1A    -20.543356     2A    -11.267294     3A    -11.218729
       4A    -11.218084     5A    -11.215023     6A    -11.206979
       7A     -1.363876     8A     -1.117202     9A     -0.969984
      10A     -0.950035    11A     -0.801615    12A     -0.781802
      13A     -0.684097    14A     -0.667111    15A     -0.609539
      16A     -0.602662    17A     -0.576773    18A     -0.534626
      19A     -0.503740    20A     -0.485046    21A     -0.473458
      22A     -0.459172    23A     -0.449435    24A     -0.421129

  @DF-RHF Final Energy:  -270.11469795317339

   => Energetics <=

    Nuclear Repulsion Energy =            255.5578938693374482
    One-Electron Energy =                -873.1036508356954755
    Two-Electron Energy =                 347.4310590131844947
    DFT Exchange-Correlation Energy =       0.0000000000000000
    Empirical Dispersion Energy =           0.0000000000000000
    PCM Polarization Energy =               0.0000000000000000
    EFP Energy =                            0.0000000000000000
    Total Energy =                       -270.1146979531735042
    Molecular point group: c1
  Basis Set: CC-PVTZ
  Basis Set:

  -Total Gradient:
     Atom            X                  Y                   Z
    ------   -----------------  -----------------  -----------------
       1        0.000023264334     0.000046029188     0.000074400621
       2       -0.000041822887    -0.000067935065    -0.000107480863
       3        0.000032439864     0.000064275445     0.000086877357
       4       -0.000001631967    -0.000003869318    -0.000000642020
       5       -0.000000090953    -0.000000313755    -0.000003253910
       6       -0.000023018456    -0.000022552926    -0.000043166874
       7        0.000000840041    -0.000014468526     0.000001708222
       8        0.000001079342     0.000007249419     0.000009629873
       9        0.000003140892    -0.000005912687     0.000011700926
      10       -0.000002405634    -0.000020503762    -0.000001842781
      11        0.000001016132     0.000010798742    -0.000018958904
      12        0.000000445806     0.000006467385    -0.000014090878
      13        0.000020894838     0.000010349092    -0.000016098581
      14       -0.000024391721    -0.000009796379    -0.000015236747
      15       -0.000015778186     0.000015144745     0.000025506255
      16        0.000026018554    -0.000014961597     0.000010948304

  **** Optimization is complete! (in 10 steps) ****
    Final optimized geometry and variables:
    Molecular point group: c1

    Geometry (in Angstrom), charge = 0, multiplicity = 1:

    H            2.298034896080     0.662219625490    -0.618615187908
    O            2.086053921552    -0.077431961219    -0.081421801395
    C            0.747657240268    -0.018851257363     0.332295580978
    H            0.741412175233    -0.020240797381     1.419708662370
    C           -0.085011902323    -1.191412078196    -0.170832215501
    C           -0.035930670049     1.190440391960    -0.165485813018
    H            0.109221094554    -1.314722342959    -1.231416286644
    H            0.166376742844    -2.124548977097     0.316259663845
    C           -1.534843371656    -0.748343671863     0.073420989499
    H            0.157492552657     1.313306940161    -1.228912599674
    H            0.245871311629     2.112614535456     0.328508929072
    C           -1.504729317343     0.805099642901     0.067125892992
    H           -2.207135685954    -1.145277946959    -0.675487813098
    H           -1.887827274257    -1.110492154869     1.031215432834
    H           -2.151314474734     1.223998149511    -0.692346977390
    H           -1.849833789747     1.192289153702     1.017736192972

  Mulliken Charges: (a.u.)
   Center  Symbol    Alpha    Beta     Spin     Total
       1     H     0.39111  0.39111  0.00000  0.21778
       2     O     4.20888  4.20888  0.00000 -0.41775
       3     C     2.92501  2.92501  0.00000  0.14997
       4     H     0.45628  0.45628  0.00000  0.08745
       5     C     3.09147  3.09147  0.00000 -0.18294
       6     C     3.11627  3.11627  0.00000 -0.23254
       7     H     0.45838  0.45838  0.00000  0.08324
       8     H     0.44377  0.44377  0.00000  0.11246
       9     C     3.11464  3.11464  0.00000 -0.22929
      10     H     0.45843  0.45843  0.00000  0.08315
      11     H     0.44152  0.44152  0.00000  0.11697
      12     C     3.11017  3.11017  0.00000 -0.22035
      13     H     0.44404  0.44404  0.00000  0.11192
      14     H     0.44853  0.44853  0.00000  0.10293
      15     H     0.44408  0.44408  0.00000  0.11183
      16     H     0.44742  0.44742  0.00000  0.10516

   Total alpha = 24.00000, Total beta = 24.00000, Total charge =  0.00000

*** Psi4 exiting successfully. Buy a developer a beer!
