                              Psi4 1.0.54 Driver

  ==> Input File <==

--------------------------------------------------------------------------
set {
	reference rhf
	basis cc-pvtz
}

set_num_threads( 4 )
memory 2 gb

molecule MOL {
0 1

H	 1.979485	 0.430538	 1.057731
O	 1.205343	 -0.109547	 1.107524
C	 0.489979	 0.078084	 0.002623
C	 -0.763662	 -0.754014	 0.000816
O	 0.836146	 0.813650	 -0.855877
C	 -2.038001	 0.074705	 -0.000833
H	 -0.712945	 -1.405886	 -0.864342
H	 -0.715137	 -1.405770	 0.866182
H	 -2.087267	 0.710831	 -0.874232
H	 -2.903419	 -0.576199	 -0.001922
H	 -2.089467	 0.710909	 0.872389

	symmetry c1
}
set optking {
	frozen_dihedral = ("
		2 3 4 7
	")
}

ee,wfn = optimize('scf', return_wfn=True)
oeprop( wfn, 'DIPOLE', 'QUADRUPOLE', 'MULLIKEN_CHARGES')
f=open( 'psi4out.xyz', 'w' )
f.write( "11  " )
f.write( str(ee) + "\n" )
f.write( MOL.save_string_xyz() )
f.close()
--------------------------------------------------------------------------

    Molecular point group: c1
  Charge       = 0
  Multiplicity = 1
  Basis Set: CC-PVTZ
  Basis Set:
  @DF-RHF Final Energy:  -266.95060490538111
    Total Energy =                       -266.9506049053810557
    Molecular point group: c1
  Basis Set: CC-PVTZ
  Basis Set:
  Basis Set: CC-PVTZ
  Basis Set:
  @DF-RHF Final Energy:  -266.95100072529476
    Total Energy =                       -266.9510007252946480
  Basis Set: CC-PVTZ
  Basis Set:
  Basis Set: CC-PVTZ
  Basis Set:
  @DF-RHF Final Energy:  -266.95121635060701
    Total Energy =                       -266.9512163506069555
  Basis Set: CC-PVTZ
  Basis Set:
  Basis Set: CC-PVTZ
  Basis Set:
  @DF-RHF Final Energy:  -266.95120879718263
    Total Energy =                       -266.9512087971827441
  Basis Set: CC-PVTZ
  Basis Set:
  Basis Set: CC-PVTZ
  Basis Set:
  @DF-RHF Final Energy:  -266.95134928639789
    Total Energy =                       -266.9513492863980559
  Basis Set: CC-PVTZ
  Basis Set:
  Charge       = 0
  Multiplicity = 1
  Basis Set: CC-PVTZ
  Basis Set:

    Orbital Energies (a.u.)
    -----------------------

    Doubly Occupied:

       1A    -20.607505     2A    -20.538789     3A    -11.374275
       4A    -11.241673     5A    -11.225627     6A     -1.479282
       7A     -1.369362     8A     -1.067023     9A     -0.916215
      10A     -0.812696    11A     -0.707147    12A     -0.691370
      13A     -0.651216    14A     -0.612487    15A     -0.596475
      16A     -0.539094    17A     -0.527223    18A     -0.511763
      19A     -0.479111    20A     -0.446063

  @DF-RHF Final Energy:  -266.95134995805688

   => Energetics <=

    Nuclear Repulsion Energy =            180.1286384603396016
    One-Electron Energy =                -721.3711848657205792
    Two-Electron Energy =                 274.2911964473241824
    DFT Exchange-Correlation Energy =       0.0000000000000000
    Empirical Dispersion Energy =           0.0000000000000000
    PCM Polarization Energy =               0.0000000000000000
    EFP Energy =                            0.0000000000000000
    Total Energy =                       -266.9513499580567668
    Molecular point group: c1
  Basis Set: CC-PVTZ
  Basis Set:

  -Total Gradient:
     Atom            X                  Y                   Z
    ------   -----------------  -----------------  -----------------
       1       -0.000014713635    -0.000007960615    -0.000018109317
       2       -0.000234159084     0.000233702583     0.000182410704
       3        0.000216022805    -0.000349369150    -0.000222431617
       4        0.000236094642    -0.000216234864     0.000319929843
       5       -0.000006576081     0.000062073057    -0.000068532211
       6        0.000029826196     0.000001575778    -0.000007876132
       7       -0.000231545778     0.000294376637    -0.000193581144
       8        0.000004739522    -0.000023519803     0.000013822456
       9       -0.000009568011     0.000013676212    -0.000005235174
      10        0.000010220988    -0.000010242840    -0.000000209115
      11       -0.000000341564     0.000001923004    -0.000000188294

  **** Optimization is complete! (in 6 steps) ****
    Final optimized geometry and variables:
    Molecular point group: c1

    Geometry (in Angstrom), charge = 0, multiplicity = 1:

    H            2.046406082454     0.560406991409     0.825231784516
    O            1.340268988109    -0.058853745144     0.937478172148
    C            0.500356266376     0.075683590364    -0.082018529105
    C           -0.673846128808    -0.866397287015    -0.012172140086
    O            0.676374735291     0.867647760566    -0.943310655793
    C           -1.998191653289    -0.104003307267     0.027887225023
    H           -0.633493092064    -1.477251831328    -0.906100111481
    H           -0.569915160451    -1.514009687514     0.845822450109
    H           -2.092193793874     0.542922443715    -0.833113530701
    H           -2.827063214472    -0.800156779086     0.029087754440
    H           -2.071500391014     0.505182996742     0.921101151936

  Mulliken Charges: (a.u.)
   Center  Symbol    Alpha    Beta     Spin     Total
       1     H     0.37995  0.37995  0.00000  0.24009
       2     O     4.15900  4.15900  0.00000 -0.31800
       3     C     2.80182  2.80182  0.00000  0.39636
       4     C     3.09056  3.09056  0.00000 -0.18111
       5     O     4.19901  4.19901  0.00000 -0.39803
       6     C     3.14556  3.14556  0.00000 -0.29113
       7     H     0.44328  0.44328  0.00000  0.11344
       8     H     0.43863  0.43863  0.00000  0.12274
       9     H     0.44168  0.44168  0.00000  0.11664
      10     H     0.44835  0.44835  0.00000  0.10329
      11     H     0.45215  0.45215  0.00000  0.09571

   Total alpha = 20.00000, Total beta = 20.00000, Total charge = -0.00000

*** Psi4 exiting successfully. Buy a developer a beer!
