  ==> Input File <==

--------------------------------------------------------------------------
set {
	reference rhf
	basis cc-pvtz
}

set_num_threads( 4 )
memory 2 gb

molecule MOL {
0 1

O	 -0.294688	 1.318815	 -0.000872
C	 -0.448732	 0.145721	 -0.000187
C	 -1.780748	 -0.548101	 0.000195
O	 0.550743	 -0.719877	 0.000412
H	 -1.859389	 -1.183260	 -0.872613
H	 -2.570236	 0.185547	 -0.001342
H	 -1.860233	 -1.180337	 0.875064
C	 1.183235	 -0.978312	 1.238245
H	 1.611925	 -0.073548	 1.642791
H	 1.958480	 -1.697978	 1.031461
H	 0.478018	 -1.382945	 1.948852

	symmetry c1
}
set optking {
	frozen_dihedral = ("
		8 4 2 1
	")
}

ee = optimize('scf')
oeprop('DIPOLE', 'QUADRUPOLE', 'MULLIKEN_CHARGES')
f=open( 'psi4out.xyz', 'w' )
f.write( "11  " )
f.write( str(ee) + "\n" )
f.write( MOL.save_string_xyz() )
f.close()
--------------------------------------------------------------------------

    Molecular point group: c1
  Charge       = 0
  Multiplicity = 1
  Basis Set: CC-PVTZ
  Basis Set:
  @DF-RHF Final Energy:  -266.91958036367282
    Total Energy =                       -266.9195803636727078
    Molecular point group: c1
  Basis Set: CC-PVTZ
  Basis Set:
  Basis Set: CC-PVTZ
  Basis Set:
  @DF-RHF Final Energy:  -266.91828207520268
    Total Energy =                       -266.9182820752028533
  Basis Set: CC-PVTZ
  Basis Set:
  Basis Set: CC-PVTZ
  Basis Set:
  @DF-RHF Final Energy:  -266.92059453150466
    Total Energy =                       -266.9205945315047188
  Basis Set: CC-PVTZ
  Basis Set:
  Basis Set: CC-PVTZ
  Basis Set:
  @DF-RHF Final Energy:  -266.92087180955292
    Total Energy =                       -266.9208718095527502
  Basis Set: CC-PVTZ
  Basis Set:
  Basis Set: CC-PVTZ
  Basis Set:
  @DF-RHF Final Energy:  -266.92088023963026
    Total Energy =                       -266.9208802396301508
  Basis Set: CC-PVTZ
  Basis Set:
  Basis Set: CC-PVTZ
  Basis Set:
  @DF-RHF Final Energy:  -266.92088137677479
    Total Energy =                       -266.9208813767747870
  Basis Set: CC-PVTZ
  Basis Set:
  Charge       = 0
  Multiplicity = 1
  Basis Set: CC-PVTZ
  Basis Set:

    Orbital Energies (a.u.)
    -----------------------

    Doubly Occupied:

       1A    -20.580408     2A    -20.547276     3A    -11.372230
       4A    -11.289402     5A    -11.237354     6A     -1.464256
       7A     -1.371559     8A     -1.028969     9A     -0.961774
      10A     -0.779643    11A     -0.697165    12A     -0.686359
      13A     -0.671366    14A     -0.612613    15A     -0.591743
      16A     -0.577558    17A     -0.540951    18A     -0.502418
      19A     -0.461782    20A     -0.444947

  @DF-RHF Final Energy:  -266.92088149873121

   => Energetics <=

    Nuclear Repulsion Energy =            182.7516829907872307
    One-Electron Energy =                -726.5055822271745001
    Two-Electron Energy =                 276.8330177376559504
    DFT Exchange-Correlation Energy =       0.0000000000000000
    Empirical Dispersion Energy =           0.0000000000000000
    PCM Polarization Energy =               0.0000000000000000
    EFP Energy =                            0.0000000000000000
    Total Energy =                       -266.9208814987313190
    Molecular point group: c1
  Basis Set: CC-PVTZ
  Basis Set:

  -Total Gradient:
     Atom            X                  Y                   Z
    ------   -----------------  -----------------  -----------------
       1       -0.000129615324    -0.000125301075    -0.004832851517
       2       -0.000984990736    -0.001127870950     0.007425807423
       3       -0.000008042283     0.000011134996    -0.000019305244
       4        0.003598898080     0.004119256708    -0.003411238740
       5       -0.000000857396    -0.000007603346     0.000011610188
       6       -0.000001082662    -0.000009517998     0.000007239491
       7       -0.000003799789    -0.000003184913     0.000019220821
       8       -0.002468412892    -0.002858772243     0.000798890439
       9        0.000003121903     0.000007355695    -0.000000814708
      10       -0.000001444693    -0.000000684302     0.000000029684
      11       -0.000003774210    -0.000004812569     0.000001412160

  **** Optimization is complete! (in 7 steps) ****
    Final optimized geometry and variables:
    Molecular point group: c1

    Geometry (in Angstrom), charge = 0, multiplicity = 1:

    O           -0.140874678483     1.468266474892    -0.275491961426
    C           -0.320683683532     0.306633719853    -0.242394360149
    C           -1.669742866586    -0.352027003521    -0.279509248328
    O            0.700133272169    -0.575744217345    -0.252176142264
    H           -1.733439302611    -0.970085189237    -1.166333747320
    H           -2.449258749593     0.392523582841    -0.286776955734
    H           -1.784764665501    -1.004567649091     0.577769578660
    C            1.358998788338    -0.794175741321     0.975646798932
    H            1.773306360295     0.129090035749     1.358095031137
    H            2.154838551689    -1.494482689830     0.781354545543
    H            0.681780265587    -1.220849456474     1.707724837439

  Mulliken Charges: (a.u.)
   Center  Symbol    Alpha    Beta     Spin     Total
       1     O     4.16983  4.16983  0.00000 -0.33965
       2     C     2.79858  2.79858  0.00000  0.40284
       3     C     3.13867  3.13867  0.00000 -0.27734
       4     O     4.16702  4.16702  0.00000 -0.33404
       5     H     0.44340  0.44340  0.00000  0.11320
       6     H     0.43772  0.43772  0.00000  0.12457
       7     H     0.45070  0.45070  0.00000  0.09861
       8     C     3.02952  3.02952  0.00000 -0.05904
       9     H     0.45216  0.45216  0.00000  0.09569
      10     H     0.44423  0.44423  0.00000  0.11155
      11     H     0.46818  0.46818  0.00000  0.06363

   Total alpha = 20.00000, Total beta = 20.00000, Total charge = -0.00000
