  ==> Input File <==

--------------------------------------------------------------------------
set {
	reference rhf
	basis 6-31G*
}

set_num_threads( 4 )
memory 2 gb

molecule MOL {
0 1

O	 1.846825	 1.296220	 0.000415
C	 1.705091	 0.115954	 0.001797
C	 0.381791	 -0.609817	 0.001258
O	 2.721346	 -0.737485	 -0.000216
C	 -0.823008	 0.326187	 0.001381
H	 0.371250	 -1.265087	 -0.865474
H	 0.370908	 -1.265746	 0.867490
C	 -2.149452	 -0.435131	 -0.000098
H	 -0.770201	 0.977095	 -0.865636
H	 -0.771220	 0.975655	 0.869608
C	 -3.368779	 0.488503	 -0.000883
H	 -2.193746	 -1.087250	 -0.871175
H	 -2.195311	 -1.087803	 0.870418
C	 -3.611784	 1.154539	 -1.354617
H	 -3.239804	 1.254333	 0.760701
H	 -4.250510	 -0.080461	 0.285419
H	 -2.760159	 1.759571	 -1.652756
H	 -4.482361	 1.802275	 -1.323235
H	 -3.778453	 0.414081	 -2.131955
C	 4.024888	 -0.184556	 -0.001949
H	 4.179030	 0.422472	 -0.882452
H	 4.701782	 -1.024608	 -0.003642
H	 4.181981	 0.421185	 0.878906

	symmetry c1
}
set optking {
	frozen_dihedral = ("
		15 11 8 12
	")
}

ee = optimize('scf')
oeprop('DIPOLE', 'QUADRUPOLE', 'MULLIKEN_CHARGES')
f=open( 'psi4out.xyz', 'w' )
f.write( "23  " )
f.write( str(ee) + "\n" )
f.write( MOL.save_string_xyz() )
f.close()
--------------------------------------------------------------------------

    Molecular point group: c1
  Charge       = 0
  Multiplicity = 1
  Basis Set: 6-31G*
  Basis Set:
  @DF-RHF Final Energy:  -422.97429303849731
    Total Energy =                       -422.9742930384977626
    Molecular point group: c1
  Basis Set: 6-31G*
  Basis Set:
  Basis Set: 6-31G*
  Basis Set:
  @DF-RHF Final Energy:  -422.97439289613129
    Total Energy =                       -422.9743928961311212
  Basis Set: 6-31G*
  Basis Set:
  Basis Set: 6-31G*
  Basis Set:
  @DF-RHF Final Energy:  -422.97423493030510
    Total Energy =                       -422.9742349303051014
  Basis Set: 6-31G*
  Basis Set:
  Basis Set: 6-31G*
  Basis Set:
  @DF-RHF Final Energy:  -422.97449144044253
    Total Energy =                       -422.9744914404425344
  Basis Set: 6-31G*
  Basis Set:
  Basis Set: 6-31G*
  Basis Set:
  @DF-RHF Final Energy:  -422.97449331589081
    Total Energy =                       -422.9744933158899585
  Basis Set: 6-31G*
  Basis Set:
  Basis Set: 6-31G*
  Basis Set:
  @DF-RHF Final Energy:  -422.97449641205100
    Total Energy =                       -422.9744964120505983
  Basis Set: 6-31G*
  Basis Set:
  Charge       = 0
  Multiplicity = 1
  Basis Set: 6-31G*
  Basis Set:

    Orbital Energies (a.u.)
    -----------------------

    Doubly Occupied:

       1A    -20.603657     2A    -20.545469     3A    -11.372281
       4A    -11.280869     5A    -11.235500     6A    -11.218968
       7A    -11.218014     8A    -11.216673     9A    -11.208388
      10A     -1.469352    11A     -1.362794    12A     -1.092964
      13A     -1.042175    14A     -0.985447    15A     -0.931259
      16A     -0.853236    17A     -0.785981    18A     -0.767392
      19A     -0.696639    20A     -0.683464    21A     -0.672177
      22A     -0.643053    23A     -0.616263    24A     -0.597010
      25A     -0.587602    26A     -0.562488    27A     -0.532892
      28A     -0.528510    29A     -0.521515    30A     -0.510851
      31A     -0.490842    32A     -0.467252    33A     -0.462368
      34A     -0.459444    35A     -0.454739    36A     -0.435618

  @DF-RHF Final Energy:  -422.97449656351137

   => Energetics <=

    Nuclear Repulsion Energy =            456.5956002200965713
    One-Electron Energy =               -1480.9139012578391430
    Two-Electron Energy =                 601.3438044742308648
    DFT Exchange-Correlation Energy =       0.0000000000000000
    Empirical Dispersion Energy =           0.0000000000000000
    PCM Polarization Energy =               0.0000000000000000
    EFP Energy =                            0.0000000000000000
    Total Energy =                       -422.9744965635115932
    Molecular point group: c1
  Basis Set: 6-31G*
  Basis Set:

  -Total Gradient:
     Atom            X                  Y                   Z
    ------   -----------------  -----------------  -----------------
       1       -0.000000062335    -0.000003310869     0.000003441299
       2        0.000000090997     0.000006613194     0.000013957497
       3       -0.000003755998    -0.000006625276    -0.000020177719
       4       -0.000001893782    -0.000002404074    -0.000010458520
       5       -0.000008044839     0.000015375810     0.000011484470
       6       -0.000005149384    -0.000001646682     0.000011076209
       7        0.000006367157     0.000000839151     0.000010025269
       8       -0.000803626621    -0.001090070383     0.000739954737
       9       -0.000009576775     0.000007061946    -0.000003948119
      10        0.000013008416    -0.000004046072    -0.000003037627
      11       -0.000638908127    -0.000876188369     0.001110199706
      12        0.000771376709     0.001043519675    -0.000821738360
      13       -0.000012716775     0.000013198049    -0.000002160903
      14        0.000005310217    -0.000020304083    -0.000009438878
      15        0.000676584113     0.000922139612    -0.001028089074
      16        0.000011108937    -0.000002775492    -0.000002894671
      17        0.000001864933    -0.000000099666     0.000004642060
      18       -0.000001491262    -0.000005021622     0.000006033036
      19        0.000001282209     0.000002585682    -0.000009589061
      20       -0.000001278572     0.000001368295     0.000000370368
      21        0.000000678220    -0.000000511921     0.000000648004
      22       -0.000000957397     0.000000386640    -0.000000121762
      23       -0.000000210052    -0.000000083546    -0.000000177961

  **** Optimization is complete! (in 7 steps) ****
    Final optimized geometry and variables:
    Molecular point group: c1

    Geometry (in Angstrom), charge = 0, multiplicity = 1:

    O            1.736887416811     1.128124321836     0.138303909418
    C            1.588950691646    -0.051289941740     0.154387699898
    C            0.261789792794    -0.770028950314     0.155348615470
    O            2.600627521161    -0.909907218174     0.173087599181
    C           -0.937866137724     0.172794048066     0.145477776043
    H            0.250340030009    -1.430636102650    -0.707388908908
    H            0.244934676323    -1.420554727546     1.025520618760
    C           -2.266642981955    -0.588408233428     0.147969927863
    H           -0.870620233891     0.819158119130    -0.722460614106
    H           -0.887153491917     0.824146010513     1.012551963776
    C           -3.502085297953     0.320970749701     0.153294259389
    H           -2.306013268762    -1.239678602622    -0.723949177132
    H           -2.299172961216    -1.236949419471     1.020802976348
    C           -3.783716673278     0.995767807904    -1.190976312190
    H           -3.380214392200     1.087390698659     0.915504522364
    H           -4.371189216009    -0.265536139602     0.438929329194
    H           -2.968912876861     1.643267553075    -1.497935374851
    H           -4.680586502124     1.605122804772    -1.136709491512
    H           -3.933614709003     0.257323203832    -1.973900278883
    C            3.907098474487    -0.363854000290     0.173064960152
    H            4.071324558525     0.228772539968    -0.715383138741
    H            4.579503720328    -1.207397146575     0.189440295455
    H            4.060599870020     0.254424483844     1.045806882448

  Mulliken Charges: (a.u.)
   Center  Symbol    Alpha    Beta     Spin     Total
       1     O     4.28618  4.28618  0.00000 -0.57235
       2     C     2.60519  2.60519  0.00000  0.78961
       3     C     3.20773  3.20773  0.00000 -0.41546
       4     O     4.30721  4.30721  0.00000 -0.61442
       5     C     3.15396  3.15396  0.00000 -0.30792
       6     H     0.40064  0.40064  0.00000  0.19872
       7     H     0.40078  0.40078  0.00000  0.19844
       8     C     3.15541  3.15541  0.00000 -0.31082
       9     H     0.41008  0.41008  0.00000  0.17984
      10     H     0.41216  0.41216  0.00000  0.17567
      11     C     3.15319  3.15319  0.00000 -0.30637
      12     H     0.42411  0.42411  0.00000  0.15177
      13     H     0.42194  0.42194  0.00000  0.15611
      14     C     3.24153  3.24153  0.00000 -0.48306
      15     H     0.42120  0.42120  0.00000  0.15759
      16     H     0.42014  0.42014  0.00000  0.15971
      17     H     0.41838  0.41838  0.00000  0.16324
      18     H     0.41869  0.41869  0.00000  0.16263
      19     H     0.42245  0.42245  0.00000  0.15509
      20     C     3.09244  3.09244  0.00000 -0.18488
      21     H     0.40909  0.40909  0.00000  0.18182
      22     H     0.40842  0.40842  0.00000  0.18317
      23     H     0.40907  0.40907  0.00000  0.18187

   Total alpha = 36.00000, Total beta = 36.00000, Total charge =  0.00000
