  ==> Input File <==

--------------------------------------------------------------------------
set {
	reference rhf
	basis cc-pvtz
}

set_num_threads( 4 )
memory 2 gb

molecule MOL {
0 1

H	 5.269878	 0.195679	 1.068175
C	 4.673900	 -0.208485	 0.258034
C	 3.190199	 -0.204714	 0.610086
H	 4.865136	 0.391893	 -0.624684
H	 5.027838	 -1.214511	 0.056939
C	 2.319208	 -0.778154	 -0.505491
H	 2.876954	 0.809861	 0.827925
H	 3.035335	 -0.782733	 1.518235
C	 2.335851	 -2.301687	 -0.579364
H	 1.297665	 -0.442570	 -0.376410
H	 2.662350	 -0.387118	 -1.458973
C	 1.592199	 -2.999671	 0.546817
H	 1.864703	 -2.631174	 -1.501982
H	 3.353868	 -2.678011	 -0.618621
C	 1.885391	 -4.470234	 0.772326
O	 0.794080	 -2.427244	 1.216599
C	 1.491711	 -5.365984	 -0.407085
H	 1.347471	 -4.767761	 1.662246
H	 2.948191	 -4.581695	 0.970389
C	 1.710550	 -6.847310	 -0.111361
H	 0.445491	 -5.198923	 -0.648146
H	 2.061261	 -5.092738	 -1.289666
C	 1.315632	 -7.750710	 -1.274561
H	 1.140513	 -7.123589	 0.770569
H	 2.755550	 -7.012513	 0.136140
H	 0.266999	 -7.630467	 -1.524744
H	 1.895198	 -7.522503	 -2.162867
H	 1.479873	 -8.794066	 -1.032191

	symmetry c1
}
set optking {
	frozen_dihedral = ("
		10 6 3 2
	")
}

ee = optimize('scf')
oeprop('DIPOLE', 'QUADRUPOLE', 'MULLIKEN_CHARGES')
f=open( 'psi4out.xyz', 'w' )
f.write( "28  " )
f.write( str(ee) + "\n" )
f.write( MOL.save_string_xyz() )
f.close()
--------------------------------------------------------------------------

    Molecular point group: c1
  Charge       = 0
  Multiplicity = 1
  Basis Set: CC-PVTZ
  Basis Set:
  @DF-RHF Final Energy:  -426.31732411944824
    Total Energy =                       -426.3173241194477896
    Molecular point group: c1
  Basis Set: CC-PVTZ
  Basis Set:
  Basis Set: CC-PVTZ
  Basis Set:
  @DF-RHF Final Energy:  -426.31761558618939
    Total Energy =                       -426.3176155861891630
  Basis Set: CC-PVTZ
  Basis Set:
  Basis Set: CC-PVTZ
  Basis Set:
  @DF-RHF Final Energy:  -426.31745419680590
    Total Energy =                       -426.3174541968048743
  Basis Set: CC-PVTZ
  Basis Set:
  Basis Set: CC-PVTZ
  Basis Set:
  @DF-RHF Final Energy:  -426.31764462106617
    Total Energy =                       -426.3176446210660515
  Basis Set: CC-PVTZ
  Basis Set:
  Basis Set: CC-PVTZ
  Basis Set:
  @DF-RHF Final Energy:  -426.31763528934584
    Total Energy =                       -426.3176352893445937
  Basis Set: CC-PVTZ
  Basis Set:
  Basis Set: CC-PVTZ
  Basis Set:
  @DF-RHF Final Energy:  -426.31764650698233
    Total Energy =                       -426.3176465069827827
  Basis Set: CC-PVTZ
  Basis Set:
  Charge       = 0
  Multiplicity = 1
  Basis Set: CC-PVTZ
  Basis Set:

    Orbital Energies (a.u.)
    -----------------------

    Doubly Occupied:

       1A    -20.536538     2A    -11.316309     3A    -11.229782
       4A    -11.228036     5A    -11.226833     6A    -11.223766
       7A    -11.214794     8A    -11.214198     9A    -11.211329
      10A    -11.207688    11A     -1.396432    12A     -1.096118
      13A     -1.078752    14A     -1.022986    15A     -0.990614
      16A     -0.910726    17A     -0.879351    18A     -0.809225
      19A     -0.797506    20A     -0.721522    21A     -0.667287
      22A     -0.652759    23A     -0.641338    24A     -0.621915
      25A     -0.605595    26A     -0.598454    27A     -0.577452
      28A     -0.564911    29A     -0.542043    30A     -0.539379
      31A     -0.526786    32A     -0.510198    33A     -0.502840
      34A     -0.485620    35A     -0.480298    36A     -0.476582
      37A     -0.470038    38A     -0.461214    39A     -0.458934
      40A     -0.394088

  @DF-RHF Final Energy:  -426.31764666601850

   => Energetics <=

    Nuclear Repulsion Energy =            535.8429796001936438
    One-Electron Energy =               -1640.1407797527581351
    Two-Electron Energy =                 677.9801534865451913
    DFT Exchange-Correlation Energy =       0.0000000000000000
    Empirical Dispersion Energy =           0.0000000000000000
    PCM Polarization Energy =               0.0000000000000000
    EFP Energy =                            0.0000000000000000
    Total Energy =                       -426.3176466660191863
    Molecular point group: c1
  Basis Set: CC-PVTZ
  Basis Set:

  -Total Gradient:
     Atom            X                  Y                   Z
    ------   -----------------  -----------------  -----------------
       1        0.000001647145    -0.000002587487     0.000001180687
       2       -0.000145326402     0.001181786693    -0.000541135792
       3        0.000288565519    -0.001313442808     0.000497154115
       4       -0.000000341510    -0.000001150915     0.000000607047
       5        0.000003251644    -0.000000221756    -0.000001472017
       6       -0.000457246955    -0.001286117954     0.001075400733
       7       -0.000002740261     0.000008757811     0.000001120015
       8       -0.000002506276    -0.000007741710     0.000009245869
       9        0.000008306754     0.000001605530    -0.000003970547
      10        0.000326165154     0.001419770993    -0.001041649597
      11        0.000002397736     0.000006278939    -0.000005390301
      12        0.000005496472    -0.000011631972     0.000015549009
      13       -0.000009545449     0.000000610635     0.000002879801
      14        0.000000841541     0.000007938427    -0.000003292021
      15       -0.000032044938    -0.000009160614    -0.000023536540
      16       -0.000000644466    -0.000009396628    -0.000000584426
      17        0.000008255910     0.000001044621     0.000011857444
      18        0.000001148186     0.000000210717     0.000000594452
      19        0.000008480210     0.000012703812     0.000009843419
      20        0.000000297598     0.000000457931     0.000000660329
      21       -0.000004495531    -0.000003877372    -0.000003198523
      22       -0.000002639475     0.000002811270    -0.000000899157
      23        0.000002259233     0.000000808309    -0.000001002121
      24       -0.000000355116     0.000000627657    -0.000001052695
      25        0.000000532592    -0.000000198078     0.000001316055
      26        0.000000041541     0.000000108538     0.000000461024
      27       -0.000000237524    -0.000000327228    -0.000000755686
      28        0.000000436663     0.000000332642     0.000000069425

  **** Optimization is complete! (in 7 steps) ****
    Final optimized geometry and variables:
    Molecular point group: c1

    Geometry (in Angstrom), charge = 0, multiplicity = 1:

    H            3.095616216729     3.648521523431     1.043164310558
    C            2.537214730540     3.194295142336     0.232703822780
    C            1.043574941713     3.165332008813     0.548973693239
    H            2.732427847305     3.769625686750    -0.666184389978
    H            2.942117676757     2.199452760501     0.079750899195
    C            0.183514202248     2.549562288974    -0.559453631096
    H            0.709230264407     4.184458573417     0.712956869676
    H            0.869920318105     2.641923472736     1.482347864978
    C            0.219144121064     1.025189961551    -0.625584807563
    H           -0.842128347426     2.871380260927    -0.439496360234
    H            0.516348656855     2.939289228393    -1.517425538671
    C           -0.522006124187     0.327312265087     0.502493943903
    H           -0.246843813236     0.688413721069    -1.548082396324
    H            1.236989659964     0.651066912268    -0.662161890741
    C           -0.237887406817    -1.146740194456     0.718097828840
    O           -1.310419292327     0.901378862506     1.182084961478
    C           -0.658817698629    -2.034545178391    -0.457910156054
    H           -0.764581647899    -1.442703672726     1.615220921690
    H            0.826761100178    -1.269176008131     0.898908362072
    C           -0.449420239768    -3.518841912837    -0.170656971575
    H           -1.707095126804    -1.856683025341    -0.681507374844
    H           -0.100850328732    -1.763702611095    -1.348564290369
    C           -0.866817448608    -4.413949957839    -1.332357910264
    H           -1.010803282725    -3.793632622215     0.717258859482
    H            0.597102471357    -3.694219919999     0.062981728403
    H           -1.917650708484    -4.284264508143    -1.568125718956
    H           -0.297187975466    -4.186472738911    -2.227244116189
    H           -0.707732492013    -5.459604660487    -1.096573135760

  Mulliken Charges: (a.u.)
   Center  Symbol    Alpha    Beta     Spin     Total
       1     H     0.44640  0.44640  0.00000  0.10720
       2     C     3.14945  3.14945  0.00000 -0.29891
       3     C     3.09252  3.09252  0.00000 -0.18505
       4     H     0.45531  0.45531  0.00000  0.08938
       5     H     0.45894  0.45894  0.00000  0.08211
       6     C     3.09438  3.09438  0.00000 -0.18876
       7     H     0.44759  0.44759  0.00000  0.10482
       8     H     0.44656  0.44656  0.00000  0.10688
       9     C     3.13162  3.13162  0.00000 -0.26324
      10     H     0.43852  0.43852  0.00000  0.12296
      11     H     0.44865  0.44865  0.00000  0.10270
      12     C     2.86454  2.86454  0.00000  0.27092
      13     H     0.43302  0.43302  0.00000  0.13396
      14     H     0.44133  0.44133  0.00000  0.11734
      15     C     3.09373  3.09373  0.00000 -0.18745
      16     O     4.17785  4.17785  0.00000 -0.35571
      17     C     3.10083  3.10083  0.00000 -0.20166
      18     H     0.43775  0.43775  0.00000  0.12450
      19     H     0.44950  0.44950  0.00000  0.10100
      20     C     3.08729  3.08729  0.00000 -0.17459
      21     H     0.44560  0.44560  0.00000  0.10881
      22     H     0.45058  0.45058  0.00000  0.09885
      23     C     3.14920  3.14920  0.00000 -0.29840
      24     H     0.44979  0.44979  0.00000  0.10042
      25     H     0.45363  0.45363  0.00000  0.09273
      26     H     0.45342  0.45342  0.00000  0.09317
      27     H     0.45520  0.45520  0.00000  0.08960
      28     H     0.44680  0.44680  0.00000  0.10640

   Total alpha = 40.00000, Total beta = 40.00000, Total charge = -0.00000
