  ==> Input File <==

--------------------------------------------------------------------------
set {
	reference rhf
	basis 6-31G*
}

set_num_threads( 4 )
memory 2 gb

molecule MOL {
0 1

O	 -2.324811	 1.361668	 -0.277141
C	 -2.105949	 0.203097	 -0.092081
C	 -0.889235	 -0.467034	 -0.705952
C	 -3.002726	 -0.644460	 0.782455
C	 -0.390190	 -1.617489	 0.183178
H	 -0.111479	 0.283355	 -0.797137
H	 -1.118739	 -0.839001	 -1.700434
C	 0.856768	 -2.294476	 -0.390756
H	 -0.187624	 -1.218288	 1.170594
H	 -1.178901	 -2.359186	 0.299650
C	 1.356328	 -3.494845	 0.421407
H	 1.655896	 -1.560302	 -0.475065
H	 0.640287	 -2.627335	 -1.403766
C	 1.878745	 -3.144215	 1.815730
H	 2.152453	 -3.978790	 -0.138659
H	 0.557253	 -4.228473	 0.507177
H	 2.672323	 -2.404021	 1.760313
H	 2.282386	 -4.023990	 2.307126
H	 1.098227	 -2.744926	 2.454596
H	 -3.496582	 -1.399307	 0.176174
H	 -3.747939	 -0.023774	 1.260148
H	 -2.421318	 -1.168775	 1.535358

	symmetry c1
}
set optking {
	frozen_dihedral = ("
		6 3 2 1
	")
}

ee = optimize('scf')
oeprop('DIPOLE', 'QUADRUPOLE', 'MULLIKEN_CHARGES')
f=open( 'psi4out.xyz', 'w' )
f.write( "22  " )
f.write( str(ee) + "\n" )
f.write( MOL.save_string_xyz() )
f.close()
--------------------------------------------------------------------------

    Molecular point group: c1
  Charge       = 0
  Multiplicity = 1
  Basis Set: 6-31G*
  Basis Set:
  @DF-RHF Final Energy:  -348.09260742937624
    Total Energy =                       -348.0926074293763577
    Molecular point group: c1
  Basis Set: 6-31G*
  Basis Set:
  Basis Set: 6-31G*
  Basis Set:
  @DF-RHF Final Energy:  -348.09439879215756
    Total Energy =                       -348.0943987921581311
  Basis Set: 6-31G*
  Basis Set:
  Basis Set: 6-31G*
  Basis Set:
  @DF-RHF Final Energy:  -348.09614101085674
    Total Energy =                       -348.0961410108566270
  Basis Set: 6-31G*
  Basis Set:
  Basis Set: 6-31G*
  Basis Set:
  @DF-RHF Final Energy:  -348.09650950132237
    Total Energy =                       -348.0965095013220889
  Basis Set: 6-31G*
  Basis Set:
  @DF-RHF Final Energy:  -348.09648236309442
    Total Energy =                       -348.0964823630945375
  @DF-RHF Final Energy:  -348.09652720589452
    Total Energy =                       -348.0965272058945175
  Basis Set: 6-31G*
  Basis Set:
  @DF-RHF Final Energy:  -348.09662322044903
    Total Energy =                       -348.0966232204494872
  Basis Set: 6-31G*
  Basis Set:
  Basis Set: 6-31G*
  Basis Set:
  @DF-RHF Final Energy:  -348.09665260225489
    Total Energy =                       -348.0966526022550624
  Basis Set: 6-31G*
  Basis Set:
  Basis Set: 6-31G*
  Basis Set:
  @DF-RHF Final Energy:  -348.09666413781991
    Total Energy =                       -348.0966641378195732
  Basis Set: 6-31G*
  Basis Set:
  Charge       = 0
  Multiplicity = 1
  Basis Set: 6-31G*
  Basis Set:

    Orbital Energies (a.u.)
    -----------------------

    Doubly Occupied:

       1A    -20.546198     2A    -11.325229     3A    -11.231111
       4A    -11.230407     5A    -11.227502     6A    -11.224813
       7A    -11.223277     8A    -11.214911     9A     -1.392584
      10A     -1.098939    11A     -1.045612    12A     -0.996298
      13A     -0.941152    14A     -0.863604    15A     -0.789427
      16A     -0.731795    17A     -0.661735    18A     -0.646647
      19A     -0.632788    20A     -0.612499    21A     -0.608221
      22A     -0.583705    23A     -0.556753    24A     -0.543071
      25A     -0.535315    26A     -0.522875    27A     -0.504279
      28A     -0.480499    29A     -0.472596    30A     -0.470601
      31A     -0.464555    32A     -0.396139

  @DF-RHF Final Energy:  -348.09666499346855

   => Energetics <=

    Nuclear Repulsion Energy =            372.5243727906083109
    One-Electron Energy =               -1209.6918012847593218
    Two-Electron Energy =                 489.0707635006827445
    DFT Exchange-Correlation Energy =       0.0000000000000000
    Empirical Dispersion Energy =           0.0000000000000000
    PCM Polarization Energy =               0.0000000000000000
    EFP Energy =                            0.0000000000000000
    Total Energy =                       -348.0966649934682096
    Molecular point group: c1
  Basis Set: 6-31G*
  Basis Set:

  -Total Gradient:
     Atom            X                  Y                   Z
    ------   -----------------  -----------------  -----------------
       1       -0.000859198078    -0.000502271934    -0.001266413759
       2        0.001250698664     0.000591080703     0.001998679295
       3       -0.000952157799     0.000077081110    -0.002303739588
       4        0.000150437047     0.000101539076     0.000191303906
       5        0.000005171740     0.000061110012     0.000057289298
       6        0.000441147879    -0.000237224496     0.001494716409
       7        0.000020620736     0.000055663917    -0.000062300043
       8       -0.000012423550     0.000018428142     0.000013961055
       9       -0.000012038961    -0.000037521647     0.000008765345
      10        0.000003463531     0.000003294536    -0.000024037220
      11       -0.000013100028    -0.000031244671     0.000021293649
      12       -0.000023179343     0.000019525138    -0.000010396653
      13       -0.000015461104    -0.000002774034     0.000008549147
      14        0.000011842293    -0.000013713620     0.000006107251
      15        0.000003962774    -0.000011399691     0.000015606106
      16        0.000008198818    -0.000017386095     0.000006928288
      17        0.000001956690     0.000000824467     0.000001600382
      18        0.000001032918     0.000003742307    -0.000000281500
      19        0.000027335112    -0.000022885106    -0.000007380699
      20        0.000003358916    -0.000025779402    -0.000072175573
      21       -0.000033247486    -0.000013275954    -0.000040514697
      22       -0.000008420767    -0.000016812765    -0.000037560401

  **** Optimization is complete! (in 10 steps) ****
    Final optimized geometry and variables:
    Molecular point group: c1

    Geometry (in Angstrom), charge = 0, multiplicity = 1:

    O           -1.745961684241     2.628527103386    -0.620275720120
    C           -1.555976115321     1.490376392143    -0.315283236153
    C           -0.329898274199     0.756355060129    -0.840148131383
    C           -2.555040891194     0.737986482698     0.537737333166
    C            0.201657474483    -0.401579427066     0.010476576278
    H            0.441742607815     1.505762981286    -0.975899943205
    H           -0.592003274294     0.393369441281    -1.833100681701
    C            1.460512450581    -1.023660856761    -0.600707328731
    H            0.417384382138    -0.042051341489     1.012888294531
    H           -0.558133651124    -1.172187315786     0.114136167073
    C            2.001317961142    -2.242200777942     0.155897972577
    H            2.239853771202    -0.266751482926    -0.666898199719
    H            1.239236024212    -1.321544773264    -1.623496551689
    C            2.530827448524    -1.936955372486     1.558277210243
    H            2.803912025996    -2.680449790880    -0.431694420543
    H            1.223882007421    -3.000896777231     0.219323584896
    H            3.301032930921    -1.171122446080     1.526544199865
    H            2.967030261093    -2.824459434151     2.005838489924
    H            1.746896860545    -1.590687853181     2.223717134824
    H           -2.882907685003    -0.166982652927     0.034324726027
    H           -3.406939075988     1.374934666391     0.730065917707
    H           -2.108742300001     0.438497270431     1.480640347121

  Mulliken Charges: (a.u.)
   Center  Symbol    Alpha    Beta     Spin     Total
       1     O     4.26312  4.26312  0.00000 -0.52624
       2     C     2.73318  2.73318  0.00000  0.53363
       3     C     3.20588  3.20588  0.00000 -0.41175
       4     C     3.29201  3.29201  0.00000 -0.58403
       5     C     3.16489  3.16489  0.00000 -0.32977
       6     H     0.39902  0.39902  0.00000  0.20195
       7     H     0.40477  0.40477  0.00000  0.19046
       8     C     3.15308  3.15308  0.00000 -0.30616
       9     H     0.41647  0.41647  0.00000  0.16707
      10     H     0.41993  0.41993  0.00000  0.16015
      11     C     3.15308  3.15308  0.00000 -0.30615
      12     H     0.42045  0.42045  0.00000  0.15910
      13     H     0.42043  0.42043  0.00000  0.15914
      14     C     3.24177  3.24177  0.00000 -0.48353
      15     H     0.41865  0.41865  0.00000  0.16269
      16     H     0.42283  0.42283  0.00000  0.15434
      17     H     0.42070  0.42070  0.00000  0.15860
      18     H     0.41749  0.41749  0.00000  0.16502
      19     H     0.42086  0.42086  0.00000  0.15829
      20     H     0.40936  0.40936  0.00000  0.18129
      21     H     0.39570  0.39570  0.00000  0.20860
      22     H     0.40635  0.40635  0.00000  0.18730

   Total alpha = 32.00000, Total beta = 32.00000, Total charge =  0.00000
