  ==> Input File <==

--------------------------------------------------------------------------
set {
	reference rhf
	basis 6-31G*
}

set_num_threads( 4 )
memory 2 gb

molecule MOL {
0 1

O	 -2.977467	 0.991479	 -0.759698
C	 -2.668563	 0.129746	 -0.000350
C	 -3.582613	 -0.417635	 1.065556
O	 -1.481751	 -0.454642	 0.000584
H	 -4.475989	 -0.806475	 0.591697
H	 -3.106170	 -1.194770	 1.644781
H	 -3.883860	 0.394611	 1.716238
C	 -0.334255	 0.388708	 0.000906
C	 0.891947	 -0.504646	 0.000751
H	 -0.365390	 1.025305	 -0.873475
H	 -0.365484	 1.024911	 0.875569
C	 2.191998	 0.301789	 0.000897
H	 0.855148	 -1.151283	 -0.871571
H	 0.855132	 -1.151660	 0.872805
C	 3.441114	 -0.581407	 0.000108
H	 2.215074	 0.954890	 -0.869742
H	 2.215465	 0.953923	 0.872248
C	 4.739576	 0.224112	 -0.001102
H	 3.419457	 -1.233487	 -0.870178
H	 3.420834	 -1.233096	 0.870717
H	 4.804918	 0.861552	 -0.878265
H	 5.606527	 -0.429058	 -0.001824
H	 4.806469	 0.861674	 0.875853

	symmetry c1
}
set optking {
	frozen_dihedral = ("
		1 2 4 8
	")
}

ee = optimize('scf')
oeprop('DIPOLE', 'QUADRUPOLE', 'MULLIKEN_CHARGES')
f=open( 'psi4out.xyz', 'w' )
f.write( "23  " )
f.write( str(ee) + "\n" )
f.write( MOL.save_string_xyz() )
f.close()
--------------------------------------------------------------------------

    Molecular point group: c1
  Charge       = 0
  Multiplicity = 1
  Basis Set: 6-31G*
  Basis Set:
  @DF-RHF Final Energy:  -422.96678905387665
    Total Energy =                       -422.9667890538768233
    Molecular point group: c1
  Basis Set: 6-31G*
  Basis Set:
  Basis Set: 6-31G*
  Basis Set:
  @DF-RHF Final Energy:  -422.96447483118033
    Total Energy =                       -422.9644748311800413
  Basis Set: 6-31G*
  Basis Set:
  Basis Set: 6-31G*
  Basis Set:
  @DF-RHF Final Energy:  -422.96765019780958
    Total Energy =                       -422.9676501978100305
  Basis Set: 6-31G*
  Basis Set:
  Basis Set: 6-31G*
  Basis Set:
  @DF-RHF Final Energy:  -422.96772998814396
    Total Energy =                       -422.9677299881442423
  Basis Set: 6-31G*
  Basis Set:
  @DF-RHF Final Energy:  -422.96775906104591
    Total Energy =                       -422.9677590610458537
  @DF-RHF Final Energy:  -422.96730222057721
    Total Energy =                       -422.9673022205771531
  @DF-RHF Final Energy:  -422.89387443865098
    Total Energy =                       -422.8938744386517783
  @DF-RHF Final Energy:  -422.95888665220417
    Total Energy =                       -422.9588866522045691
  @DF-RHF Final Energy:  -422.96786642231348
    Total Energy =                       -422.9678664223135911
  @DF-RHF Final Energy:  -422.96821678960885
    Total Energy =                       -422.9682167896090732
  @DF-RHF Final Energy:  -422.96845984848460
    Total Energy =                       -422.9684598484843718
  @DF-RHF Final Energy:  -422.96874157087302
    Total Energy =                       -422.9687415708739309
  @DF-RHF Final Energy:  -422.96873222012016
    Total Energy =                       -422.9687322201197048
  @DF-RHF Final Energy:  -422.96873026586496
    Total Energy =                       -422.9687302658653607
  @DF-RHF Final Energy:  -422.95477203038985
    Total Energy =                       -422.9547720303900178
  @DF-RHF Final Energy:  -422.70358220200973
    Total Energy =                       -422.7035822020096703
  @DF-RHF Final Energy:  -422.76579607459166
    Total Energy =                       -422.7657960745921173
  @DF-RHF Final Energy:  -422.89565750547303
    Total Energy =                       -422.8956575054735367
  @DF-RHF Final Energy:  -422.90075919991335
    Total Energy =                       -422.9007591999138640
  @DF-RHF Final Energy:  -422.92764926801328
    Total Energy =                       -422.9276492680139654
  @DF-RHF Final Energy:  -422.96779063645664
    Total Energy =                       -422.9677906364572664
  @DF-RHF Final Energy:  -422.96823144585352
    Total Energy =                       -422.9682314458534620
  @DF-RHF Final Energy:  -422.96850911695282
    Total Energy =                       -422.9685091169529869
  @DF-RHF Final Energy:  -422.96868751629148
    Total Energy =                       -422.9686875162916522
  @DF-RHF Final Energy:  -422.96899192111368
    Total Energy =                       -422.9689919211134566
  @DF-RHF Final Energy:  -422.96926506225253
    Total Energy =                       -422.9692650622528163
  @DF-RHF Final Energy:  -422.96942269140635
    Total Energy =                       -422.9694226914061801
  @DF-RHF Final Energy:  -422.96944504716265
    Total Energy =                       -422.9694450471636173
  @DF-RHF Final Energy:  -422.96920262462322
    Total Energy =                       -422.9692026246228806
  @DF-RHF Final Energy:  -422.96945120241651
    Total Energy =                       -422.9694512024161668
  @DF-RHF Final Energy:  -422.96945849782242
    Total Energy =                       -422.9694584978220746
  @DF-RHF Final Energy:  -422.96946696255935
    Total Energy =                       -422.9694669625598635
  @DF-RHF Final Energy:  -422.96947531934552
    Total Energy =                       -422.9694753193448378
  @DF-RHF Final Energy:  -422.96947805291688
    Total Energy =                       -422.9694780529162017
  @DF-RHF Final Energy:  -422.96056687858095
    Total Energy =                       -422.9605668785812895
  @DF-RHF Final Energy:  -422.96891852436852
    Total Energy =                       -422.9689185243682914
  Basis Set: 6-31G*
  Basis Set:
  @DF-RHF Final Energy:  -422.96946806661754
    Total Energy =                       -422.9694680666169688
  Basis Set: 6-31G*
  Basis Set:
  Basis Set: 6-31G*
  Basis Set:
  @DF-RHF Final Energy:  -422.96948003302288
    Total Energy =                       -422.9694800330229327
  Basis Set: 6-31G*
  Basis Set:
  Basis Set: 6-31G*
  Basis Set:
  @DF-RHF Final Energy:  -422.96948106484649
    Total Energy =                       -422.9694810648469456
  Basis Set: 6-31G*
  Basis Set:
  Charge       = 0
  Multiplicity = 1
  Basis Set: 6-31G*
  Basis Set:

    Orbital Energies (a.u.)
    -----------------------

    Doubly Occupied:

       1A    -20.589755     2A    -20.549589     3A    -11.375417
       4A    -11.286151     5A    -11.233748     6A    -11.225259
       7A    -11.224635     8A    -11.222302     9A    -11.213549
      10A     -1.460403    11A     -1.363354    12A     -1.094329
      13A     -1.040517    14A     -1.005172    15A     -0.931464
      16A     -0.841453    17A     -0.803362    18A     -0.773316
      19A     -0.696369    20A     -0.683088    21A     -0.659512
      22A     -0.647513    23A     -0.612306    24A     -0.589147
      25A     -0.583888    26A     -0.569596    27A     -0.556729
      28A     -0.546432    29A     -0.515710    30A     -0.504427
      31A     -0.494103    32A     -0.478589    33A     -0.472189
      34A     -0.468697    35A     -0.449193    36A     -0.433475

  @DF-RHF Final Energy:  -422.96948133656730

   => Energetics <=

    Nuclear Repulsion Energy =            448.7922256191953352
    One-Electron Energy =               -1465.1339355288810111
    Two-Electron Energy =                 593.3722285731190595
    DFT Exchange-Correlation Energy =       0.0000000000000000
    Empirical Dispersion Energy =           0.0000000000000000
    PCM Polarization Energy =               0.0000000000000000
    EFP Energy =                            0.0000000000000000
    Total Energy =                       -422.9694813365666732
    Molecular point group: c1
  Basis Set: 6-31G*
  Basis Set:

  -Total Gradient:
     Atom            X                  Y                   Z
    ------   -----------------  -----------------  -----------------
       1       -0.002800084052    -0.007060511676    -0.005028895493
       2        0.004314755898     0.010581895130     0.011000512116
       3       -0.000040838732     0.000175247693     0.000200037803
       4       -0.001228647019    -0.004527299062    -0.013602471130
       5       -0.000006556507    -0.000030276653    -0.000035658845
       6        0.000024028519    -0.000008633251     0.000060600751
       7       -0.000013473549    -0.000008046307    -0.000021675791
       8       -0.000363613401     0.000752308409     0.007435079669
       9       -0.000024236018     0.000048903764     0.000007131595
      10        0.000006080948     0.000002480642    -0.000000878005
      11        0.000135413460     0.000092299950    -0.000002821072
      12       -0.000003301733    -0.000019606546     0.000038972675
      13        0.000016700658     0.000003544503    -0.000015731540
      14       -0.000025173323    -0.000015646497    -0.000020704362
      15        0.000004256173     0.000012367580    -0.000005534816
      16       -0.000003360453     0.000002638672     0.000003210450
      17        0.000005101413     0.000003969378    -0.000002143004
      18        0.000007474163    -0.000009867873    -0.000014468598
      19        0.000001072233     0.000000361943     0.000002819489
      20       -0.000004380882    -0.000000088242     0.000000859999
      21        0.000001724963     0.000000948093     0.000001373857
      22        0.000001456655     0.000002737409     0.000002610792
      23       -0.000004399417     0.000000272940    -0.000002226542

  **** Optimization is complete! (in 45 steps) ****
    Final optimized geometry and variables:
    Molecular point group: c1

    Geometry (in Angstrom), charge = 0, multiplicity = 1:

    O           -2.985717740110     0.849574234932    -0.893210727294
    C           -2.687893499963     0.093280240624    -0.030983574979
    C           -3.632754152248    -0.425579478062     1.018015010413
    O           -1.478331129413    -0.475934615774     0.059351300215
    H           -4.627998333400    -0.045615383480     0.840996012074
    H           -3.635507711491    -1.509260824447     1.001472344605
    H           -3.287690728448    -0.117172080886     1.999347057646
    C           -0.339771411948     0.374267758154    -0.023215215920
    C            0.898974243521    -0.500325977265     0.010349217036
    H           -0.389496625062     0.954698796392    -0.934330920796
    H           -0.354907639039     1.058315975483     0.819712637838
    C            2.189034936921     0.319789270116    -0.047366865130
    H            0.856697944786    -1.190323505049    -0.827450080616
    H            0.878362952505    -1.101715872534     0.914764296012
    C            3.448264498381    -0.548572536127    -0.020801312303
    H            2.193092222023     0.928226413523    -0.949964900449
    H            2.217036976517     1.015184340739     0.790034576991
    C            4.737091480894     0.270148719334    -0.079622768429
    H            3.422743829761    -1.243256606143    -0.857212532407
    H            3.446597562038    -1.156254144690     0.881318653574
    H            4.783965768171     0.863134732467    -0.988536403690
    H            5.611436181013    -0.372697836570    -0.058929110683
    H            4.807803753476     0.951856440451     0.763233105309

  Mulliken Charges: (a.u.)
   Center  Symbol    Alpha    Beta     Spin     Total
       1     O     4.26773  4.26773  0.00000 -0.53545
       2     C     2.61910  2.61910  0.00000  0.76181
       3     C     3.28419  3.28419  0.00000 -0.56838
       4     O     4.31901  4.31901  0.00000 -0.63803
       5     H     0.39783  0.39783  0.00000  0.20435
       6     H     0.39849  0.39849  0.00000  0.20302
       7     H     0.40459  0.40459  0.00000  0.19081
       8     C     2.99591  2.99591  0.00000  0.00819
       9     C     3.16450  3.16450  0.00000 -0.32900
      10     H     0.40493  0.40493  0.00000  0.19015
      11     H     0.42212  0.42212  0.00000  0.15576
      12     C     3.16054  3.16054  0.00000 -0.32109
      13     H     0.41127  0.41127  0.00000  0.17746
      14     H     0.41447  0.41447  0.00000  0.17107
      15     C     3.15149  3.15149  0.00000 -0.30298
      16     H     0.42003  0.42003  0.00000  0.15995
      17     H     0.42223  0.42223  0.00000  0.15555
      18     C     3.23991  3.23991  0.00000 -0.47983
      19     H     0.42056  0.42056  0.00000  0.15888
      20     H     0.42150  0.42150  0.00000  0.15701
      21     H     0.42056  0.42056  0.00000  0.15888
      22     H     0.41776  0.41776  0.00000  0.16447
      23     H     0.42129  0.42129  0.00000  0.15741

   Total alpha = 36.00000, Total beta = 36.00000, Total charge =  0.00000
