                              Psi4 1.0.54 Driver

  ==> Input File <==

--------------------------------------------------------------------------
set {
	reference rhf
	basis cc-pvtz
}

set_num_threads( 4 )
memory 2 gb

molecule MOL {
0 1

H	 0.141392	 -3.462118	 -1.214039
O	 0.387164	 -2.689139	 -0.728411
C	 -0.630937	 -1.833923	 -0.754794
C	 -0.318151	 -0.570512	 0.000144
O	 -1.642842	 -2.077192	 -1.315897
C	 -1.454884	 0.441630	 -0.000560
H	 -0.048925	 -0.859931	 1.010908
H	 0.582741	 -0.151488	 -0.436562
C	 -2.822577	 -0.232186	 0.000063
H	 -1.359760	 1.084704	 -0.867077
H	 -1.359641	 1.085996	 0.864983
H	 -2.954352	 -0.858985	 -0.875745
H	 -3.615886	 0.505352	 0.000019
H	 -2.953878	 -0.858359	 0.876394

	symmetry c1
}
set optking {
	frozen_dihedral = ("
		7 4 6 10
	")
}

ee,wfn = optimize('scf', return_wfn=True)
oeprop( wfn, 'DIPOLE', 'QUADRUPOLE', 'MULLIKEN_CHARGES')
f=open( 'psi4out.xyz', 'w' )
f.write( "14  " )
f.write( str(ee) + "\n" )
f.write( MOL.save_string_xyz() )
f.close()
--------------------------------------------------------------------------

    Molecular point group: c1
  Charge       = 0
  Multiplicity = 1
  Basis Set: CC-PVTZ
  Basis Set:
  @DF-RHF Final Energy:  -305.97965456637326
    Total Energy =                       -305.9796545663733127
    Molecular point group: c1
  Basis Set: CC-PVTZ
  Basis Set:
  Basis Set: CC-PVTZ
  Basis Set:
  @DF-RHF Final Energy:  -305.99137286483995
    Total Energy =                       -305.9913728648400593
  Basis Set: CC-PVTZ
  Basis Set:
  Basis Set: CC-PVTZ
  Basis Set:
  @DF-RHF Final Energy:  -305.99374795021066
    Total Energy =                       -305.9937479502107180
  Basis Set: CC-PVTZ
  Basis Set:
  Basis Set: CC-PVTZ
  Basis Set:
  @DF-RHF Final Energy:  -305.99444340557739
    Total Energy =                       -305.9944434055773286
  Basis Set: CC-PVTZ
  Basis Set:
  @DF-RHF Final Energy:  -305.99517410661508
    Total Energy =                       -305.9951741066150817
  @DF-RHF Final Energy:  -305.99564949753051
    Total Energy =                       -305.9956494975305645
  @DF-RHF Final Energy:  -305.99579651794090
    Total Energy =                       -305.9957965179409598
  @DF-RHF Final Energy:  -305.99588121414826
    Total Energy =                       -305.9958812141483122
  @DF-RHF Final Energy:  -305.99602355263301
    Total Energy =                       -305.9960235526331758
  @DF-RHF Final Energy:  -305.99606055904053
    Total Energy =                       -305.9960605590404157
  Basis Set: CC-PVTZ
  Basis Set:
  @DF-RHF Final Energy:  -305.99607728617752
    Total Energy =                       -305.9960772861771829
  Basis Set: CC-PVTZ
  Basis Set:
  Basis Set: CC-PVTZ
  Basis Set:
  @DF-RHF Final Energy:  -305.99608718733373
    Total Energy =                       -305.9960871873336714
  Basis Set: CC-PVTZ
  Basis Set:
  Basis Set: CC-PVTZ
  Basis Set:
  @DF-RHF Final Energy:  -305.99609181247581
    Total Energy =                       -305.9960918124757541
  Basis Set: CC-PVTZ
  Basis Set:
  Charge       = 0
  Multiplicity = 1
  Basis Set: CC-PVTZ
  Basis Set:

    Orbital Energies (a.u.)
    -----------------------

    Doubly Occupied:

       1A    -20.605886     2A    -20.539422     3A    -11.374976
       4A    -11.239993     5A    -11.227907     6A    -11.208263
       7A     -1.478807     8A     -1.369414     9A     -1.081041
      10A     -0.978096    11A     -0.865570    12A     -0.790357
      13A     -0.706660    14A     -0.689877    15A     -0.661051
      16A     -0.618705    17A     -0.595071    18A     -0.570481
      19A     -0.554868    20A     -0.504018    21A     -0.490704
      22A     -0.482835    23A     -0.479460    24A     -0.443099

  @DF-RHF Final Energy:  -305.99609213024252

   => Energetics <=

    Nuclear Repulsion Energy =            245.4185484194334208
    One-Electron Energy =                -903.7161628094722801
    Two-Electron Energy =                 352.3015222597961156
    DFT Exchange-Correlation Energy =       0.0000000000000000
    Empirical Dispersion Energy =           0.0000000000000000
    PCM Polarization Energy =               0.0000000000000000
    EFP Energy =                            0.0000000000000000
    Total Energy =                       -305.9960921302428005
    Molecular point group: c1
  Basis Set: CC-PVTZ
  Basis Set:

  -Total Gradient:
     Atom            X                  Y                   Z
    ------   -----------------  -----------------  -----------------
       1       -0.000001206982    -0.000003289145    -0.000003341247
       2        0.000006069235    -0.000015073657     0.000017720793
       3       -0.000003513664     0.000029595284    -0.000035029672
       4       -0.005299928525    -0.004543649704     0.001115955214
       5       -0.000015242397     0.000015164472     0.000021100236
       6       -0.003756438114    -0.004016730308    -0.003768802298
       7        0.004956945336     0.004388944878    -0.000305835623
       8        0.000009413403    -0.000001177140    -0.000006669749
       9        0.000029357846     0.000024193954     0.000009396161
      10        0.004064202497     0.004155473061     0.002980601561
      11        0.000004300207     0.000007832625     0.000001062853
      12        0.000004124765    -0.000026286473    -0.000023987493
      13       -0.000005583087    -0.000014124458    -0.000004602588
      14        0.000007499483    -0.000000873392     0.000002431850

  **** Optimization is complete! (in 14 steps) ****
    Final optimized geometry and variables:
    Molecular point group: c1

    Geometry (in Angstrom), charge = 0, multiplicity = 1:

    H            0.765540410627    -2.546929045027    -0.108587348944
    O            0.945795677010    -1.771056751278     0.401186986270
    C            0.437918881124    -0.723176210746    -0.238614345009
    C            0.747897571973     0.574623940375     0.454303477394
    O           -0.144544881700    -0.833860341404    -1.262487984556
    C           -0.267396299442     1.706937797038     0.259419492123
    H            0.960432506660     0.406568220221     1.501056153882
    H            1.700884423638     0.885050082605     0.031366991771
    C           -1.733754761970     1.318691060497     0.411010116280
    H           -0.084284454517     2.204665217923    -0.684811264714
    H           -0.029211104396     2.453035161498     1.011851047288
    H           -2.052922004789     0.649427776948    -0.374423306490
    H           -2.359824753517     2.202384170675     0.376874663525
    H           -1.908997097568     0.830864984548     1.365280897229

  Mulliken Charges: (a.u.)
   Center  Symbol    Alpha    Beta     Spin     Total
       1     H     0.38110  0.38110  0.00000  0.23780
       2     O     4.15953  4.15953  0.00000 -0.31907
       3     C     2.79972  2.79972  0.00000  0.40056
       4     C     3.11228  3.11228  0.00000 -0.22456
       5     O     4.19719  4.19719  0.00000 -0.39439
       6     C     3.07975  3.07975  0.00000 -0.15950
       7     H     0.43358  0.43358  0.00000  0.13285
       8     H     0.43844  0.43844  0.00000  0.12312
       9     C     3.15763  3.15763  0.00000 -0.31526
      10     H     0.44772  0.44772  0.00000  0.10455
      11     H     0.45046  0.45046  0.00000  0.09908
      12     H     0.43825  0.43825  0.00000  0.12349
      13     H     0.44823  0.44823  0.00000  0.10354
      14     H     0.45610  0.45610  0.00000  0.08779

   Total alpha = 24.00000, Total beta = 24.00000, Total charge =  0.00000

*** Psi4 exiting successfully. Buy a developer a beer!
