  ==> Input File <==

--------------------------------------------------------------------------
set {
	reference rhf
	basis 6-31G*
}

set_num_threads( 4 )
memory 2 gb

molecule MOL {
0 1

H	 -2.273092	 1.173159	 0.000295
O	 -1.438904	 1.618192	 0.000114
C	 -0.409536	 0.736003	 0.000030
C	 0.820130	 1.215387	 0.423482
C	 -0.563217	 -0.588926	 -0.402324
H	 0.894663	 2.243697	 0.725165
C	 1.915884	 0.373895	 0.450415
C	 0.555442	 -1.412453	 -0.364994
C	 -1.905677	 -1.110008	 -0.864146
H	 2.867153	 0.751984	 0.780005
C	 1.789167	 -0.948141	 0.055271
H	 0.453256	 -2.438725	 -0.672680
H	 -2.271021	 -0.574643	 -1.738132
H	 -1.837037	 -2.155500	 -1.136562
H	 -2.662300	 -1.030699	 -0.086181
H	 2.637148	 -1.608285	 0.073640

	symmetry c1
}
set optking {
	frozen_dihedral = ("
		4 3 2 1
	")
}

ee = optimize('scf')
oeprop('DIPOLE', 'QUADRUPOLE', 'MULLIKEN_CHARGES')
f=open( 'psi4out.xyz', 'w' )
f.write( "16  " )
f.write( str(ee) + "\n" )
f.write( MOL.save_string_xyz() )
f.close()
--------------------------------------------------------------------------

    Molecular point group: c1
  Charge       = 0
  Multiplicity = 1
  Basis Set: 6-31G*
  Basis Set:
  @DF-RHF Final Energy:  -344.59336153355167
    Total Energy =                       -344.5933615335515015
    Molecular point group: c1
  Basis Set: 6-31G*
  Basis Set:
  Basis Set: 6-31G*
  Basis Set:
  @DF-RHF Final Energy:  -344.59342316380673
    Total Energy =                       -344.5934231638068468
  Basis Set: 6-31G*
  Basis Set:
  Basis Set: 6-31G*
  Basis Set:
  @DF-RHF Final Energy:  -344.59343601795894
    Total Energy =                       -344.5934360179592204
  Basis Set: 6-31G*
  Basis Set:
  Basis Set: 6-31G*
  Basis Set:
  @DF-RHF Final Energy:  -344.59343724380858
    Total Energy =                       -344.5934372438088076
  Basis Set: 6-31G*
  Basis Set:
  Charge       = 0
  Multiplicity = 1
  Basis Set: 6-31G*
  Basis Set:

    Orbital Energies (a.u.)
    -----------------------

    Doubly Occupied:

       1A    -20.586269     2A    -11.291359     3A    -11.235073
       4A    -11.233033     5A    -11.230961     6A    -11.229639
       7A    -11.220011     8A    -11.219673     9A     -1.404340
      10A     -1.148719    11A     -1.048314    12A     -1.004009
      13A     -0.940881    14A     -0.824786    15A     -0.818520
      16A     -0.729430    17A     -0.675592    18A     -0.643855
      19A     -0.610814    20A     -0.598520    21A     -0.574444
      22A     -0.568520    23A     -0.554501    24A     -0.547665
      25A     -0.502482    26A     -0.482905    27A     -0.471911
      28A     -0.329206    29A     -0.305766

  @DF-RHF Final Energy:  -344.59343736295290

   => Energetics <=

    Nuclear Repulsion Energy =            350.1240571373827493
    One-Electron Energy =               -1161.3725913375396885
    Two-Electron Energy =                 466.6550968372039847
    DFT Exchange-Correlation Energy =       0.0000000000000000
    Empirical Dispersion Energy =           0.0000000000000000
    PCM Polarization Energy =               0.0000000000000000
    EFP Energy =                            0.0000000000000000
    Total Energy =                       -344.5934373629528977
    Molecular point group: c1
  Basis Set: 6-31G*
  Basis Set:

  -Total Gradient:
     Atom            X                  Y                   Z
    ------   -----------------  -----------------  -----------------
       1       -0.000004414869     0.000020175460     0.001019171230
       2       -0.000089359728    -0.000088749969    -0.000952186273
       3        0.000255270929     0.000216626850    -0.000765885131
       4       -0.000153315860    -0.000180131844     0.000707210467
       5       -0.000014505315     0.000026214416     0.000003976625
       6        0.000000746974     0.000000712444    -0.000008692118
       7       -0.000007588425     0.000020968336     0.000002372562
       8        0.000028405971    -0.000007144608     0.000030152267
       9        0.000003747990     0.000003522493    -0.000016740078
      10        0.000002082844    -0.000005427658    -0.000001057383
      11       -0.000015653314    -0.000013230051    -0.000026993534
      12       -0.000001404574     0.000004440277    -0.000003383639
      13       -0.000003769453    -0.000005026005    -0.000003634330
      14       -0.000000548251     0.000005810955    -0.000000201435
      15       -0.000004286350    -0.000001305817     0.000009897339
      16        0.000004591433     0.000002544721     0.000005993432

  **** Optimization is complete! (in 5 steps) ****
    Final optimized geometry and variables:
    Molecular point group: c1

    Geometry (in Angstrom), charge = 0, multiplicity = 1:

    H           -2.284094974956     1.157391760930     0.081408869870
    O           -1.451041946185     1.605381278457     0.077838054291
    C           -0.419494400805     0.722567430856     0.098028783172
    C            0.809744116771     1.203496708125     0.518321421228
    C           -0.574629779090    -0.604247134452    -0.297898193896
    H            0.884582883602     2.232544421280     0.817395475473
    C            1.907128555811     0.362680495576     0.543778657023
    C            0.541979113664    -1.429394736068    -0.254052130643
    C           -1.916721685931    -1.119972015894    -0.764724240251
    H            2.859462973393     0.742076496552     0.868695732553
    C            1.777507491438    -0.961707650129     0.159586086392
    H            0.439050758385    -2.457289190667    -0.555944433279
    H           -2.301097479777    -0.538888689615    -1.598782660877
    H           -1.839153426543    -2.148987714185    -1.092328108184
    H           -2.663216369544    -1.094690846419     0.027796938174
    H            2.625430256684    -1.621983873926     0.180210459176

  Mulliken Charges: (a.u.)
   Center  Symbol    Alpha    Beta     Spin     Total
       1     H     0.26747  0.26747  0.00000  0.46506
       2     O     4.38262  4.38262  0.00000 -0.76524
       3     C     2.81944  2.81944  0.00000  0.36113
       4     C     3.11838  3.11838  0.00000 -0.23675
       5     C     3.00571  3.00571  0.00000 -0.01141
       6     H     0.39219  0.39219  0.00000  0.21563
       7     C     3.09611  3.09611  0.00000 -0.19223
       8     C     3.10733  3.10733  0.00000 -0.21466
       9     C     3.27228  3.27228  0.00000 -0.54455
      10     H     0.39895  0.39895  0.00000  0.20210
      11     C     3.10785  3.10785  0.00000 -0.21570
      12     H     0.40162  0.40162  0.00000  0.19675
      13     H     0.40763  0.40763  0.00000  0.18474
      14     H     0.40508  0.40508  0.00000  0.18984
      15     H     0.41634  0.41634  0.00000  0.16733
      16     H     0.40101  0.40101  0.00000  0.19798

   Total alpha = 29.00000, Total beta = 29.00000, Total charge = -0.00000
