                              Psi4 1.0.54 Driver

  ==> Input File <==

--------------------------------------------------------------------------
set {
	reference rhf
	basis cc-pvtz
}

set_num_threads( 4 )
memory 2 gb

molecule MOL {
0 1

H	 -0.000105	 1.988529	 0.748933
O	 -0.000098	 1.879786	 -0.188206
C	 -0.000014	 0.545691	 -0.532416
C	 -0.404972	 0.378337	 -1.997946
C	 -0.851558	 -0.254496	 0.454675
H	 1.012256	 0.179786	 -0.442508
F	 0.442399	 1.026980	 -2.758264
F	 -0.404502	 -0.875467	 -2.374362
F	 -1.603118	 0.873439	 -2.223103
F	 -0.362469	 -0.113583	 1.662066
F	 -0.868648	 -1.533163	 0.174620
F	 -2.094319	 0.177391	 0.474572

	symmetry c1
}
set optking {
	frozen_dihedral = ("
		6 3 2 1
	")
}

ee,wfn = optimize('scf', return_wfn=True)
oeprop( wfn, 'DIPOLE', 'QUADRUPOLE', 'MULLIKEN_CHARGES')
f=open( 'psi4out.xyz', 'w' )
f.write( "12  " )
f.write( str(ee) + "\n" )
f.write( MOL.save_string_xyz() )
f.close()
--------------------------------------------------------------------------

    Molecular point group: c1
  Charge       = 0
  Multiplicity = 1
  Basis Set: CC-PVTZ
  Basis Set:
  @DF-RHF Final Energy:  -786.58488407550203
    Total Energy =                       -786.5848840755024867
    Molecular point group: c1
  Basis Set: CC-PVTZ
  Basis Set:
  Basis Set: CC-PVTZ
  Basis Set:
  @DF-RHF Final Energy:  -786.56558085603297
    Total Energy =                       -786.5655808560329660
  Basis Set: CC-PVTZ
  Basis Set:
  Basis Set: CC-PVTZ
  Basis Set:
  @DF-RHF Final Energy:  -786.58630169401204
    Total Energy =                       -786.5863016940123771
  Basis Set: CC-PVTZ
  Basis Set:
  Basis Set: CC-PVTZ
  Basis Set:
  @DF-RHF Final Energy:  -786.58705925454751
    Total Energy =                       -786.5870592545470572
  Basis Set: CC-PVTZ
  Basis Set:
  @DF-RHF Final Energy:  -786.58719464059504
    Total Energy =                       -786.5871946405948165
  Basis Set: CC-PVTZ
  Basis Set:
  @DF-RHF Final Energy:  -786.58722509143081
    Total Energy =                       -786.5872250914303550
  Basis Set: CC-PVTZ
  Basis Set:
  Basis Set: CC-PVTZ
  Basis Set:
  @DF-RHF Final Energy:  -786.58723012121993
    Total Energy =                       -786.5872301212201592
  Basis Set: CC-PVTZ
  Basis Set:
  Basis Set: CC-PVTZ
  Basis Set:
  @DF-RHF Final Energy:  -786.58723349917477
    Total Energy =                       -786.5872334991749995
  Basis Set: CC-PVTZ
  Basis Set:
  Charge       = 0
  Multiplicity = 1
  Basis Set: CC-PVTZ
  Basis Set:

    Orbital Energies (a.u.)
    -----------------------

    Doubly Occupied:

       1A    -26.364116     2A    -26.360563     3A    -26.358749
       4A    -26.351744     5A    -26.348116     6A    -26.347954
       7A    -20.608022     8A    -11.524050     9A    -11.515638
      10A    -11.351600    11A     -1.774289    12A     -1.762257
      13A     -1.669386    14A     -1.667838    15A     -1.657636
      16A     -1.655807    17A     -1.438447    18A     -1.104747
      19A     -1.002145    20A     -0.942319    21A     -0.875884
      22A     -0.866579    23A     -0.861924    24A     -0.849451
      25A     -0.838918    26A     -0.794291    27A     -0.757387
      28A     -0.739875    29A     -0.726864    30A     -0.724745
      31A     -0.718959    32A     -0.693576    33A     -0.690042
      34A     -0.675218    35A     -0.674340    36A     -0.669968
      37A     -0.658992    38A     -0.648708    39A     -0.621858
      40A     -0.549574    41A     -0.508995

  @DF-RHF Final Energy:  -786.58723378413276

   => Energetics <=

    Nuclear Repulsion Energy =            671.2005551427283763
    One-Electron Energy =               -2429.6724306357255045
    Two-Electron Energy =                 971.8846417088645921
    DFT Exchange-Correlation Energy =       0.0000000000000000
    Empirical Dispersion Energy =           0.0000000000000000
    PCM Polarization Energy =               0.0000000000000000
    EFP Energy =                            0.0000000000000000
    Total Energy =                       -786.5872337841326498
    Molecular point group: c1
  Basis Set: CC-PVTZ
  Basis Set:

  -Total Gradient:
     Atom            X                  Y                   Z
    ------   -----------------  -----------------  -----------------
       1       -0.002024772405     0.000139469578    -0.000412370908
       2        0.002712801668    -0.000137834870     0.000033290994
       3       -0.001352181855     0.000109764803     0.002080505682
       4       -0.000010726264    -0.000011571854     0.000085940773
       5       -0.000001904384    -0.000001062061    -0.000081214866
       6        0.000654565593    -0.000094697216    -0.001683801479
       7       -0.000027150251     0.000023464481    -0.000047431663
       8       -0.000018256672    -0.000007900057     0.000016972944
       9        0.000051003617    -0.000007675831    -0.000016543113
      10       -0.000007478259     0.000034576591     0.000009033110
      11        0.000035186899    -0.000096210354     0.000004445619
      12       -0.000011087686     0.000049676786     0.000011172893

  **** Optimization is complete! (in 9 steps) ****
    Final optimized geometry and variables:
    Molecular point group: c1

    Geometry (in Angstrom), charge = 0, multiplicity = 1:

    H            0.562305203674     2.081758638837     1.099090357373
    O            0.714127875492     1.714668407470     0.245690026851
    C            0.629066758459     0.338449707020     0.268262054566
    C            0.497708809370    -0.117414905667    -1.183870614195
    C           -0.509788227617    -0.138227801614     1.169639364423
    H            1.537162705490    -0.122570888762     0.642417623121
    F            1.572471440266     0.235642072933    -1.846046264808
    F            0.395913522550    -1.425395497075    -1.251572479247
    F           -0.538239321928     0.403644927201    -1.784905042530
    F           -0.367522971204     0.436505584708     2.351924991420
    F           -0.471011254334    -1.432784535480     1.351437470094
    F           -1.693922938296     0.182559458283     0.719475534997

  Mulliken Charges: (a.u.)
   Center  Symbol    Alpha    Beta     Spin     Total
       1     H     0.38341  0.38341  0.00000  0.23318
       2     O     4.18611  4.18611  0.00000 -0.37222
       3     C     2.99608  2.99608  0.00000  0.00784
       4     C     2.67774  2.67774  0.00000  0.64452
       5     C     2.68438  2.68438  0.00000  0.63124
       6     H     0.44502  0.44502  0.00000  0.10997
       7     F     4.60369  4.60369  0.00000 -0.20738
       8     F     4.60638  4.60638  0.00000 -0.21277
       9     F     4.60148  4.60148  0.00000 -0.20296
      10     F     4.61457  4.61457  0.00000 -0.22913
      11     F     4.60137  4.60137  0.00000 -0.20274
      12     F     4.59978  4.59978  0.00000 -0.19955

   Total alpha = 41.00000, Total beta = 41.00000, Total charge =  0.00000

*** Psi4 exiting successfully. Buy a developer a beer!
