  ==> Input File <==

--------------------------------------------------------------------------
set {
	reference rhf
	basis 6-31G*
}

set_num_threads( 4 )
memory 2 gb

molecule MOL {
0 1

H	 2.143225	 -0.829151	 -0.694633
O	 2.064459	 -0.086912	 -0.111827
C	 0.745630	 0.005118	 0.354752
H	 0.739005	 0.037656	 1.444976
C	 -0.064159	 -1.194875	 -0.122754
C	 -0.046302	 1.193543	 -0.190431
H	 0.197384	 -1.376065	 -1.160690
H	 0.162855	 -2.097978	 0.431858
C	 -1.535782	 -0.752177	 0.006642
H	 0.154512	 1.271315	 -1.255561
H	 0.226209	 2.140461	 0.267302
C	 -1.509193	 0.801505	 0.065617
H	 -2.127797	 -1.112194	 -0.826847
H	 -1.986849	 -1.158408	 0.905561
H	 -2.183670	 1.254107	 -0.651985
H	 -1.821727	 1.144320	 1.047089

	symmetry c1
}
set optking {
	frozen_dihedral = ("
		1 2 3 6
	")
}

ee = optimize('scf')
oeprop('DIPOLE', 'QUADRUPOLE', 'MULLIKEN_CHARGES')
f=open( 'psi4out.xyz', 'w' )
f.write( "16  " )
f.write( str(ee) + "\n" )
f.write( MOL.save_string_xyz() )
f.close()
--------------------------------------------------------------------------

    Molecular point group: c1
  Charge       = 0
  Multiplicity = 1
  Basis Set: 6-31G*
  Basis Set:
  @DF-RHF Final Energy:  -270.01021810655868
    Total Energy =                       -270.0102181065586819
    Molecular point group: c1
  Basis Set: 6-31G*
  Basis Set:
  Basis Set: 6-31G*
  Basis Set:
  @DF-RHF Final Energy:  -270.01185456906398
    Total Energy =                       -270.0118545690639849
  Basis Set: 6-31G*
  Basis Set:
  Basis Set: 6-31G*
  Basis Set:
  @DF-RHF Final Energy:  -270.01209632198533
    Total Energy =                       -270.0120963219854957
  Basis Set: 6-31G*
  Basis Set:
  Basis Set: 6-31G*
  Basis Set:
  @DF-RHF Final Energy:  -270.01210422517130
    Total Energy =                       -270.0121042251713561
  Basis Set: 6-31G*
  Basis Set:
  Basis Set: 6-31G*
  Basis Set:
  @DF-RHF Final Energy:  -270.01210553976631
    Total Energy =                       -270.0121055397669352
  Basis Set: 6-31G*
  Basis Set:
  Charge       = 0
  Multiplicity = 1
  Basis Set: 6-31G*
  Basis Set:

    Orbital Energies (a.u.)
    -----------------------

    Doubly Occupied:

       1A    -20.549697     2A    -11.268421     3A    -11.221222
       4A    -11.220656     5A    -11.217098     6A    -11.208138
       7A     -1.359200     8A     -1.115812     9A     -0.969488
      10A     -0.948989    11A     -0.800344    12A     -0.782355
      13A     -0.679602    14A     -0.665206    15A     -0.605408
      16A     -0.600476    17A     -0.577283    18A     -0.533828
      19A     -0.502313    20A     -0.485625    21A     -0.473186
      22A     -0.459864    23A     -0.449499    24A     -0.415659

  @DF-RHF Final Energy:  -270.01210623876602

   => Energetics <=

    Nuclear Repulsion Energy =            255.0452711092911784
    One-Electron Energy =                -871.8960199293031792
    Two-Electron Energy =                 346.8386425812458356
    DFT Exchange-Correlation Energy =       0.0000000000000000
    Empirical Dispersion Energy =           0.0000000000000000
    PCM Polarization Energy =               0.0000000000000000
    EFP Energy =                            0.0000000000000000
    Total Energy =                       -270.0121062387661368
    Molecular point group: c1
  Basis Set: 6-31G*
  Basis Set:

  -Total Gradient:
     Atom            X                  Y                   Z
    ------   -----------------  -----------------  -----------------
       1        0.000205141907    -0.000640193134     0.000783673837
       2       -0.000251164216     0.000893354376    -0.000742040815
       3       -0.000171703568    -0.000654311920    -0.000596875758
       4       -0.000008806124     0.000006402613     0.000041264915
       5        0.000163654771     0.000054225342    -0.000038349734
       6        0.000098586849     0.000347447386     0.000534548961
       7       -0.000002889664    -0.000026176488     0.000014918594
       8       -0.000005349236     0.000011291489     0.000001882188
       9       -0.000073352249    -0.000001390415     0.000054503722
      10       -0.000001843849     0.000005625289    -0.000013647128
      11        0.000013798992     0.000004895315     0.000001225622
      12        0.000047756533     0.000008526491    -0.000037329100
      13        0.000004375991     0.000009382573    -0.000017716068
      14       -0.000022936923    -0.000020032064    -0.000017216606
      15       -0.000003875712    -0.000004755916     0.000019444735
      16        0.000008606489     0.000005709061     0.000011712635

  **** Optimization is complete! (in 6 steps) ****
    Final optimized geometry and variables:
    Molecular point group: c1

    Geometry (in Angstrom), charge = 0, multiplicity = 1:

    H            2.247621829571    -0.717108952712    -0.665266372641
    O            2.093760743677    -0.016265367095    -0.049272015294
    C            0.746042008728    -0.003625276543     0.343159685880
    H            0.732189883954     0.029846770365     1.429690669626
    C           -0.083285714882    -1.197678355980    -0.130759444813
    C           -0.034259481965     1.191123649221    -0.198884733979
    H            0.143445087306    -1.381121780927    -1.180506414227
    H            0.137580812818    -2.109549353199     0.414026933650
    C           -1.547048745289    -0.737244709633     0.022736067499
    H            0.158523622116     1.270997488613    -1.265957340662
    H            0.262740008934     2.128463288454     0.257615385940
    C           -1.499659141601     0.817101155684     0.068828996676
    H           -2.159373277226    -1.099052511946    -0.795056114597
    H           -1.980819304972    -1.133147028105     0.934362923662
    H           -2.175339914718     1.269555693846    -0.647652182225
    H           -1.802846163513     1.169633859665     1.049548789994

  Mulliken Charges: (a.u.)
   Center  Symbol    Alpha    Beta     Spin     Total
       1     H     0.27990  0.27990  0.00000  0.44019
       2     O     4.38301  4.38301  0.00000 -0.76602
       3     C     2.89639  2.89639  0.00000  0.20722
       4     H     0.42261  0.42261  0.00000  0.15477
       5     C     3.18726  3.18726  0.00000 -0.37452
       6     C     3.16434  3.16434  0.00000 -0.32868
       7     H     0.42446  0.42446  0.00000  0.15108
       8     H     0.41148  0.41148  0.00000  0.17704
       9     C     3.16645  3.16645  0.00000 -0.33290
      10     H     0.42097  0.42097  0.00000  0.15806
      11     H     0.41216  0.41216  0.00000  0.17569
      12     C     3.17125  3.17125  0.00000 -0.34250
      13     H     0.41422  0.41422  0.00000  0.17156
      14     H     0.41494  0.41494  0.00000  0.17012
      15     H     0.41407  0.41407  0.00000  0.17186
      16     H     0.41649  0.41649  0.00000  0.16702

   Total alpha = 24.00000, Total beta = 24.00000, Total charge = -0.00000
