  ==> Input File <==

--------------------------------------------------------------------------
set {
	reference rhf
	basis 6-31G*
}

set_num_threads( 4 )
memory 2 gb

molecule MOL {
0 1

H	 -3.261111	 -0.295142	 1.469456
C	 -3.306842	 -0.277400	 0.373456
C	 -2.660244	 0.921717	 -0.272021
O	 -3.838538	 -1.161155	 -0.216482
C	 -1.220012	 1.144545	 0.209990
H	 -2.705793	 0.797307	 -1.347733
H	 -3.263782	 1.790044	 -0.010477
C	 -0.252658	 0.041456	 -0.226725
H	 -0.873521	 2.100229	 -0.171974
H	 -1.211708	 1.231594	 1.295398
C	 1.180775	 0.282413	 0.250794
H	 -0.266029	 -0.034465	 -1.312038
H	 -0.597733	 -0.921000	 0.146291
C	 2.148627	 -0.814315	 -0.201312
H	 1.516199	 1.249228	 -0.115937
H	 1.192670	 0.346017	 1.338083
C	 3.580890	 -0.659131	 0.322722
H	 2.166869	 -0.852443	 -1.289387
H	 1.762857	 -1.776509	 0.128956
C	 4.461840	 -1.896248	 0.140825
H	 3.534339	 -0.417916	 1.381776
H	 4.051224	 0.194117	 -0.161710
H	 4.007994	 -2.769633	 0.601791
H	 4.630577	 -2.124768	 -0.906210
H	 5.433772	 -1.747836	 0.601605

	symmetry c1
}
set optking {
	frozen_dihedral = ("
		20 17 14 18
	")
}

ee = optimize('scf')
oeprop('DIPOLE', 'QUADRUPOLE', 'MULLIKEN_CHARGES')
f=open( 'psi4out.xyz', 'w' )
f.write( "25  " )
f.write( str(ee) + "\n" )
f.write( MOL.save_string_xyz() )
f.close()
--------------------------------------------------------------------------

    Molecular point group: c1
  Charge       = 0
  Multiplicity = 1
  Basis Set: 6-31G*
  Basis Set:
  @DF-RHF Final Energy:  -387.12263491646956
    Total Energy =                       -387.1226349164696785
    Molecular point group: c1
  Basis Set: 6-31G*
  Basis Set:
  Basis Set: 6-31G*
  Basis Set:
  @DF-RHF Final Energy:  -387.12292025173451
    Total Energy =                       -387.1229202517347403
  Basis Set: 6-31G*
  Basis Set:
  Basis Set: 6-31G*
  Basis Set:
  @DF-RHF Final Energy:  -387.11937066126302
    Total Energy =                       -387.1193706612634742
  Basis Set: 6-31G*
  Basis Set:
  Basis Set: 6-31G*
  Basis Set:
  @DF-RHF Final Energy:  -387.12303027175903
    Total Energy =                       -387.1230302717583527
  Basis Set: 6-31G*
  Basis Set:
  Basis Set: 6-31G*
  Basis Set:
  @DF-RHF Final Energy:  -387.12312704029938
    Total Energy =                       -387.1231270402993232
  Basis Set: 6-31G*
  Basis Set:
  Basis Set: 6-31G*
  Basis Set:
  @DF-RHF Final Energy:  -387.12315929585759
    Total Energy =                       -387.1231592958572492
  Basis Set: 6-31G*
  Basis Set:
  Basis Set: 6-31G*
  Basis Set:
  @DF-RHF Final Energy:  -387.12316135227729
    Total Energy =                       -387.1231613522767248
  Basis Set: 6-31G*
  Basis Set:
  Charge       = 0
  Multiplicity = 1
  Basis Set: 6-31G*
  Basis Set:

    Orbital Energies (a.u.)
    -----------------------

    Doubly Occupied:

       1A    -20.562029     2A    -11.326183     3A    -11.235368
       4A    -11.234685     5A    -11.223940     6A    -11.220207
       7A    -11.217705     8A    -11.216748     9A    -11.210180
      10A     -1.401969    11A     -1.103952    12A     -1.070005
      13A     -1.015120    14A     -0.943588    15A     -0.868004
      16A     -0.814325    17A     -0.794120    18A     -0.787022
      19A     -0.665309    20A     -0.664149    21A     -0.639148
      22A     -0.616071    23A     -0.604543    24A     -0.593180
      25A     -0.568379    26A     -0.550627    27A     -0.539750
      28A     -0.522063    29A     -0.505092    30A     -0.499452
      31A     -0.488669    32A     -0.476771    33A     -0.466651
      34A     -0.465042    35A     -0.440120    36A     -0.409559

  @DF-RHF Final Energy:  -387.12316167102176

   => Energetics <=

    Nuclear Repulsion Energy =            435.4494524371791613
    One-Electron Energy =               -1387.2257740223708424
    Two-Electron Energy =                 564.6531599141701463
    DFT Exchange-Correlation Energy =       0.0000000000000000
    Empirical Dispersion Energy =           0.0000000000000000
    PCM Polarization Energy =               0.0000000000000000
    EFP Energy =                            0.0000000000000000
    Total Energy =                       -387.1231616710215349
    Molecular point group: c1
  Basis Set: 6-31G*
  Basis Set:

  -Total Gradient:
     Atom            X                  Y                   Z
    ------   -----------------  -----------------  -----------------
       1       -0.000001937523     0.000002642860     0.000004351232
       2        0.000006512133     0.000001554844     0.000004307209
       3       -0.000015162466    -0.000002610172     0.000007291976
       4       -0.000001109324     0.000002317505    -0.000005267572
       5       -0.000002261549    -0.000020938064     0.000030448698
       6        0.000003283299    -0.000000976846    -0.000001591636
       7       -0.000000329081    -0.000001413742    -0.000001722695
       8        0.000023067588    -0.000002956867    -0.000005082346
       9       -0.000003492618    -0.000011097836    -0.000007154306
      10        0.000002284501     0.000008090040     0.000004046928
      11        0.000020859545     0.000000836661     0.000010124325
      12        0.000007873888     0.000010342903    -0.000003016846
      13       -0.000005747171     0.000001395122    -0.000013494689
      14        0.000259472496    -0.003055661101     0.000729939746
      15        0.000009670808    -0.000008494100    -0.000014840140
      16       -0.000019954248     0.000030113371     0.000002785932
      17        0.000490787596     0.001282722960    -0.002120119044
      18       -0.000338700321     0.002305050856    -0.000162387775
      19        0.000019192045     0.000008837353     0.000003729493
      20       -0.000444882510    -0.000560649809     0.001536378101
      21        0.000014183938     0.000009962536     0.000015060920
      22       -0.000023250139    -0.000009799168    -0.000017358013
      23        0.000005070012    -0.000001920035     0.000002931060
      24        0.000004975444    -0.000004645128    -0.000001437341
      25       -0.000010406329     0.000017295856     0.000002076782

  **** Optimization is complete! (in 8 steps) ****
    Final optimized geometry and variables:
    Molecular point group: c1

    Geometry (in Angstrom), charge = 0, multiplicity = 1:

    H           -3.315983074451    -0.004098531554     1.388191732096
    C           -3.337940718985     0.032176370951     0.291815763203
    C           -2.658601848858     1.231000394273    -0.319813736439
    O           -3.876363586376    -0.830148691621    -0.323281278824
    C           -1.223384094930     1.418851132702     0.191456301567
    H           -2.686909712184     1.126734104261    -1.398310155304
    H           -3.251244661342     2.105178859788    -0.053201301444
    C           -0.266423574971     0.309653682123    -0.252817104275
    H           -0.854307816802     2.376977251793    -0.162747367143
    H           -1.232681070135     1.481551778140     1.278354526893
    C            1.163297212606     0.519730957492     0.248499917811
    H           -0.265842898725     0.254936590964    -1.339437027559
    H           -0.630833449313    -0.654627842474     0.096851898520
    C            2.124107810854    -0.589093887868    -0.187329539538
    H            1.532987281773     1.478554199725    -0.111564449393
    H            1.157972941332     0.584371168612     1.335225355705
    C            3.562845785811    -0.353276631137     0.279976033223
    H            2.107569533609    -0.656258491517    -1.273642964811
    H            1.767744212464    -1.544404306846     0.192474505646
    C            4.463609900378    -1.572220277292     0.083466654944
    H            3.558557319030    -0.086125128467     1.334893341696
    H            3.978580500518     0.501501862472    -0.248402138671
    H            4.099589829414    -2.420948642109     0.655088303206
    H            4.502267712250    -1.870456878823    -0.960670110579
    H            5.479725002045    -1.366809535059     0.405788943120

  Mulliken Charges: (a.u.)
   Center  Symbol    Alpha    Beta     Spin     Total
       1     H     0.43262  0.43262  0.00000  0.13476
       2     C     2.83083  2.83083  0.00000  0.33834
       3     C     3.20815  3.20815  0.00000 -0.41629
       4     O     4.23775  4.23775  0.00000 -0.47550
       5     C     3.16664  3.16664  0.00000 -0.33328
       6     H     0.39972  0.39972  0.00000  0.20056
       7     H     0.40660  0.40660  0.00000  0.18681
       8     C     3.15498  3.15498  0.00000 -0.30996
       9     H     0.41281  0.41281  0.00000  0.17439
      10     H     0.41960  0.41960  0.00000  0.16080
      11     C     3.15294  3.15294  0.00000 -0.30588
      12     H     0.41810  0.41810  0.00000  0.16380
      13     H     0.41840  0.41840  0.00000  0.16320
      14     C     3.15129  3.15129  0.00000 -0.30259
      15     H     0.42298  0.42298  0.00000  0.15404
      16     H     0.42331  0.42331  0.00000  0.15338
      17     C     3.15206  3.15206  0.00000 -0.30412
      18     H     0.42231  0.42231  0.00000  0.15538
      19     H     0.42208  0.42208  0.00000  0.15583
      20     C     3.23947  3.23947  0.00000 -0.47894
      21     H     0.42346  0.42346  0.00000  0.15309
      22     H     0.42220  0.42220  0.00000  0.15561
      23     H     0.42115  0.42115  0.00000  0.15770
      24     H     0.42135  0.42135  0.00000  0.15731
      25     H     0.41923  0.41923  0.00000  0.16155

   Total alpha = 36.00000, Total beta = 36.00000, Total charge =  0.00000
