  ==> Input File <==

--------------------------------------------------------------------------
set {
	reference rhf
	basis 6-31G*
}

set_num_threads( 1 )
memory 2 gb

molecule MOL {
0 1

H	 3.463771	 0.168298	 -0.756243
C	 2.752674	 -0.045734	 0.033351
C	 1.322923	 0.120767	 -0.479465
H	 2.934561	 -1.059086	 0.377456
H	 2.958358	 0.631174	 0.856809
C	 0.306652	 -0.176050	 0.621399
H	 1.144658	 -0.551717	 -1.312180
H	 1.166477	 1.131798	 -0.836680
N	 -1.068537	 -0.011044	 0.085269
H	 0.372515	 -1.192590	 0.973735
H	 0.391664	 0.520566	 1.441230
O	 -1.704685	 0.918105	 0.476895
O	 -1.454347	 -0.841910	 -0.679476

	symmetry c1
}
set optking {
	frozen_dihedral = ("
		7 3 6 9
	")
}

ee = energy('scf')
oeprop('DIPOLE', 'QUADRUPOLE', 'MULLIKEN_CHARGES')
f=open( 'psi4out.xyz', 'w' )
f.write( "13  " )
f.write( str(ee) + "\n" )
f.write( MOL.save_string_xyz() )
f.close()
--------------------------------------------------------------------------

    Molecular point group: c1

    Geometry (in Angstrom), charge = 0, multiplicity = 1:

       Center              X                  Y                   Z               Mass
    ------------   -----------------  -----------------  -----------------  -----------------
           H          3.467981968604     0.173940251245    -0.765307044681     1.007825032070
           C          2.756884968604    -0.040091748755     0.024286955319    12.000000000000
           C          1.327133968604     0.126409251245    -0.488529044681    12.000000000000
           H          2.938771968604    -1.053443748755     0.368391955319     1.007825032070
           H          2.962568968604     0.636816251245     0.847744955319     1.007825032070
           C          0.310862968604    -0.170407748755     0.612334955319    12.000000000000
           H          1.148868968604    -0.546074748755    -1.321244044681     1.007825032070
           H          1.170687968604     1.137440251245    -0.845744044681     1.007825032070
           N         -1.064326031396    -0.005401748755     0.076204955319    14.003074004780
           H          0.376725968604    -1.186947748755     0.964670955319     1.007825032070
           H          0.395874968604     0.526208251245     1.432165955319     1.007825032070
           O         -1.700474031396     0.923747251245     0.467830955319    15.994914619560
           O         -1.450136031396    -0.836267748755    -0.688540044681    15.994914619560

  Charge       = 0
  Multiplicity = 1
  Basis Set: 6-31G*
  Basis Set:

    Orbital Energies (a.u.)
    -----------------------

    Doubly Occupied:

       1A    -20.602360     2A    -20.599202     3A    -15.847060
       4A    -11.299172     5A    -11.256232     6A    -11.239618
       7A     -1.630679     8A     -1.416250     9A     -1.135378
      10A     -1.028197    11A     -0.883777    12A     -0.833106
      13A     -0.758880    14A     -0.735598    15A     -0.723083
      16A     -0.671299    17A     -0.604518    18A     -0.588081
      19A     -0.551193    20A     -0.521769    21A     -0.514218
      22A     -0.483855    23A     -0.473288    24A     -0.448033

  @DF-RHF Final Energy:  -321.73532698002020

   => Energetics <=

    Nuclear Repulsion Energy =            247.3646561978560783
    One-Electron Energy =                -928.5103301954609378
    Two-Electron Energy =                 359.4103470175847974
    DFT Exchange-Correlation Energy =       0.0000000000000000
    Empirical Dispersion Energy =           0.0000000000000000
    PCM Polarization Energy =               0.0000000000000000
    EFP Energy =                            0.0000000000000000
    Total Energy =                       -321.7353269800200337

  Mulliken Charges: (a.u.)
   Center  Symbol    Alpha    Beta     Spin     Total
       1     H     0.40745  0.40745  0.00000  0.18509
       2     C     3.24806  3.24806  0.00000 -0.49612
       3     C     3.17365  3.17365  0.00000 -0.34730
       4     H     0.41465  0.41465  0.00000  0.17070
       5     H     0.41511  0.41511  0.00000  0.16978
       6     C     3.08443  3.08443  0.00000 -0.16887
       7     H     0.39573  0.39573  0.00000  0.20853
       8     H     0.40269  0.40269  0.00000  0.19462
       9     N     3.22262  3.22262  0.00000  0.55476
      10     H     0.38791  0.38791  0.00000  0.22418
      11     H     0.38688  0.38688  0.00000  0.22623
      12     O     4.22898  4.22898  0.00000 -0.45796
      13     O     4.23183  4.23183  0.00000 -0.46366

   Total alpha = 24.00000, Total beta = 24.00000, Total charge = -0.00000
