  ==> Input File <==

--------------------------------------------------------------------------
set {
	reference rhf
	basis cc-pvtz
}

set_num_threads( 4 )
memory 2 gb

molecule MOL {
0 1

H	 -2.698799	 -0.000846	 0.036018
C	 -1.694291	 -0.000483	 0.434279
O	 -0.828718	 -0.000608	 -0.655022
H	 -1.576855	 0.881100	 1.056504
H	 -1.576401	 -0.881658	 1.057001
C	 0.557892	 0.000078	 -0.420099
C	 1.361277	 0.385345	 -1.657199
C	 0.944494	 0.826043	 0.801608
H	 0.771718	 -1.037941	 -0.197809
H	 1.035649	 -0.192758	 -2.513249
H	 2.412897	 0.183060	 -1.490098
H	 1.265579	 1.437991	 -1.896701
H	 0.329895	 0.553517	 1.650749
H	 1.981005	 0.639877	 1.058047
H	 0.837632	 1.890358	 0.627378

	symmetry c1
}
set optking {
	frozen_dihedral = ("
		9 6 3 2
	")
}

ee = optimize('scf')
oeprop('DIPOLE', 'QUADRUPOLE', 'MULLIKEN_CHARGES')
f=open( 'psi4out.xyz', 'w' )
f.write( "15  " )
f.write( str(ee) + "\n" )
f.write( MOL.save_string_xyz() )
f.close()
--------------------------------------------------------------------------

    Molecular point group: c1
  Charge       = 0
  Multiplicity = 1
  Basis Set: CC-PVTZ
  Basis Set:
  @DF-RHF Final Energy:  -232.22155486585331
    Total Energy =                       -232.2215548658533635
    Molecular point group: c1
  Basis Set: CC-PVTZ
  Basis Set:
  Basis Set: CC-PVTZ
  Basis Set:
  @DF-RHF Final Energy:  -232.22521097560679
    Total Energy =                       -232.2252109756066716
  Basis Set: CC-PVTZ
  Basis Set:
  Basis Set: CC-PVTZ
  Basis Set:
  @DF-RHF Final Energy:  -232.22708308843153
    Total Energy =                       -232.2270830884316410
  Basis Set: CC-PVTZ
  Basis Set:
  Basis Set: CC-PVTZ
  Basis Set:
  @DF-RHF Final Energy:  -232.22713466704320
    Total Energy =                       -232.2271346670432308
  Basis Set: CC-PVTZ
  Basis Set:
  Basis Set: CC-PVTZ
  Basis Set:
  @DF-RHF Final Energy:  -232.22718969565511
    Total Energy =                       -232.2271896956551132
  Basis Set: CC-PVTZ
  Basis Set:
  Basis Set: CC-PVTZ
  Basis Set:
  @DF-RHF Final Energy:  -232.22719294380948
    Total Energy =                       -232.2271929438094844
  Basis Set: CC-PVTZ
  Basis Set:
  Charge       = 0
  Multiplicity = 1
  Basis Set: CC-PVTZ
  Basis Set:

    Orbital Energies (a.u.)
    -----------------------

    Doubly Occupied:

       1A    -20.543002     2A    -11.273084     3A    -11.259917
       4A    -11.211404     5A    -11.203525     6A     -1.375749
       7A     -1.054145     8A     -0.948990     9A     -0.913368
      10A     -0.787891    11A     -0.677859    12A     -0.642173
      13A     -0.633905    14A     -0.593617    15A     -0.550384
      16A     -0.543503    17A     -0.525901    18A     -0.500313
      19A     -0.496079    20A     -0.451336    21A     -0.409229

  @DF-RHF Final Energy:  -232.22719329764109

   => Energetics <=

    Nuclear Repulsion Energy =            198.1829186479611451
    One-Electron Energy =                -707.6294756121981209
    Two-Electron Energy =                 277.2193636665963936
    DFT Exchange-Correlation Energy =       0.0000000000000000
    Empirical Dispersion Energy =           0.0000000000000000
    PCM Polarization Energy =               0.0000000000000000
    EFP Energy =                            0.0000000000000000
    Total Energy =                       -232.2271932976405537
    Molecular point group: c1
  Basis Set: CC-PVTZ
  Basis Set:

  -Total Gradient:
     Atom            X                  Y                   Z
    ------   -----------------  -----------------  -----------------
       1        0.000000812598     0.000004960243    -0.000011892878
       2        0.000212134292     0.003953770006     0.000233876543
       3       -0.000059485589    -0.005966354340    -0.001403908595
       4        0.000005291022    -0.000003788128    -0.000019199374
       5        0.000004123945    -0.000006027306     0.000006973036
       6       -0.001136925577     0.002608731802     0.005744133230
       7       -0.000006201091    -0.000002795901    -0.000022937069
       8       -0.000015598018     0.000002312720     0.000022379718
       9        0.001004358560    -0.000591122139    -0.004532474720
      10        0.000003808913     0.000007069361    -0.000024656930
      11       -0.000008300430    -0.000005961504     0.000002079804
      12        0.000004322591    -0.000007539984     0.000008302968
      13        0.000005515145     0.000006914990     0.000008802101
      14       -0.000015202035    -0.000009247159    -0.000013724448
      15        0.000001345674     0.000009077340     0.000002246614

  **** Optimization is complete! (in 7 steps) ****
    Final optimized geometry and variables:
    Molecular point group: c1

    Geometry (in Angstrom), charge = 0, multiplicity = 1:

    H           -2.753653300369    -0.275413514544     0.197881599204
    C           -1.772457875581    -0.208524039322     0.646008776474
    O           -0.849784477026    -0.195215129071    -0.392716943690
    H           -1.731557809334     0.693408475201     1.246916370859
    H           -1.636661455025    -1.067474863048     1.300666578499
    C            0.516762823169    -0.287756225418    -0.077978837390
    C            1.261808004188     0.119122378873    -1.339140533257
    C            0.944899606478     0.554946372919     1.115708321051
    H            0.752312132832    -1.335444148623     0.111663810953
    H            0.921413781901    -0.472526066314    -2.178976048583
    H            2.328658110990    -0.031508536464    -1.220674645023
    H            1.082132181130     1.163752008528    -1.565569843401
    H            0.490250350843     0.225184145467     2.040659673285
    H            2.019026577932     0.483357580611     1.236610816316
    H            0.691232145733     1.597973624407     0.960458473176

  Mulliken Charges: (a.u.)
   Center  Symbol    Alpha    Beta     Spin     Total
       1     H     0.44319  0.44319  0.00000  0.11362
       2     C     3.03986  3.03986  0.00000 -0.07973
       3     O     4.18167  4.18167  0.00000 -0.36334
       4     H     0.46813  0.46813  0.00000  0.06373
       5     H     0.47139  0.47139  0.00000  0.05721
       6     C     2.92239  2.92239  0.00000  0.15521
       7     C     3.14052  3.14052  0.00000 -0.28105
       8     C     3.16594  3.16594  0.00000 -0.33188
       9     H     0.46310  0.46310  0.00000  0.07380
      10     H     0.44607  0.44607  0.00000  0.10785
      11     H     0.45965  0.45965  0.00000  0.08070
      12     H     0.45533  0.45533  0.00000  0.08934
      13     H     0.44706  0.44706  0.00000  0.10589
      14     H     0.44587  0.44587  0.00000  0.10825
      15     H     0.44980  0.44980  0.00000  0.10039

   Total alpha = 21.00000, Total beta = 21.00000, Total charge = -0.00000
