  ==> Input File <==

--------------------------------------------------------------------------
set {
	reference rhf
	basis 6-31G*
}

set_num_threads( 4 )
memory 2 gb

molecule MOL {
0 1

O	 -1.487788	 1.240889	 -0.102860
C	 -1.083277	 0.139568	 0.115197
C	 0.323299	 -0.082943	 0.642902
C	 -1.933017	 -1.084621	 -0.143902
C	 1.355627	 -0.005344	 -0.493127
H	 0.396251	 -1.044647	 1.143147
H	 0.528637	 0.693580	 1.371677
C	 1.293198	 -1.218580	 -1.419090
H	 1.195052	 0.900296	 -1.073906
H	 2.345178	 0.075953	 -0.055727
H	 2.034492	 -1.143048	 -2.208057
H	 0.317404	 -1.306752	 -1.887999
H	 1.482932	 -2.137215	 -0.872135
H	 -1.393885	 -1.806447	 -0.750509
H	 -2.850323	 -0.799888	 -0.640100
H	 -2.169004	 -1.571158	 0.798858

	symmetry c1
}
set optking {
	frozen_dihedral = ("
		9 5 3 2
	")
}

ee = optimize('scf')
oeprop('DIPOLE', 'QUADRUPOLE', 'MULLIKEN_CHARGES')
f=open( 'psi4out.xyz', 'w' )
f.write( "16  " )
f.write( str(ee) + "\n" )
f.write( MOL.save_string_xyz() )
f.close()
--------------------------------------------------------------------------

    Molecular point group: c1
  Charge       = 0
  Multiplicity = 1
  Basis Set: 6-31G*
  Basis Set:
  @DF-RHF Final Energy:  -270.02696866216593
    Total Energy =                       -270.0269686621655865
    Molecular point group: c1
  Basis Set: 6-31G*
  Basis Set:
  Basis Set: 6-31G*
  Basis Set:
  @DF-RHF Final Energy:  -270.02854919860323
    Total Energy =                       -270.0285491986034003
  Basis Set: 6-31G*
  Basis Set:
  Basis Set: 6-31G*
  Basis Set:
  @DF-RHF Final Energy:  -270.02748494199511
    Total Energy =                       -270.0274849419947714
  Basis Set: 6-31G*
  Basis Set:
  Basis Set: 6-31G*
  Basis Set:
  @DF-RHF Final Energy:  -270.02920243090739
    Total Energy =                       -270.0292024309073327
  Basis Set: 6-31G*
  Basis Set:
  @DF-RHF Final Energy:  -270.02964310737138
    Total Energy =                       -270.0296431073713279
  @DF-RHF Final Energy:  -270.03017076734119
    Total Energy =                       -270.0301707673412466
  @DF-RHF Final Energy:  -270.03033095259576
    Total Energy =                       -270.0303309525958184
  @DF-RHF Final Energy:  -270.03046958796551
    Total Energy =                       -270.0304695879655128
  @DF-RHF Final Energy:  -270.03060968156387
    Total Energy =                       -270.0306096815638170
  @DF-RHF Final Energy:  -270.03102255353667
    Total Energy =                       -270.0310225535367294
  @DF-RHF Final Energy:  -270.03141136764896
    Total Energy =                       -270.0314113676489001
  @DF-RHF Final Energy:  -270.03172738600074
    Total Energy =                       -270.0317273860007390
  @DF-RHF Final Energy:  -270.03189340408642
    Total Energy =                       -270.0318934040862473
  Basis Set: 6-31G*
  Basis Set:
  @DF-RHF Final Energy:  -270.03190443595611
    Total Energy =                       -270.0319044359563350
  Basis Set: 6-31G*
  Basis Set:
  Basis Set: 6-31G*
  Basis Set:
  @DF-RHF Final Energy:  -270.03190959057292
    Total Energy =                       -270.0319095905730933
  Basis Set: 6-31G*
  Basis Set:
  Basis Set: 6-31G*
  Basis Set:
  @DF-RHF Final Energy:  -270.03191258143687
    Total Energy =                       -270.0319125814367567
  Basis Set: 6-31G*
  Basis Set:
  Charge       = 0
  Multiplicity = 1
  Basis Set: 6-31G*
  Basis Set:

    Orbital Energies (a.u.)
    -----------------------

    Doubly Occupied:

       1A    -20.551358     2A    -11.327688     3A    -11.232717
       4A    -11.229215     5A    -11.220121     6A    -11.207115
       7A     -1.396908     8A     -1.075624     9A     -1.015080
      10A     -0.944557    11A     -0.826392    12A     -0.727558
      13A     -0.664380    14A     -0.636991    15A     -0.622841
      16A     -0.593035    17A     -0.583117    18A     -0.552164
      19A     -0.546560    20A     -0.501622    21A     -0.486533
      22A     -0.479277    23A     -0.475403    24A     -0.401296

  @DF-RHF Final Energy:  -270.03191267514819

   => Energetics <=

    Nuclear Repulsion Energy =            241.1613255539929241
    One-Electron Energy =                -843.7913677929479945
    Two-Electron Energy =                 332.5981295638066513
    DFT Exchange-Correlation Energy =       0.0000000000000000
    Empirical Dispersion Energy =           0.0000000000000000
    PCM Polarization Energy =               0.0000000000000000
    EFP Energy =                            0.0000000000000000
    Total Energy =                       -270.0319126751484191
    Molecular point group: c1
  Basis Set: 6-31G*
  Basis Set:

  -Total Gradient:
     Atom            X                  Y                   Z
    ------   -----------------  -----------------  -----------------
       1        0.000014569465    -0.000014451525     0.000001237731
       2        0.000003276875     0.000264751026     0.000124708953
       3       -0.000029916756    -0.000356795257    -0.000230789585
       4        0.000004426872     0.000000926126     0.000007149995
       5        0.000172207844     0.000237796532     0.000418324437
       6       -0.000007698650    -0.000008297442     0.000000459024
       7        0.000007765945     0.000002500228    -0.000008889444
       8       -0.000002407408    -0.000000116974     0.000011319807
       9       -0.000158564612    -0.000117885216    -0.000305765583
      10       -0.000003229660    -0.000001557111    -0.000004515621
      11        0.000015233742     0.000005498049    -0.000000455982
      12       -0.000007654846     0.000001489567    -0.000004235866
      13        0.000003156119     0.000000626482    -0.000004048239
      14       -0.000004792517    -0.000014997045    -0.000007863701
      15       -0.000005384987    -0.000000161421     0.000000337482
      16       -0.000000987426     0.000000673980     0.000003026591

  **** Optimization is complete! (in 17 steps) ****
    Final optimized geometry and variables:
    Molecular point group: c1

    Geometry (in Angstrom), charge = 0, multiplicity = 1:

    O           -1.022327605404     0.782843903075    -0.780341097849
    C           -0.901787346380     0.118029678196     0.202927865289
    C            0.441687086131    -0.096218827298     0.879541498303
    C           -2.095113323345    -0.547928934718     0.855333395519
    C            1.648491355264     0.348731087699     0.054094589735
    H            0.528893905629    -1.143046936065     1.164058976012
    H            0.402135902600     0.457741879614     1.817161292543
    C            1.945862188381    -0.570225966175    -1.130896657667
    H            1.477990507488     1.357499783432    -0.303399401969
    H            2.515976806874     0.384303061842     0.707437482639
    H            2.821105785903    -0.227013889494    -1.673340940733
    H            1.114843333006    -0.594785317168    -1.826037973761
    H            2.142828801619    -1.586619252011    -0.798998275421
    H           -2.032693118470    -1.623705867365     0.714537836713
    H           -3.008901102446    -0.184069186276     0.406437033298
    H           -2.109961322291    -0.362905650351     1.924935746702

  Mulliken Charges: (a.u.)
   Center  Symbol    Alpha    Beta     Spin     Total
       1     O     4.26262  4.26262  0.00000 -0.52524
       2     C     2.73545  2.73545  0.00000  0.52910
       3     C     3.21029  3.21029  0.00000 -0.42058
       4     C     3.28713  3.28713  0.00000 -0.57425
       5     C     3.15012  3.15012  0.00000 -0.30024
       6     H     0.41211  0.41211  0.00000  0.17578
       7     H     0.40554  0.40554  0.00000  0.18891
       8     C     3.24505  3.24505  0.00000 -0.49010
       9     H     0.40611  0.40611  0.00000  0.18778
      10     H     0.42043  0.42043  0.00000  0.15914
      11     H     0.41793  0.41793  0.00000  0.16414
      12     H     0.40796  0.40796  0.00000  0.18409
      13     H     0.42623  0.42623  0.00000  0.14754
      14     H     0.40623  0.40623  0.00000  0.18754
      15     H     0.39657  0.39657  0.00000  0.20686
      16     H     0.41023  0.41023  0.00000  0.17953

   Total alpha = 24.00000, Total beta = 24.00000, Total charge =  0.00000
