  ==> Input File <==

--------------------------------------------------------------------------
set {
	reference rhf
	basis cc-pvtz
}

set_num_threads( 4 )
memory 2 gb

molecule MOL {
0 1

H	 -2.498963	 -0.741158	 -0.729149
O	 -2.346257	 -0.289210	 0.080372
C	 -1.183935	 0.486039	 -0.009831
C	 0.062853	 -0.375310	 0.027457
H	 -1.178881	 1.094526	 -0.908634
H	 -1.184406	 1.155156	 0.838676
O	 1.165942	 0.443496	 -0.182787
H	 0.006011	 -1.145898	 -0.743166
H	 0.127477	 -0.879811	 0.989162
C	 2.390332	 -0.212693	 -0.143965
H	 2.454655	 -0.979813	 -0.912511
H	 3.164402	 0.520185	 -0.318296
H	 2.560389	 -0.679502	 0.823346

	symmetry c1
}
set optking {
	frozen_dihedral = ("
		8 4 3 5
	")
}

ee = optimize('scf')
oeprop('DIPOLE', 'QUADRUPOLE', 'MULLIKEN_CHARGES')
f=open( 'psi4out.xyz', 'w' )
f.write( "13  " )
f.write( str(ee) + "\n" )
f.write( MOL.save_string_xyz() )
f.close()
--------------------------------------------------------------------------

    Molecular point group: c1
  Charge       = 0
  Multiplicity = 1
  Basis Set: CC-PVTZ
  Basis Set:
  @DF-RHF Final Energy:  -268.06217107009866
    Total Energy =                       -268.0621710700984295
    Molecular point group: c1
  Basis Set: CC-PVTZ
  Basis Set:
  Basis Set: CC-PVTZ
  Basis Set:
  @DF-RHF Final Energy:  -268.06219185115367
    Total Energy =                       -268.0621918511538979
  Basis Set: CC-PVTZ
  Basis Set:
  Basis Set: CC-PVTZ
  Basis Set:
  @DF-RHF Final Energy:  -268.06219777163392
    Total Energy =                       -268.0621977716342030
  Basis Set: CC-PVTZ
  Basis Set:
  Charge       = 0
  Multiplicity = 1
  Basis Set: CC-PVTZ
  Basis Set:

    Orbital Energies (a.u.)
    -----------------------

    Doubly Occupied:

       1A    -20.556447     2A    -20.553080     3A    -11.269493
       4A    -11.268032     5A    -11.267487     6A     -1.392453
       7A     -1.369585     8A     -1.019763     9A     -0.914332
      10A     -0.843114    11A     -0.711895    12A     -0.677302
      13A     -0.663155    14A     -0.638303    15A     -0.600211
      16A     -0.570708    17A     -0.546216    18A     -0.491739
      19A     -0.483591    20A     -0.441726    21A     -0.424813

  @DF-RHF Final Energy:  -268.06219793225512

   => Energetics <=

    Nuclear Repulsion Energy =            190.4991739770092352
    One-Electron Energy =                -743.7158462778600096
    Two-Electron Energy =                 285.1544743685956860
    DFT Exchange-Correlation Energy =       0.0000000000000000
    Empirical Dispersion Energy =           0.0000000000000000
    PCM Polarization Energy =               0.0000000000000000
    EFP Energy =                            0.0000000000000000
    Total Energy =                       -268.0621979322550601
    Molecular point group: c1
  Basis Set: CC-PVTZ
  Basis Set:

  -Total Gradient:
     Atom            X                  Y                   Z
    ------   -----------------  -----------------  -----------------
       1        0.000009478054     0.000016153679    -0.000004069461
       2       -0.000016281639    -0.000010040471     0.000028182834
       3       -0.000816998717    -0.001249032098    -0.000576610149
       4        0.000745910882     0.001106499188    -0.000808400896
       5        0.000576326015     0.000862874209     0.000591013157
       6       -0.000017638485    -0.000006636719    -0.000002903482
       7        0.000019768479    -0.000000409177    -0.000009009360
       8       -0.000521580194    -0.000721712192     0.000780638530
       9        0.000010705235    -0.000005328117    -0.000001834945
      10       -0.000002341704     0.000013180697     0.000000931122
      11       -0.000001769135     0.000001190562     0.000001228444
      12        0.000011720694    -0.000003758878    -0.000000229545
      13        0.000002700517    -0.000002980682     0.000001063752

  **** Optimization is complete! (in 4 steps) ****
    Final optimized geometry and variables:
    Molecular point group: c1

    Geometry (in Angstrom), charge = 0, multiplicity = 1:

    H           -2.501914682199    -0.741665828679    -0.655704303551
    O           -2.344744361927    -0.280763245061     0.147964115959
    C           -1.182288187537     0.490941477503     0.042486375394
    C            0.065102759295    -0.370761705203     0.068033250849
    H           -1.180492448387     1.101792750036    -0.854772100246
    H           -1.174359498878     1.162764936247     0.889126233026
    O            1.168758044626     0.447931674337    -0.135681587999
    H            0.001541807459    -1.137633733144    -0.705778086115
    H            0.133026979218    -0.886337453498     1.023938998816
    C            2.393507725707    -0.206822683320    -0.083373386296
    H            2.464296737069    -0.978600755422    -0.846646582616
    H            3.168157413051     0.525737939022    -0.256356182980
    H            2.556548999371    -0.667499840141     0.888033763272

  Mulliken Charges: (a.u.)
   Center  Symbol    Alpha    Beta     Spin     Total
       1     H     0.39391  0.39391  0.00000  0.21218
       2     O     4.20226  4.20226  0.00000 -0.40452
       3     C     2.97293  2.97293  0.00000  0.05413
       4     C     2.96422  2.96422  0.00000  0.07157
       5     H     0.46705  0.46705  0.00000  0.06590
       6     H     0.45329  0.45329  0.00000  0.09342
       7     O     4.17532  4.17532  0.00000 -0.35064
       8     H     0.48233  0.48233  0.00000  0.03533
       9     H     0.47023  0.47023  0.00000  0.05954
      10     C     3.03161  3.03161  0.00000 -0.06323
      11     H     0.47119  0.47119  0.00000  0.05762
      12     H     0.44592  0.44592  0.00000  0.10816
      13     H     0.46973  0.46973  0.00000  0.06053

   Total alpha = 21.00000, Total beta = 21.00000, Total charge = -0.00000
