  ==> Input File <==

--------------------------------------------------------------------------
set {
	reference rhf
	basis 6-31G*
}

set_num_threads( 1 )
memory 2 gb

molecule MOL {
0 1

H	 0.363379	 -3.613304	 -3.985071
O	 1.307649	 -3.586232	 -4.036951
C	 1.760055	 -2.285287	 -3.759596
C	 1.642891	 -1.909368	 -2.286611
H	 2.799639	 -2.264815	 -4.060462
H	 1.231153	 -1.558581	 -4.375179
C	 0.203194	 -1.861883	 -1.769035
H	 2.217594	 -2.622909	 -1.701854
H	 2.109677	 -0.935719	 -2.147020
C	 0.115918	 -1.429151	 -0.302766
H	 -0.250705	 -2.842053	 -1.885691
H	 -0.378753	 -1.171914	 -2.380280
C	 -1.309753	 -1.282496	 0.241564
H	 0.665052	 -2.138951	 0.313257
H	 0.626290	 -0.474635	 -0.192673
C	 -2.037799	 -0.007733	 -0.193645
H	 -1.890610	 -2.142323	 -0.085726
H	 -1.285946	 -1.330893	 1.329189
C	 -3.489788	 0.042957	 0.286558
H	 -2.017067	 0.064384	 -1.280144
H	 -1.513726	 0.868678	 0.179924
C	 -4.216917	 1.317354	 -0.141063
H	 -4.025645	 -0.823308	 -0.095450
H	 -3.513059	 -0.038752	 1.371301
H	 -4.239342	 1.411634	 -1.223113
H	 -5.243387	 1.322503	 0.212445
H	 -3.726170	 2.201406	 0.256408

	symmetry c1
}
set optking {
	frozen_dihedral = ("
		14 10 7 4,
		10 7 4 8,
		8 4 3 2,
		10 13 16 20,
		20 16 19 22,
		4 3 2 1
	")
}

ee = energy('scf')
oeprop('DIPOLE', 'QUADRUPOLE', 'MULLIKEN_CHARGES')
f=open( 'psi4out.xyz', 'w' )
f.write( "27  " )
f.write( str(ee) + "\n" )
f.write( MOL.save_string_xyz() )
f.close()
--------------------------------------------------------------------------

    Molecular point group: c1

    Geometry (in Angstrom), charge = 0, multiplicity = 1:

       Center              X                  Y                   Z               Mass
    ------------   -----------------  -----------------  -----------------  -----------------
           H          1.018722984927    -2.364114650243    -2.605200533431     1.007825032070
           O          1.962992984927    -2.337042650243    -2.657080533431    15.994914619560
           C          2.415398984927    -1.036097650243    -2.379725533431    12.000000000000
           C          2.298234984927    -0.660178650243    -0.906740533431    12.000000000000
           H          3.454982984927    -1.015625650243    -2.680591533431     1.007825032070
           H          1.886496984927    -0.309391650243    -2.995308533431     1.007825032070
           C          0.858537984927    -0.612693650243    -0.389164533431    12.000000000000
           H          2.872937984927    -1.373719650243    -0.321983533431     1.007825032070
           H          2.765020984927     0.313470349757    -0.767149533431     1.007825032070
           C          0.771261984927    -0.179961650243     1.077104466569    12.000000000000
           H          0.404638984927    -1.592863650243    -0.505820533431     1.007825032070
           H          0.276590984927     0.077275349757    -1.000409533431     1.007825032070
           C         -0.654409015073    -0.033306650243     1.621434466569    12.000000000000
           H          1.320395984927    -0.889761650243     1.693127466569     1.007825032070
           H          1.281633984927     0.774554349757     1.187197466569     1.007825032070
           C         -1.382455015073     1.241456349757     1.186225466569    12.000000000000
           H         -1.235266015073    -0.893133650243     1.294144466569     1.007825032070
           H         -0.630602015073    -0.081703650243     2.709059466569     1.007825032070
           C         -2.834444015073     1.292146349757     1.666428466569    12.000000000000
           H         -1.361723015073     1.313573349757     0.099726466569     1.007825032070
           H         -0.858382015073     2.117867349757     1.559794466569     1.007825032070
           C         -3.561573015073     2.566543349757     1.238807466569    12.000000000000
           H         -3.370301015073     0.425881349757     1.284420466569     1.007825032070
           H         -2.857715015073     1.210437349757     2.751171466569     1.007825032070
           H         -3.583998015073     2.660823349757     0.156757466569     1.007825032070
           H         -4.588043015073     2.571692349757     1.592315466569     1.007825032070
           H         -3.070826015073     3.450595349757     1.636278466569     1.007825032070

  Charge       = 0
  Multiplicity = 1
  Basis Set: 6-31G*
  Basis Set:

    Orbital Energies (a.u.)
    -----------------------

    Doubly Occupied:

       1A    -20.552369     2A    -11.267190     3A    -11.220308
       4A    -11.217061     5A    -11.216515     6A    -11.215578
       7A    -11.215371     8A    -11.214855     9A    -11.209932
      10A     -1.359135    11A     -1.095352    12A     -1.062055
      13A     -1.011761    14A     -0.949157    15A     -0.887302
      16A     -0.820156    17A     -0.799775    18A     -0.781750
      19A     -0.694326    20A     -0.647303    21A     -0.641741
      22A     -0.614590    23A     -0.603639    24A     -0.583016
      25A     -0.578542    26A     -0.554583    27A     -0.543769
      28A     -0.520557    29A     -0.507183    30A     -0.502938
      31A     -0.482034    32A     -0.474751    33A     -0.468074
      34A     -0.461622    35A     -0.452705    36A     -0.441903
      37A     -0.423140

  @DF-RHF Final Energy:  -388.28098126867974

   => Energetics <=

    Nuclear Repulsion Energy =            458.0372774922898316
    One-Electron Energy =               -1434.0523380153783819
    Two-Electron Energy =                 587.7340792544076749
    DFT Exchange-Correlation Energy =       0.0000000000000000
    Empirical Dispersion Energy =           0.0000000000000000
    PCM Polarization Energy =               0.0000000000000000
    EFP Energy =                            0.0000000000000000
    Total Energy =                       -388.2809812686808755

  Mulliken Charges: (a.u.)
   Center  Symbol    Alpha    Beta     Spin     Total
       1     H     0.27994  0.27994  0.00000  0.44012
       2     O     4.37093  4.37093  0.00000 -0.74187
       3     C     2.99738  2.99738  0.00000  0.00524
       4     C     3.16106  3.16106  0.00000 -0.32212
       5     H     0.41440  0.41440  0.00000  0.17120
       6     H     0.43206  0.43206  0.00000  0.13588
       7     C     3.16313  3.16313  0.00000 -0.32626
       8     H     0.41495  0.41495  0.00000  0.17010
       9     H     0.42400  0.42400  0.00000  0.15201
      10     C     3.15271  3.15271  0.00000 -0.30542
      11     H     0.42466  0.42466  0.00000  0.15067
      12     H     0.42385  0.42385  0.00000  0.15229
      13     C     3.15417  3.15417  0.00000 -0.30833
      14     H     0.41909  0.41909  0.00000  0.16182
      15     H     0.42347  0.42347  0.00000  0.15306
      16     C     3.15231  3.15231  0.00000 -0.30461
      17     H     0.42459  0.42459  0.00000  0.15082
      18     H     0.42039  0.42039  0.00000  0.15922
      19     C     3.15134  3.15134  0.00000 -0.30269
      20     H     0.42421  0.42421  0.00000  0.15157
      21     H     0.42327  0.42327  0.00000  0.15346
      22     C     3.23923  3.23923  0.00000 -0.47845
      23     H     0.42316  0.42316  0.00000  0.15367
      24     H     0.42268  0.42268  0.00000  0.15465
      25     H     0.42219  0.42219  0.00000  0.15561
      26     H     0.41910  0.41910  0.00000  0.16180
      27     H     0.42173  0.42173  0.00000  0.15654

   Total alpha = 37.00000, Total beta = 37.00000, Total charge =  0.00000
