  ==> Input File <==

--------------------------------------------------------------------------
set {
	reference rhf
	basis cc-pvtz
}

set_num_threads( 4 )
memory 2 gb

molecule MOL {
0 1

H	 2.614283	 2.028610	 0.296620
O	 3.358864	 1.662087	 -0.142800
C	 3.565468	 0.338079	 0.273842
C	 2.533667	 -0.637565	 -0.272227
H	 4.548038	 0.064914	 -0.086598
H	 3.593945	 0.282242	 1.360360
C	 1.114816	 -0.402372	 0.240993
H	 2.544552	 -0.580764	 -1.356576
H	 2.850574	 -1.642962	 -0.005497
C	 0.113298	 -1.420414	 -0.302504
H	 0.796373	 0.598427	 -0.031033
H	 1.113377	 -0.446476	 1.328807
C	 0.458593	 -2.882978	 -0.016265
H	 -0.873093	 -1.199603	 0.098124
H	 0.038110	 -1.289806	 -1.378495
C	 0.396684	 -3.285754	 1.456039
H	 -0.229271	 -3.511305	 -0.575351
H	 1.450133	 -3.100333	 -0.407111
C	 0.651313	 -4.774286	 1.679305
H	 -0.580682	 -3.026334	 1.857194
H	 1.121884	 -2.716772	 2.029927
C	 0.593945	 -5.179150	 3.148552
H	 -0.078865	 -5.351184	 1.118407
H	 1.623842	 -5.036852	 1.271494
H	 -0.378001	 -4.958844	 3.577532
H	 0.776067	 -6.240707	 3.271170
H	 1.338765	 -4.646849	 3.731004

	symmetry c1
}
set optking {
	frozen_dihedral = ("
		14 10 7 4
	")
}

ee = optimize('scf')
oeprop('DIPOLE', 'QUADRUPOLE', 'MULLIKEN_CHARGES')
f=open( 'psi4out.xyz', 'w' )
f.write( "27  " )
f.write( str(ee) + "\n" )
f.write( MOL.save_string_xyz() )
f.close()
--------------------------------------------------------------------------

    Molecular point group: c1
  Charge       = 0
  Multiplicity = 1
  Basis Set: CC-PVTZ
  Basis Set:
  @DF-RHF Final Energy:  -388.42492418003110
    Total Energy =                       -388.4249241800305299
    Molecular point group: c1
  Basis Set: CC-PVTZ
  Basis Set:
  Basis Set: CC-PVTZ
  Basis Set:
  @DF-RHF Final Energy:  -388.42562919391804
    Total Energy =                       -388.4256291939182120
  Basis Set: CC-PVTZ
  Basis Set:
  Basis Set: CC-PVTZ
  Basis Set:
  @DF-RHF Final Energy:  -388.42600743878677
    Total Energy =                       -388.4260074387869963
  Basis Set: CC-PVTZ
  Basis Set:
  Basis Set: CC-PVTZ
  Basis Set:
  @DF-RHF Final Energy:  -388.42603357081089
    Total Energy =                       -388.4260335708111143
  Basis Set: CC-PVTZ
  Basis Set:
  Basis Set: CC-PVTZ
  Basis Set:
  @DF-RHF Final Energy:  -388.42605933682194
    Total Energy =                       -388.4260593368212540
  Basis Set: CC-PVTZ
  Basis Set:
  Basis Set: CC-PVTZ
  Basis Set:
  @DF-RHF Final Energy:  -388.42606359020351
    Total Energy =                       -388.4260635902029435
  Basis Set: CC-PVTZ
  Basis Set:
  Charge       = 0
  Multiplicity = 1
  Basis Set: CC-PVTZ
  Basis Set:

    Orbital Energies (a.u.)
    -----------------------

    Doubly Occupied:

       1A    -20.545314     2A    -11.265275     3A    -11.217133
       4A    -11.215039     5A    -11.214225     6A    -11.213091
       7A    -11.212654     8A    -11.212044     9A    -11.207679
      10A     -1.363340    11A     -1.096537    12A     -1.061286
      13A     -1.010758    14A     -0.951465    15A     -0.888823
      16A     -0.831718    17A     -0.801635    18A     -0.764357
      19A     -0.696801    20A     -0.656244    21A     -0.637041
      22A     -0.615718    23A     -0.606085    24A     -0.585013
      25A     -0.574884    26A     -0.555366    27A     -0.545715
      28A     -0.528186    29A     -0.513968    30A     -0.497355
      31A     -0.482400    32A     -0.479050    33A     -0.466267
      34A     -0.457403    35A     -0.448892    36A     -0.441033
      37A     -0.428508

  @DF-RHF Final Energy:  -388.42606370246443

   => Energetics <=

    Nuclear Repulsion Energy =            467.1655066288746525
    One-Electron Energy =               -1452.6065369120203741
    Two-Electron Energy =                 597.0149665806809480
    DFT Exchange-Correlation Energy =       0.0000000000000000
    Empirical Dispersion Energy =           0.0000000000000000
    PCM Polarization Energy =               0.0000000000000000
    EFP Energy =                            0.0000000000000000
    Total Energy =                       -388.4260637024647167
    Molecular point group: c1
  Basis Set: CC-PVTZ
  Basis Set:

  -Total Gradient:
     Atom            X                  Y                   Z
    ------   -----------------  -----------------  -----------------
       1        0.000008256630    -0.000003002568     0.000000880129
       2        0.000025147996     0.000021333723    -0.000015420008
       3       -0.000046629132     0.000008694920     0.000029840519
       4        0.000182238539    -0.000561728094     0.000661886409
       5       -0.000013079512     0.000004330890    -0.000004674379
       6        0.000014200766    -0.000001229139     0.000009417811
       7       -0.000169258766     0.000591324779    -0.000759601205
       8       -0.000003670107    -0.000010305537    -0.000011826744
       9       -0.000000233551     0.000014709400    -0.000002042907
      10       -0.000186815550     0.000682393775    -0.000856978987
      11       -0.000008580894    -0.000032613612    -0.000010796839
      12       -0.000019610369    -0.000011830220     0.000021694655
      13        0.000064013072    -0.000000760306    -0.000009575683
      14        0.000200506821    -0.000716485859     0.000935223379
      15        0.000002209544     0.000004139225     0.000003366032
      16       -0.000038219978     0.000002201330     0.000005974125
      17       -0.000001785093     0.000028386882     0.000010270903
      18       -0.000011757883    -0.000027163896    -0.000015005489
      19       -0.000004647978     0.000000611848    -0.000001749927
      20       -0.000007991310    -0.000006317061     0.000004463627
      21       -0.000002386231     0.000007879022     0.000004319986
      22        0.000018419087     0.000004818428     0.000000901537
      23       -0.000003757011     0.000005210612     0.000005238303
      24       -0.000001899658    -0.000005297036    -0.000004365204
      25        0.000000789217    -0.000001106407    -0.000006789029
      26        0.000004850132     0.000000814353    -0.000000976201
      27       -0.000000308778     0.000000990549     0.000006325185

  **** Optimization is complete! (in 7 steps) ****
    Final optimized geometry and variables:
    Molecular point group: c1

    Geometry (in Angstrom), charge = 0, multiplicity = 1:

    H            1.085208164396     3.860692943856    -0.493281842491
    O            1.854690177133     3.497115597844    -0.889678235028
    C            2.106724903230     2.215441979266    -0.377772536740
    C            1.139009734538     1.155369421382    -0.884229616282
    H            3.111482349706     1.965387725338    -0.690641875658
    H            2.103777697194     2.233966383620     0.710448509701
    C           -0.301107845788     1.359730484557    -0.417530835045
    H            1.175986085651     1.145164758293    -1.969838065977
    H            1.505353063051     0.190910542728    -0.546612821803
    C           -1.310464879656     0.357768784785    -0.987469183877
    H           -0.634016801234     2.352016791672    -0.707264284077
    H           -0.330453611683     1.335048212402     0.668592356717
    C           -1.036010676001    -1.123291752681    -0.711078343779
    H           -2.291457666512     0.600894885957    -0.588174758218
    H           -1.372777845040     0.501504298010    -2.062327420685
    C           -1.029823030739    -1.508981112627     0.766706106635
    H           -1.803472989417    -1.702275180220    -1.217320447957
    H           -0.095328636818    -1.419918672231    -1.164785556742
    C           -0.864671165019    -3.009587165805     0.992783149945
    H           -1.958010512626    -1.178203575186     1.227864550539
    H           -0.231082912644    -0.986570299019     1.285308738918
    C           -0.849520887469    -3.396568379620     2.467823247269
    H           -1.669645353633    -3.538633526529     0.490223180205
    H            0.057075633171    -3.343506595863     0.523916563446
    H           -1.772783581991    -3.105977159091     2.958109446133
    H           -0.732449239133    -4.466995276155     2.592239286454
    H           -0.032249665418    -2.911893370173     2.991723859646

  Mulliken Charges: (a.u.)
   Center  Symbol    Alpha    Beta     Spin     Total
       1     H     0.39253  0.39253  0.00000  0.21495
       2     O     4.20553  4.20553  0.00000 -0.41107
       3     C     2.97797  2.97797  0.00000  0.04406
       4     C     3.09078  3.09078  0.00000 -0.18155
       5     H     0.44835  0.44835  0.00000  0.10331
       6     H     0.46943  0.46943  0.00000  0.06115
       7     C     3.11972  3.11972  0.00000 -0.23945
       8     H     0.44969  0.44969  0.00000  0.10062
       9     H     0.45525  0.45525  0.00000  0.08951
      10     C     3.10335  3.10335  0.00000 -0.20670
      11     H     0.44676  0.44676  0.00000  0.10648
      12     H     0.44963  0.44963  0.00000  0.10074
      13     C     3.10830  3.10830  0.00000 -0.21659
      14     H     0.44772  0.44772  0.00000  0.10457
      15     H     0.44540  0.44540  0.00000  0.10920
      16     C     3.08763  3.08763  0.00000 -0.17526
      17     H     0.44352  0.44352  0.00000  0.11296
      18     H     0.44922  0.44922  0.00000  0.10156
      19     C     3.08409  3.08409  0.00000 -0.16817
      20     H     0.45356  0.45356  0.00000  0.09288
      21     H     0.45499  0.45499  0.00000  0.09002
      22     C     3.14991  3.14991  0.00000 -0.29982
      23     H     0.45362  0.45362  0.00000  0.09275
      24     H     0.45422  0.45422  0.00000  0.09156
      25     H     0.45514  0.45514  0.00000  0.08973
      26     H     0.44807  0.44807  0.00000  0.10386
      27     H     0.45564  0.45564  0.00000  0.08871

   Total alpha = 37.00000, Total beta = 37.00000, Total charge = -0.00000
