  ==> Input File <==

--------------------------------------------------------------------------
set {
	reference rhf
	basis cc-pvtz
}

set_num_threads( 4 )
memory 2 gb

molecule MOL {
0 1

H	 2.867672	 -0.456275	 0.875795
C	 2.403497	 -0.020426	 0.000000
N	 0.989899	 -0.304564	 0.000000
H	 2.867672	 -0.456275	 -0.875795
H	 2.620366	 1.051270	 0.000000
C	 0.675785	 -1.549982	 0.669205
C	 0.421109	 -0.282960	 -1.331758
H	 1.155747	 -2.400909	 0.175946
H	 1.044650	 -1.510466	 1.687588
C	 -0.825099	 -1.767474	 0.686085
H	 0.603110	 0.686212	 -1.781546
H	 0.881916	 -1.038587	 -1.975519
C	 -1.073232	 -0.533007	 -1.263465
H	 -1.063263	 -2.736827	 1.101127
H	 -1.296303	 -1.003532	 1.301275
O	 -1.354603	 -1.732908	 -0.606036
H	 -1.490754	 -0.610040	 -2.257632
H	 -1.557275	 0.294815	 -0.749159

	symmetry c1
}
set optking {
	frozen_dihedral = ("
		6 3 2 5
	")
}

ee = optimize('scf')
oeprop('DIPOLE', 'QUADRUPOLE', 'MULLIKEN_CHARGES')
f=open( 'psi4out.xyz', 'w' )
f.write( "18  " )
f.write( str(ee) + "\n" )
f.write( MOL.save_string_xyz() )
f.close()
--------------------------------------------------------------------------

    Molecular point group: c1
  Charge       = 0
  Multiplicity = 1
  Basis Set: CC-PVTZ
  Basis Set:
  @DF-RHF Final Energy:  -325.14260572169678
    Total Energy =                       -325.1426057216967820
    Molecular point group: c1
  Basis Set: CC-PVTZ
  Basis Set:
  Basis Set: CC-PVTZ
  Basis Set:
  @DF-RHF Final Energy:  -325.14351304954050
    Total Energy =                       -325.1435130495406156
  Basis Set: CC-PVTZ
  Basis Set:
  Basis Set: CC-PVTZ
  Basis Set:
  @DF-RHF Final Energy:  -325.14359943148952
    Total Energy =                       -325.1435994314899744
  Basis Set: CC-PVTZ
  Basis Set:
  Charge       = 0
  Multiplicity = 1
  Basis Set: CC-PVTZ
  Basis Set:

    Orbital Energies (a.u.)
    -----------------------

    Doubly Occupied:

       1A    -20.547400     2A    -15.542123     3A    -11.264074
       4A    -11.264014     5A    -11.242664     6A    -11.242392
       7A    -11.238977     8A     -1.386221     9A     -1.231875
      10A     -1.039297    11A     -0.981867    12A     -0.884293
      13A     -0.869793    14A     -0.773430    15A     -0.684854
      16A     -0.646704    17A     -0.645089    18A     -0.633888
      19A     -0.630026    20A     -0.573527    21A     -0.556672
      22A     -0.545295    23A     -0.526447    24A     -0.500820
      25A     -0.485769    26A     -0.453945    27A     -0.410684
      28A     -0.350635

  @DF-RHF Final Energy:  -325.14360297702035

   => Energetics <=

    Nuclear Repulsion Energy =            341.6463351909594621
    One-Electron Energy =               -1119.2743274745366762
    Two-Electron Energy =                 452.4843893065568068
    DFT Exchange-Correlation Energy =       0.0000000000000000
    Empirical Dispersion Energy =           0.0000000000000000
    PCM Polarization Energy =               0.0000000000000000
    EFP Energy =                            0.0000000000000000
    Total Energy =                       -325.1436029770204073
    Molecular point group: c1
  Basis Set: CC-PVTZ
  Basis Set:

  -Total Gradient:
     Atom            X                  Y                   Z
    ------   -----------------  -----------------  -----------------
       1       -0.000008852608    -0.000003162466     0.000016468130
       2        0.000124380181     0.000699506943    -0.004398467483
       3        0.000565132538    -0.002276492515    -0.002901763421
       4       -0.000058377595    -0.000037607026     0.000013263906
       5       -0.000088386295     0.000046607236     0.004395471683
       6       -0.000451844435     0.001515001292     0.002968665059
       7       -0.000038507263    -0.000016985555    -0.000154404760
       8       -0.000036075634     0.000083642710     0.000004924189
       9       -0.000000291833     0.000018836148    -0.000003737495
      10        0.000022346446    -0.000049322541    -0.000022054674
      11        0.000005265881     0.000004826689     0.000012172290
      12        0.000007420378     0.000023207603     0.000071419526
      13       -0.000006717736     0.000005083479     0.000029654781
      14       -0.000038743194    -0.000025233748     0.000016946985
      15        0.000031276764    -0.000006955060    -0.000020617583
      16        0.000000263999     0.000032970319    -0.000009574202
      17       -0.000027367249    -0.000013580708    -0.000009752303
      18       -0.000000922341    -0.000000342802    -0.000008614630

  **** Optimization is complete! (in 4 steps) ****
    Final optimized geometry and variables:
    Molecular point group: c1

    Geometry (in Angstrom), charge = 0, multiplicity = 1:

    H            2.681040380430     0.526277094763     1.181407801116
    C            2.232115936477     0.878349075162     0.261149947054
    N            0.825120613764     0.553127470576     0.252421538163
    H            2.780795393888     0.427844830066    -0.567264416126
    H            2.373076727522     1.952870093874     0.239962068291
    C            0.497830001950    -0.679914279616     0.935128182538
    C            0.239145441494     0.607634795389    -1.067764045315
    H            0.959926340886    -1.547966666082     0.454027007274
    H            0.866563438459    -0.632857696098     1.952632764915
    C           -1.007091074964    -0.871054680175     0.957793564247
    H            0.428476305413     1.582938619275    -1.502407215368
    H            0.682788838705    -0.140632807346    -1.732027451960
    C           -1.257214932447     0.374404478225    -0.984802402022
    H           -1.261028481316    -1.835710544781     1.374764774959
    H           -1.460793181337    -0.098035321927     1.574994816398
    O           -1.543313720922    -0.826440287430    -0.331258000870
    H           -1.686868805869     0.307890794059    -1.974675004307
    H           -1.726741761078     1.204038223376    -0.459949130491

  Mulliken Charges: (a.u.)
   Center  Symbol    Alpha    Beta     Spin     Total
       1     H     0.45488  0.45488  0.00000  0.09023
       2     C     3.09368  3.09368  0.00000 -0.18737
       3     N     3.61820  3.61820  0.00000 -0.23640
       4     H     0.46672  0.46672  0.00000  0.06656
       5     H     0.44975  0.44975  0.00000  0.10051
       6     C     3.03868  3.03868  0.00000 -0.07736
       7     C     3.04074  3.04074  0.00000 -0.08149
       8     H     0.47025  0.47025  0.00000  0.05951
       9     H     0.45415  0.45415  0.00000  0.09170
      10     C     2.98401  2.98401  0.00000  0.03197
      11     H     0.45436  0.45436  0.00000  0.09127
      12     H     0.46850  0.46850  0.00000  0.06301
      13     C     2.98354  2.98354  0.00000  0.03292
      14     H     0.44991  0.44991  0.00000  0.10019
      15     H     0.46815  0.46815  0.00000  0.06370
      16     O     4.18649  4.18649  0.00000 -0.37298
      17     H     0.45002  0.45002  0.00000  0.09997
      18     H     0.46797  0.46797  0.00000  0.06406

   Total alpha = 28.00000, Total beta = 28.00000, Total charge = -0.00000
