  ==> Input File <==

--------------------------------------------------------------------------
set {
	reference rhf
	basis cc-pvtz
}

set_num_threads( 4 )
memory 2 gb

molecule MOL {
0 1

H	 1.719197	 0.253064	 -3.074091
O	 2.214660	 0.539601	 -2.327677
C	 1.471446	 0.522312	 -1.207001
C	 2.082303	 0.923317	 -0.027523
C	 0.151044	 0.126271	 -1.199974
H	 3.109878	 1.227410	 -0.055351
C	 1.371073	 0.926193	 1.150397
H	 -0.345121	 -0.187782	 -2.094673
C	 -0.532034	 0.141680	 0.000000
H	 1.851427	 1.237686	 2.057028
C	 0.043645	 0.532707	 1.182782
N	 -1.937041	 -0.281114	 0.000000
H	 -0.520819	 0.529805	 2.089476
O	 -2.159542	 -1.446261	 0.000000
O	 -2.764978	 0.565773	 0.000000

	symmetry c1
}
set optking {
	frozen_dihedral = ("
		11 9 12 14
	")
}

ee = optimize('scf')
oeprop('DIPOLE', 'QUADRUPOLE', 'MULLIKEN_CHARGES')
f=open( 'psi4out.xyz', 'w' )
f.write( "15  " )
f.write( str(ee) + "\n" )
f.write( MOL.save_string_xyz() )
f.close()
--------------------------------------------------------------------------

    Molecular point group: c1
  Charge       = 0
  Multiplicity = 1
  Basis Set: CC-PVTZ
  Basis Set:
  @DF-RHF Final Energy:  -509.20967405476648
    Total Energy =                       -509.2096740547666514
    Molecular point group: c1
  Basis Set: CC-PVTZ
  Basis Set:
  Basis Set: CC-PVTZ
  Basis Set:
  @DF-RHF Final Energy:  -509.20641380657275
    Total Energy =                       -509.2064138065727548
  Basis Set: CC-PVTZ
  Basis Set:
  Basis Set: CC-PVTZ
  Basis Set:
  @DF-RHF Final Energy:  -509.20896523408879
    Total Energy =                       -509.2089652340890780
  Basis Set: CC-PVTZ
  Basis Set:
  Basis Set: CC-PVTZ
  Basis Set:
  @DF-RHF Final Energy:  -509.20995955057589
    Total Energy =                       -509.2099595505756042
  Basis Set: CC-PVTZ
  Basis Set:
  Basis Set: CC-PVTZ
  Basis Set:
  @DF-RHF Final Energy:  -509.20996182822114
    Total Energy =                       -509.2099618282207985
  Basis Set: CC-PVTZ
  Basis Set:
  Charge       = 0
  Multiplicity = 1
  Basis Set: CC-PVTZ
  Basis Set:

    Orbital Energies (a.u.)
    -----------------------

    Doubly Occupied:

       1A    -20.610673     2A    -20.601060     3A    -20.600772
       4A    -15.851004     5A    -11.330839     6A    -11.314925
       7A    -11.265284     8A    -11.263973     9A    -11.257721
      10A    -11.250060    11A     -1.648538    12A     -1.443668
      13A     -1.431804    14A     -1.204632    15A     -1.096616
      16A     -1.050025    17A     -0.966818    18A     -0.887212
      19A     -0.834103    20A     -0.793965    21A     -0.768659
      22A     -0.741250    23A     -0.725051    24A     -0.712693
      25A     -0.672458    26A     -0.636116    27A     -0.623974
      28A     -0.596304    29A     -0.565865    30A     -0.550296
      31A     -0.538379    32A     -0.495723    33A     -0.487356
      34A     -0.461824    35A     -0.376515    36A     -0.346330

  @DF-RHF Final Energy:  -509.20996217097155

   => Energetics <=

    Nuclear Repulsion Energy =            503.8180254104401570
    One-Electron Energy =               -1694.0510060463268474
    Two-Electron Energy =                 681.0230184649151397
    DFT Exchange-Correlation Energy =       0.0000000000000000
    Empirical Dispersion Energy =           0.0000000000000000
    PCM Polarization Energy =               0.0000000000000000
    EFP Energy =                            0.0000000000000000
    Total Energy =                       -509.2099621709714938
    Molecular point group: c1
  Basis Set: CC-PVTZ
  Basis Set:

  -Total Gradient:
     Atom            X                  Y                   Z
    ------   -----------------  -----------------  -----------------
       1       -0.000002308030    -0.000001459352     0.000001061864
       2        0.000024213938    -0.000006497024    -0.000012853106
       3       -0.000068816945     0.000005489524    -0.000000839103
       4       -0.000000119844     0.000018619744     0.000033488019
       5        0.000044527475     0.000009037357    -0.000029429308
       6       -0.000001194275    -0.000002144793    -0.000002838017
       7        0.000046511519    -0.000021920525    -0.000012785856
       8       -0.000000364638     0.000000512946     0.000006978780
       9       -0.000942110876     0.002902531215     0.000447334441
      10       -0.000003397818     0.000003092031     0.000001218243
      11        0.000599115249    -0.002029925147     0.000314823172
      12        0.000272651363    -0.000801196786    -0.003191530129
      13        0.000002546844     0.000004258454    -0.000002995789
      14        0.000007076137    -0.000045213246     0.002453796698
      15        0.000021669905    -0.000035184394    -0.000005429906

  **** Optimization is complete! (in 6 steps) ****
    Final optimized geometry and variables:
    Molecular point group: c1

    Geometry (in Angstrom), charge = 0, multiplicity = 1:

    H            1.785019097758     0.020895982529    -2.789697487988
    O            2.278164445701     0.308730826491    -2.042342879232
    C            1.536137865204     0.294088173221    -0.923414305514
    C            2.147506613307     0.690877044229     0.257022358739
    C            0.212743113511    -0.102252753626    -0.917632892179
    H            3.176385879056     0.989391562590     0.231230794114
    C            1.434050147096     0.693198934897     1.433114307934
    H           -0.277435179863    -0.428494713140    -1.814732525459
    C           -0.466438741629    -0.070415227155     0.278749466173
    H            1.916106665866     0.996729410021     2.341795388881
    C            0.102173248576     0.310638798755     1.463683716878
    N           -1.865474986766    -0.509905371136     0.281088434807
    H           -0.464668229413     0.315584940004     2.372217849316
    O           -2.061779257221    -1.677506088210     0.268114089744
    O           -2.695616969443     0.333302049027     0.312648316294

  Mulliken Charges: (a.u.)
   Center  Symbol    Alpha    Beta     Spin     Total
       1     H     0.38453  0.38453  0.00000  0.23094
       2     O     4.16721  4.16721  0.00000 -0.33442
       3     C     2.84109  2.84109  0.00000  0.31782
       4     C     3.10950  3.10950  0.00000 -0.21900
       5     C     3.13823  3.13823  0.00000 -0.27647
       6     H     0.41434  0.41434  0.00000  0.17131
       7     C     3.04834  3.04834  0.00000 -0.09668
       8     H     0.42375  0.42375  0.00000  0.15249
       9     C     2.91938  2.91938  0.00000  0.16124
      10     H     0.41630  0.41630  0.00000  0.16740
      11     C     3.10589  3.10589  0.00000 -0.21177
      12     N     3.29187  3.29187  0.00000  0.41625
      13     H     0.41473  0.41473  0.00000  0.17053
      14     O     4.16273  4.16273  0.00000 -0.32545
      15     O     4.16210  4.16210  0.00000 -0.32420

   Total alpha = 36.00000, Total beta = 36.00000, Total charge = -0.00000
