  ==> Input File <==

--------------------------------------------------------------------------
set {
	reference rhf
	basis cc-pvtz
}

set_num_threads( 4 )
memory 2 gb

molecule MOL {
0 1

H	 -2.345464	 -0.406877	 -0.716437
O	 -2.041679	 -0.058866	 0.103463
C	 -0.959304	 0.780994	 -0.094939
C	 0.354905	 0.037902	 -0.006215
H	 -0.985899	 1.279578	 -1.057596
H	 -0.969809	 1.529522	 0.682889
F	 0.412060	 -0.931028	 -0.902708
F	 1.359641	 0.856111	 -0.239961
F	 0.545380	 -0.506387	 1.171682

	symmetry c1
}
set optking {
	frozen_dihedral = ("
		1 2 3 5
	")
}

ee = optimize('scf')
oeprop('DIPOLE', 'QUADRUPOLE', 'MULLIKEN_CHARGES')
f=open( 'psi4out.xyz', 'w' )
f.write( "9  " )
f.write( str(ee) + "\n" )
f.write( MOL.save_string_xyz() )
f.close()
--------------------------------------------------------------------------

    Molecular point group: c1
  Charge       = 0
  Multiplicity = 1
  Basis Set: CC-PVTZ
  Basis Set:
  @DF-RHF Final Energy:  -450.84641673553233
    Total Energy =                       -450.8464167355321024
    Molecular point group: c1
  Basis Set: CC-PVTZ
  Basis Set:
  Basis Set: CC-PVTZ
  Basis Set:
  @DF-RHF Final Energy:  -450.84651118856141
    Total Energy =                       -450.8465111885614647
  Basis Set: CC-PVTZ
  Basis Set:
  Basis Set: CC-PVTZ
  Basis Set:
  @DF-RHF Final Energy:  -450.84653319331727
    Total Energy =                       -450.8465331933175548
  Basis Set: CC-PVTZ
  Basis Set:
  Charge       = 0
  Multiplicity = 1
  Basis Set: CC-PVTZ
  Basis Set:

    Orbital Energies (a.u.)
    -----------------------

    Doubly Occupied:

       1A    -26.336461     2A    -26.335471     3A    -26.332583
       4A    -20.583693     5A    -11.490395     6A    -11.310373
       7A     -1.744424     8A     -1.641322     9A     -1.639649
      10A     -1.407148    11A     -1.049826    12A     -0.927166
      13A     -0.834953    14A     -0.833357    15A     -0.803393
      16A     -0.737598    17A     -0.715688    18A     -0.704681
      19A     -0.669620    20A     -0.662053    21A     -0.645925
      22A     -0.634652    23A     -0.609638    24A     -0.536805
      25A     -0.483887

  @DF-RHF Final Energy:  -450.84653437350971

   => Energetics <=

    Nuclear Repulsion Energy =            277.5272878342825607
    One-Electron Energy =               -1177.4061254669190930
    Two-Electron Energy =                 449.0323032591269907
    DFT Exchange-Correlation Energy =       0.0000000000000000
    Empirical Dispersion Energy =           0.0000000000000000
    PCM Polarization Energy =               0.0000000000000000
    EFP Energy =                            0.0000000000000000
    Total Energy =                       -450.8465343735095416
    Molecular point group: c1
  Basis Set: CC-PVTZ
  Basis Set:

  -Total Gradient:
     Atom            X                  Y                   Z
    ------   -----------------  -----------------  -----------------
       1       -0.001171878243     0.001471500388    -0.000205213892
       2        0.001781704489    -0.002156778828     0.000038824598
       3       -0.001473921364     0.001994744230     0.000851715642
       4        0.000177239436     0.000096917045     0.000012953951
       5        0.000858363944    -0.001292534899    -0.000639737943
       6       -0.000022375704     0.000019558400    -0.000002212536
       7       -0.000034715812    -0.000152922967    -0.000187192036
       8       -0.000111048158    -0.000052109290     0.000085754459
       9       -0.000003368589     0.000071625919     0.000045107760

  **** Optimization is complete! (in 4 steps) ****
    Final optimized geometry and variables:
    Molecular point group: c1

    Geometry (in Angstrom), charge = 0, multiplicity = 1:

    H           -2.330267920289    -0.428525022065    -0.696290532710
    O           -2.032484121108    -0.059778232224     0.114907226657
    C           -0.954991663382     0.785329366774    -0.095452965650
    C            0.354619353000     0.032608119219    -0.008546446942
    H           -0.978508488570     1.263554905931    -1.067419815546
    H           -0.952217094608     1.545742281733     0.671578262502
    F            0.421653984800    -0.918043974435    -0.920416349556
    F            1.363909129631     0.854946848541    -0.215869932852
    F            0.530853328715    -0.529505513538     1.163169579908

  Mulliken Charges: (a.u.)
   Center  Symbol    Alpha    Beta     Spin     Total
       1     H     0.38603  0.38603  0.00000  0.22794
       2     O     4.19229  4.19229  0.00000 -0.38459
       3     C     2.99435  2.99435  0.00000  0.01131
       4     C     2.68043  2.68043  0.00000  0.63914
       5     H     0.46105  0.46105  0.00000  0.07791
       6     H     0.44839  0.44839  0.00000  0.10322
       7     F     4.61581  4.61581  0.00000 -0.23163
       8     F     4.61383  4.61383  0.00000 -0.22765
       9     F     4.60782  4.60782  0.00000 -0.21564

   Total alpha = 25.00000, Total beta = 25.00000, Total charge = -0.00000
