  ==> Input File <==

--------------------------------------------------------------------------
set {
	reference rhf
	basis cc-pvtz
}

set_num_threads( 4 )
memory 2 gb

molecule MOL {
0 1

H	 -0.067656	 1.929220	 0.529448
O	 0.057669	 1.301365	 -0.158528
C	 0.004145	 -0.005141	 0.363049
C	 1.199168	 -0.827145	 -0.096690
C	 -1.316386	 -0.602081	 -0.083515
H	 0.012026	 0.043363	 1.450619
H	 1.216685	 -0.896776	 -1.178167
H	 2.129940	 -0.372354	 0.228035
H	 1.160783	 -1.829622	 0.314294
H	 -1.357882	 -0.655920	 -1.165207
H	 -2.140147	 0.011735	 0.257253
H	 -1.440790	 -1.601175	 0.317669

	symmetry c1
}
set optking {
	frozen_dihedral = ("
		1 2 3 4
	")
}

ee = optimize('scf')
oeprop('DIPOLE', 'QUADRUPOLE', 'MULLIKEN_CHARGES')
f=open( 'psi4out.xyz', 'w' )
f.write( "12  " )
f.write( str(ee) + "\n" )
f.write( MOL.save_string_xyz() )
f.close()
--------------------------------------------------------------------------

    Molecular point group: c1
  Charge       = 0
  Multiplicity = 1
  Basis Set: CC-PVTZ
  Basis Set:
  @DF-RHF Final Energy:  -193.19344889616323
    Total Energy =                       -193.1934488961633747
    Molecular point group: c1
  Basis Set: CC-PVTZ
  Basis Set:
  Basis Set: CC-PVTZ
  Basis Set:
  @DF-RHF Final Energy:  -193.19416938111632
    Total Energy =                       -193.1941693811164100
  Basis Set: CC-PVTZ
  Basis Set:
  Basis Set: CC-PVTZ
  Basis Set:
  @DF-RHF Final Energy:  -193.19430181965294
    Total Energy =                       -193.1943018196527078
  Basis Set: CC-PVTZ
  Basis Set:
  Basis Set: CC-PVTZ
  Basis Set:
  @DF-RHF Final Energy:  -193.19430366336857
    Total Energy =                       -193.1943036633684869
  Basis Set: CC-PVTZ
  Basis Set:
  Charge       = 0
  Multiplicity = 1
  Basis Set: CC-PVTZ
  Basis Set:

    Orbital Energies (a.u.)
    -----------------------

    Doubly Occupied:

       1A    -20.542816     2A    -11.274704     3A    -11.205458
       4A    -11.204769     5A     -1.362671     6A     -1.042694
       7A     -0.936527     8A     -0.799935     9A     -0.714435
      10A     -0.610111    11A     -0.599811    12A     -0.558663
      13A     -0.538579    14A     -0.525492    15A     -0.506944
      16A     -0.464831    17A     -0.432578

  @DF-RHF Final Energy:  -193.19430397128917

   => Energetics <=

    Nuclear Repulsion Energy =            135.4865565810360408
    One-Electron Energy =                -530.7196855598235743
    Two-Electron Energy =                 202.0388250074983318
    DFT Exchange-Correlation Energy =       0.0000000000000000
    Empirical Dispersion Energy =           0.0000000000000000
    PCM Polarization Energy =               0.0000000000000000
    EFP Energy =                            0.0000000000000000
    Total Energy =                       -193.1943039712892016
    Molecular point group: c1
  Basis Set: CC-PVTZ
  Basis Set:

  -Total Gradient:
     Atom            X                  Y                   Z
    ------   -----------------  -----------------  -----------------
       1        0.000988942281    -0.000011508143     0.000186899497
       2       -0.001119266169     0.000053637772    -0.000064747227
       3       -0.000182818120    -0.000187295641    -0.000631176925
       4        0.000290092326     0.000155095914     0.000513817404
       5        0.000012506988    -0.000007349411    -0.000003843947
       6       -0.000000287753    -0.000016126108     0.000002694256
       7       -0.000005175653    -0.000000601386    -0.000010064963
       8       -0.000008402290     0.000009042872     0.000006484567
       9        0.000002789350     0.000002728710    -0.000007131005
      10        0.000003159700     0.000008097646     0.000000807001
      11        0.000017653254    -0.000001344933    -0.000001109812
      12        0.000000806084    -0.000004377291     0.000007371155

  **** Optimization is complete! (in 5 steps) ****
    Final optimized geometry and variables:
    Molecular point group: c1

    Geometry (in Angstrom), charge = 0, multiplicity = 1:

    H           -0.003238207570     1.939536124500     0.498489451428
    O            0.116288514104     1.296842754998    -0.173805850513
    C           -0.000169935646    -0.006910901622     0.357057797422
    C            1.200711443958    -0.816831149735    -0.099477434181
    C           -1.318960252131    -0.621080687617    -0.084222829632
    H            0.013201572536     0.045728324262     1.442906529411
    H            1.234090061627    -0.856522224658    -1.182261334765
    H            2.118746394676    -0.360909210394     0.249373610890
    H            1.152035115739    -1.831310431753     0.280079460665
    H           -1.364175865204    -0.669958113073    -1.166015381210
    H           -2.152747590113    -0.020834915557     0.260218495938
    H           -1.433502893418    -1.624308339461     0.311495689373

  Mulliken Charges: (a.u.)
   Center  Symbol    Alpha    Beta     Spin     Total
       1     H     0.39070  0.39070  0.00000  0.21861
       2     O     4.21149  4.21149  0.00000 -0.42297
       3     C     2.92610  2.92610  0.00000  0.14781
       4     C     3.13716  3.13716  0.00000 -0.27431
       5     C     3.13694  3.13694  0.00000 -0.27388
       6     H     0.46789  0.46789  0.00000  0.06423
       7     H     0.45235  0.45235  0.00000  0.09531
       8     H     0.45135  0.45135  0.00000  0.09730
       9     H     0.45969  0.45969  0.00000  0.08061
      10     H     0.45254  0.45254  0.00000  0.09492
      11     H     0.45437  0.45437  0.00000  0.09127
      12     H     0.45944  0.45944  0.00000  0.08113

   Total alpha = 17.00000, Total beta = 17.00000, Total charge = -0.00000
