  ==> Input File <==

--------------------------------------------------------------------------
set {
	reference rhf
	basis 6-31G*
}

set_num_threads( 4 )
memory 2 gb

molecule MOL {
0 1

H	 1.820271	 2.038869	 -1.010951
O	 0.906138	 1.913006	 -0.801099
C	 0.702312	 0.627605	 -0.264544
C	 -0.714990	 0.596302	 0.266387
H	 1.398129	 0.435252	 0.547672
H	 0.836350	 -0.138311	 -1.025419
O	 -1.405996	 -0.526611	 -0.195820
H	 -1.257453	 1.468809	 -0.075599
H	 -0.688972	 0.618407	 1.353696
H	 -0.890587	 -1.292708	 0.022039

	symmetry c1
}
set optking {
	frozen_dihedral = ("
		5 3 4 7
	")
}

ee = optimize('scf')
oeprop('DIPOLE', 'QUADRUPOLE', 'MULLIKEN_CHARGES')
f=open( 'psi4out.xyz', 'w' )
f.write( "10  " )
f.write( str(ee) + "\n" )
f.write( MOL.save_string_xyz() )
f.close()
--------------------------------------------------------------------------

    Molecular point group: c1
  Charge       = 0
  Multiplicity = 1
  Basis Set: 6-31G*
  Basis Set:
  @DF-RHF Final Energy:  -228.91292305385949
    Total Energy =                       -228.9129230538595152
    Molecular point group: c1
  Basis Set: 6-31G*
  Basis Set:
  Basis Set: 6-31G*
  Basis Set:
  @DF-RHF Final Energy:  -228.91440137647714
    Total Energy =                       -228.9144013764771728
  Basis Set: 6-31G*
  Basis Set:
  Basis Set: 6-31G*
  Basis Set:
  @DF-RHF Final Energy:  -228.91494550309196
    Total Energy =                       -228.9149455030919569
  Basis Set: 6-31G*
  Basis Set:
  Basis Set: 6-31G*
  Basis Set:
  @DF-RHF Final Energy:  -228.91502066599557
    Total Energy =                       -228.9150206659956268
  Basis Set: 6-31G*
  Basis Set:
  Basis Set: 6-31G*
  Basis Set:
  @DF-RHF Final Energy:  -228.91502415808534
    Total Energy =                       -228.9150241580853447
  Basis Set: 6-31G*
  Basis Set:
  Charge       = 0
  Multiplicity = 1
  Basis Set: 6-31G*
  Basis Set:

    Orbital Energies (a.u.)
    -----------------------

    Doubly Occupied:

       1A    -20.558790     2A    -20.557724     3A    -11.272202
       4A    -11.268626     5A     -1.371434     6A     -1.357800
       7A     -0.994669     8A     -0.846200     9A     -0.709015
      10A     -0.701018    11A     -0.634985    12A     -0.595481
      13A     -0.581792    14A     -0.526129    15A     -0.487759
      16A     -0.442157    17A     -0.437515

  @DF-RHF Final Energy:  -228.91502430716329

   => Energetics <=

    Nuclear Repulsion Energy =            131.0977381436525491
    One-Electron Energy =                -573.3389336356819967
    Two-Electron Energy =                 213.3261711848661832
    DFT Exchange-Correlation Energy =       0.0000000000000000
    Empirical Dispersion Energy =           0.0000000000000000
    PCM Polarization Energy =               0.0000000000000000
    EFP Energy =                            0.0000000000000000
    Total Energy =                       -228.9150243071632360
    Molecular point group: c1
  Basis Set: 6-31G*
  Basis Set:

  -Total Gradient:
     Atom            X                  Y                   Z
    ------   -----------------  -----------------  -----------------
       1       -0.000009946853    -0.000017089798     0.000007359932
       2       -0.000002636457     0.000019905874    -0.000002029229
       3       -0.000373163797    -0.003895103429    -0.001911683009
       4        0.001241887958    -0.001266663380     0.003249321081
       5        0.000056243467     0.003543771499     0.000855640985
       6        0.000011913729    -0.000002762282     0.000006651464
       7       -0.000902876233     0.001619090614    -0.002219872549
       8       -0.000015366640    -0.000019501260    -0.000002651229
       9       -0.000011675270     0.000000159276     0.000012503682
      10        0.000005620096     0.000018192885     0.000004758871

  **** Optimization is complete! (in 6 steps) ****
    Final optimized geometry and variables:
    Molecular point group: c1

    Geometry (in Angstrom), charge = 0, multiplicity = 1:

    H            1.918612609399     1.421525733000    -0.775823717163
    O            1.025557195174     1.318596182547    -0.479305957123
    C            0.830585228069     0.007747976648    -0.009232207379
    C           -0.606948158887    -0.091395238230     0.513279388906
    H            1.549600342708    -0.197772151947     0.781807658433
    H            0.963788252655    -0.717441311249    -0.806286505976
    O           -1.297370318477    -1.206314266195     0.012136866825
    H           -1.141741738377     0.777425916926     0.159253676610
    H           -0.631399801620    -0.078054088593     1.599451030292
    H           -1.007796418095    -1.991705978124     0.454306898154

  Mulliken Charges: (a.u.)
   Center  Symbol    Alpha    Beta     Spin     Total
       1     H     0.28011  0.28011  0.00000  0.43978
       2     O     4.37206  4.37206  0.00000 -0.74412
       3     C     3.00958  3.00958  0.00000 -0.01916
       4     C     3.01081  3.01081  0.00000 -0.02162
       5     H     0.43219  0.43219  0.00000  0.13561
       6     H     0.41975  0.41975  0.00000  0.16050
       7     O     4.36906  4.36906  0.00000 -0.73812
       8     H     0.39696  0.39696  0.00000  0.20607
       9     H     0.42655  0.42655  0.00000  0.14690
      10     H     0.28292  0.28292  0.00000  0.43416

   Total alpha = 17.00000, Total beta = 17.00000, Total charge =  0.00000
