                              Psi4 1.0.54 Driver

  ==> Input File <==

--------------------------------------------------------------------------
set {
	reference rhf
	basis cc-pvtz
}

set_num_threads( 4 )
memory 2 gb

molecule MOL {
0 1

H	 -0.615638	 1.419562	 -0.803436
O	 0.057669	 1.301365	 -0.158528
C	 0.004145	 -0.005141	 0.363049
C	 1.199168	 -0.827145	 -0.096690
C	 -1.316386	 -0.602081	 -0.083515
H	 0.012026	 0.043363	 1.450619
H	 1.216685	 -0.896776	 -1.178167
H	 2.129940	 -0.372354	 0.228035
H	 1.160783	 -1.829622	 0.314294
H	 -1.357882	 -0.655920	 -1.165207
H	 -2.140147	 0.011735	 0.257253
H	 -1.440790	 -1.601175	 0.317669

	symmetry c1
}
set optking {
	frozen_dihedral = ("
		1 2 3 4
	")
}

ee,wfn = optimize('scf', return_wfn=True)
oeprop( wfn, 'DIPOLE', 'QUADRUPOLE', 'MULLIKEN_CHARGES')
f=open( 'psi4out.xyz', 'w' )
f.write( "12  " )
f.write( str(ee) + "\n" )
f.write( MOL.save_string_xyz() )
f.close()
--------------------------------------------------------------------------

    Molecular point group: c1
  Charge       = 0
  Multiplicity = 1
  Basis Set: CC-PVTZ
  Basis Set:
  @DF-RHF Final Energy:  -193.19226724195482
    Total Energy =                       -193.1922672419547951
    Molecular point group: c1
  Basis Set: CC-PVTZ
  Basis Set:
  Basis Set: CC-PVTZ
  Basis Set:
  @DF-RHF Final Energy:  -193.18580303119401
    Total Energy =                       -193.1858030311941263
  Basis Set: CC-PVTZ
  Basis Set:
  Basis Set: CC-PVTZ
  Basis Set:
  @DF-RHF Final Energy:  -193.19343903781936
    Total Energy =                       -193.1934390378193598
  Basis Set: CC-PVTZ
  Basis Set:
  Basis Set: CC-PVTZ
  Basis Set:
  @DF-RHF Final Energy:  -193.19399923053177
    Total Energy =                       -193.1939992305316878
  Basis Set: CC-PVTZ
  Basis Set:
  Basis Set: CC-PVTZ
  Basis Set:
  @DF-RHF Final Energy:  -193.19401483600896
    Total Energy =                       -193.1940148360088756
  Basis Set: CC-PVTZ
  Basis Set:
  Basis Set: CC-PVTZ
  Basis Set:
  @DF-RHF Final Energy:  -193.19401743704577
    Total Energy =                       -193.1940174370457726
  Basis Set: CC-PVTZ
  Basis Set:
  Charge       = 0
  Multiplicity = 1
  Basis Set: CC-PVTZ
  Basis Set:

    Orbital Energies (a.u.)
    -----------------------

    Doubly Occupied:

       1A    -20.542246     2A    -11.274029     3A    -11.217626
       4A    -11.205312     5A     -1.362865     6A     -1.043965
       7A     -0.943503     8A     -0.816132     9A     -0.666438
      10A     -0.651129    11A     -0.607752    12A     -0.561458
      13A     -0.546108    14A     -0.517176    15A     -0.515337
      16A     -0.467580    17A     -0.431500

  @DF-RHF Final Energy:  -193.19401752365016

   => Energetics <=

    Nuclear Repulsion Energy =            135.6076807561155704
    One-Electron Energy =                -530.8630830113238517
    Two-Electron Energy =                 202.0613847315581211
    DFT Exchange-Correlation Energy =       0.0000000000000000
    Empirical Dispersion Energy =           0.0000000000000000
    PCM Polarization Energy =               0.0000000000000000
    EFP Energy =                            0.0000000000000000
    Total Energy =                       -193.1940175236501887
    Molecular point group: c1
  Basis Set: CC-PVTZ
  Basis Set:

  -Total Gradient:
     Atom            X                  Y                   Z
    ------   -----------------  -----------------  -----------------
       1       -0.000740500696     0.000089585362     0.000542895564
       2        0.000971333208    -0.000065430453    -0.000484440330
       3       -0.000388956686    -0.000094291956    -0.000596826920
       4        0.000156634916     0.000073370766     0.000531038820
       5        0.000004629433     0.000012110506     0.000008661178
       6       -0.000010854661    -0.000002974964    -0.000008561048
       7        0.000007317526    -0.000000592416    -0.000006594369
       8       -0.000009251185     0.000001149226     0.000004468674
       9        0.000001494878    -0.000004671753    -0.000003611043
      10        0.000004793336     0.000005773359     0.000009690706
      11        0.000003723280    -0.000000019722     0.000000358327
      12       -0.000000363349    -0.000014007957     0.000002920443

  **** Optimization is complete! (in 7 steps) ****
    Final optimized geometry and variables:
    Molecular point group: c1

    Geometry (in Angstrom), charge = 0, multiplicity = 1:

    H           -0.551183456141     1.560194199169    -0.605444067331
    O           -0.030956457308     1.325576729472     0.139831681202
    C           -0.057047827005    -0.069519513877     0.345710308233
    C            1.304344685189    -0.658577546989     0.013517561364
    C           -1.184260965085    -0.724935662728    -0.435477425797
    H           -0.244495393569    -0.215065147510     1.404561371322
    H            1.523563818225    -0.546112010066    -1.043172711349
    H            2.076178752597    -0.146625143015     0.573667729526
    H            1.341848190954    -1.713942943066     0.261442604733
    H           -1.036800577283    -0.596890611507    -1.504464085912
    H           -2.140313561689    -0.290520795428    -0.165853190113
    H           -1.228053911111    -1.787890480994    -0.232077502021

  Mulliken Charges: (a.u.)
   Center  Symbol    Alpha    Beta     Spin     Total
       1     H     0.39252  0.39252  0.00000  0.21496
       2     O     4.21093  4.21093  0.00000 -0.42185
       3     C     2.92148  2.92148  0.00000  0.15704
       4     C     3.13739  3.13739  0.00000 -0.27478
       5     C     3.15869  3.15869  0.00000 -0.31738
       6     H     0.45838  0.45838  0.00000  0.08325
       7     H     0.46020  0.46020  0.00000  0.07961
       8     H     0.44655  0.44655  0.00000  0.10690
       9     H     0.45979  0.45979  0.00000  0.08042
      10     H     0.45706  0.45706  0.00000  0.08587
      11     H     0.44573  0.44573  0.00000  0.10853
      12     H     0.45129  0.45129  0.00000  0.09743

   Total alpha = 17.00000, Total beta = 17.00000, Total charge = -0.00000

*** Psi4 exiting successfully. Buy a developer a beer!
