                              Psi4 1.0.54 Driver

  ==> Input File <==

--------------------------------------------------------------------------
set {
	reference rhf
	basis cc-pvtz
}

set_num_threads( 4 )
memory 2 gb

molecule MOL {
0 1

H	 -1.088256	 -1.364742	 0.152233
O	 -1.432053	 -0.565244	 -0.200812
C	 -0.727158	 0.534527	 0.310686
C	 0.680222	 0.664433	 -0.252229
H	 -1.306802	 1.408001	 0.044211
H	 -0.690821	 0.490158	 1.397609
C	 0.722700	 1.012406	 -1.737206
H	 1.212368	 1.419717	 0.316627
H	 1.195286	 -0.277980	 -0.087257
H	 0.269705	 1.978090	 -1.933098
H	 1.743892	 1.060242	 -2.095579
H	 0.200007	 0.268499	 -2.330797

	symmetry c1
}
set optking {
	frozen_dihedral = ("
		8 4 3 2
	")
}

ee,wfn = optimize('scf', return_wfn=True)
oeprop( wfn, 'DIPOLE', 'QUADRUPOLE', 'MULLIKEN_CHARGES')
f=open( 'psi4out.xyz', 'w' )
f.write( "12  " )
f.write( str(ee) + "\n" )
f.write( MOL.save_string_xyz() )
f.close()
--------------------------------------------------------------------------

    Molecular point group: c1
  Charge       = 0
  Multiplicity = 1
  Basis Set: CC-PVTZ
  Basis Set:
  @DF-RHF Final Energy:  -193.19060668859953
    Total Energy =                       -193.1906066885995870
    Molecular point group: c1
  Basis Set: CC-PVTZ
  Basis Set:
  Basis Set: CC-PVTZ
  Basis Set:
  @DF-RHF Final Energy:  -193.19078393437954
    Total Energy =                       -193.1907839343795672
  Basis Set: CC-PVTZ
  Basis Set:
  Basis Set: CC-PVTZ
  Basis Set:
  @DF-RHF Final Energy:  -193.19081081396877
    Total Energy =                       -193.1908108139688807
  Basis Set: CC-PVTZ
  Basis Set:
  Basis Set: CC-PVTZ
  Basis Set:
  @DF-RHF Final Energy:  -193.19081355424689
    Total Energy =                       -193.1908135542468870
  Basis Set: CC-PVTZ
  Basis Set:
  Charge       = 0
  Multiplicity = 1
  Basis Set: CC-PVTZ
  Basis Set:

    Orbital Energies (a.u.)
    -----------------------

    Doubly Occupied:

       1A    -20.546625     2A    -11.266123     3A    -11.218372
       4A    -11.206706     5A     -1.364716     6A     -1.050248
       7A     -0.922106     8A     -0.816153     9A     -0.682173
      10A     -0.638449    11A     -0.626374    12A     -0.568010
      13A     -0.531090    14A     -0.523511    15A     -0.485032
      16A     -0.468541    17A     -0.432757

  @DF-RHF Final Energy:  -193.19081373779363

   => Energetics <=

    Nuclear Repulsion Energy =            133.0419670577017541
    One-Electron Energy =                -525.7715928090512989
    Two-Electron Energy =                 199.5388120135558552
    DFT Exchange-Correlation Energy =       0.0000000000000000
    Empirical Dispersion Energy =           0.0000000000000000
    PCM Polarization Energy =               0.0000000000000000
    EFP Energy =                            0.0000000000000000
    Total Energy =                       -193.1908137377936896
    Molecular point group: c1
  Basis Set: CC-PVTZ
  Basis Set:

  -Total Gradient:
     Atom            X                  Y                   Z
    ------   -----------------  -----------------  -----------------
       1        0.000004366967     0.000009151447     0.000002762283
       2        0.000432272166    -0.000721357619     0.000951897493
       3       -0.000460860968     0.000756686234    -0.001054589887
       4       -0.000467627557     0.001125771281    -0.000919742325
       5       -0.000008365973    -0.000019956886    -0.000012317215
       6       -0.000007488989    -0.000009356600    -0.000000403880
       7        0.000014986783    -0.000005385097    -0.000003190606
       8        0.000504250425    -0.001119966558     0.001034206950
       9        0.000005460398    -0.000005896778    -0.000006466403
      10        0.000012828623    -0.000002482917     0.000011978796
      11       -0.000021805344     0.000004189916     0.000006088601
      12       -0.000008016532    -0.000011396422    -0.000010223805

  **** Optimization is complete! (in 5 steps) ****
    Final optimized geometry and variables:
    Molecular point group: c1

    Geometry (in Angstrom), charge = 0, multiplicity = 1:

    H           -0.785897166753    -1.733131020204     0.532772046213
    O           -1.207160375018    -0.937666018386     0.262117444621
    C           -0.510708069305     0.166978135014     0.775444799665
    C            0.899031398238     0.295452356701     0.217316606768
    H           -1.098374431597     1.038059055307     0.514766946973
    H           -0.472856581620     0.115219800982     1.860734840757
    C            0.939767458529     0.622503063290    -1.270819212037
    H            1.426086467520     1.055278398608     0.787600652195
    H            1.430842247498    -0.635890901705     0.402790811822
    H            0.478066582151     1.584200383199    -1.468385359018
    H            1.960039491038     0.664192419946    -1.633959294472
    H            0.407255075295    -0.124605949524    -1.845528049060

  Mulliken Charges: (a.u.)
   Center  Symbol    Alpha    Beta     Spin     Total
       1     H     0.39461  0.39461  0.00000  0.21078
       2     O     4.20421  4.20421  0.00000 -0.40842
       3     C     2.97204  2.97204  0.00000  0.05593
       4     C     3.08816  3.08816  0.00000 -0.17632
       5     H     0.46049  0.46049  0.00000  0.07902
       6     H     0.46287  0.46287  0.00000  0.07426
       7     C     3.14718  3.14718  0.00000 -0.29435
       8     H     0.45465  0.45465  0.00000  0.09069
       9     H     0.46165  0.46165  0.00000  0.07671
      10     H     0.45588  0.45588  0.00000  0.08824
      11     H     0.45036  0.45036  0.00000  0.09927
      12     H     0.44790  0.44790  0.00000  0.10419

   Total alpha = 17.00000, Total beta = 17.00000, Total charge =  0.00000

*** Psi4 exiting successfully. Buy a developer a beer!
