  ==> Input File <==

--------------------------------------------------------------------------
set {
	reference rhf
	basis 6-31G*
}

set_num_threads( 1 )
memory 2 gb

molecule MOL {
0 1

H	 -3.261111	 -0.295142	 1.469456
C	 -3.306842	 -0.277400	 0.373456
C	 -2.660244	 0.921717	 -0.272021
O	 -3.838538	 -1.161155	 -0.216482
C	 -1.220012	 1.144545	 0.209990
H	 -2.705793	 0.797307	 -1.347733
H	 -3.263782	 1.790044	 -0.010477
C	 -0.252658	 0.041456	 -0.226725
H	 -0.873521	 2.100229	 -0.171974
H	 -1.211708	 1.231594	 1.295398
C	 1.180775	 0.282413	 0.250794
H	 -0.266029	 -0.034465	 -1.312038
H	 -0.597733	 -0.921000	 0.146291
C	 2.148627	 -0.814315	 -0.201312
H	 1.516199	 1.249228	 -0.115937
H	 1.192670	 0.346017	 1.338083
C	 3.580890	 -0.659131	 0.322722
H	 2.166869	 -0.852443	 -1.289387
H	 1.762857	 -1.776509	 0.128956
C	 4.300101	 0.602654	 -0.157126
H	 4.156147	 -1.527313	 0.010812
H	 3.570425	 -0.677812	 1.410593
H	 4.311625	 0.656279	 -1.242603
H	 3.827405	 1.505950	 0.213803
H	 5.330778	 0.611686	 0.184369

	symmetry c1
}
set optking {
	frozen_dihedral = ("
		6 3 5 8,
		6 3 2 4,
		3 5 8 12,
		12 8 11 14,
		8 11 14 18
	")
}

ee = energy('scf')
oeprop('DIPOLE', 'QUADRUPOLE', 'MULLIKEN_CHARGES')
f=open( 'psi4out.xyz', 'w' )
f.write( "25  " )
f.write( str(ee) + "\n" )
f.write( MOL.save_string_xyz() )
f.close()
--------------------------------------------------------------------------

    Molecular point group: c1

    Geometry (in Angstrom), charge = 0, multiplicity = 1:

       Center              X                  Y                   Z               Mass
    ------------   -----------------  -----------------  -----------------  -----------------
           H         -3.258210266070    -0.299569381371     1.462838194677     1.007825032070
           C         -3.303941266070    -0.281827381371     0.366838194677    12.000000000000
           C         -2.657343266070     0.917289618629    -0.278638805323    12.000000000000
           O         -3.835637266070    -1.165582381371    -0.223099805323    15.994914619560
           C         -1.217111266070     1.140117618629     0.203372194677    12.000000000000
           H         -2.702892266070     0.792879618629    -1.354350805323     1.007825032070
           H         -3.260881266070     1.785616618629    -0.017094805323     1.007825032070
           C         -0.249757266070     0.037028618629    -0.233342805323    12.000000000000
           H         -0.870620266070     2.095801618629    -0.178591805323     1.007825032070
           H         -1.208807266070     1.227166618629     1.288780194677     1.007825032070
           C          1.183675733930     0.277985618629     0.244176194677    12.000000000000
           H         -0.263128266070    -0.038892381371    -1.318655805323     1.007825032070
           H         -0.594832266070    -0.925427381371     0.139673194677     1.007825032070
           C          2.151527733930    -0.818742381371    -0.207929805323    12.000000000000
           H          1.519099733930     1.244800618629    -0.122554805323     1.007825032070
           H          1.195570733930     0.341589618629     1.331465194677     1.007825032070
           C          3.583790733930    -0.663558381371     0.316104194677    12.000000000000
           H          2.169769733930    -0.856870381371    -1.296004805323     1.007825032070
           H          1.765757733930    -1.780936381371     0.122338194677     1.007825032070
           C          4.303001733930     0.598226618629    -0.163743805323    12.000000000000
           H          4.159047733930    -1.531740381371     0.004194194677     1.007825032070
           H          3.573325733930    -0.682239381371     1.403975194677     1.007825032070
           H          4.314525733930     0.651851618629    -1.249220805323     1.007825032070
           H          3.830305733930     1.501522618629     0.207185194677     1.007825032070
           H          5.333678733930     0.607258618629     0.177751194677     1.007825032070

  Charge       = 0
  Multiplicity = 1
  Basis Set: 6-31G*
  Basis Set:

    Orbital Energies (a.u.)
    -----------------------

    Doubly Occupied:

       1A    -20.562004     2A    -11.326149     3A    -11.235353
       4A    -11.234648     5A    -11.223947     6A    -11.219853
       7A    -11.218078     8A    -11.217053     9A    -11.210713
      10A     -1.401984    11A     -1.104059    12A     -1.069811
      13A     -1.013294    14A     -0.942406    15A     -0.875618
      16A     -0.820959    17A     -0.788075    18A     -0.780726
      19A     -0.664564    20A     -0.661995    21A     -0.633232
      22A     -0.625944    23A     -0.601232    24A     -0.594759
      25A     -0.575626    26A     -0.549520    27A     -0.536267
      28A     -0.524723    29A     -0.508352    30A     -0.494954
      31A     -0.491881    32A     -0.479564    33A     -0.464312
      34A     -0.459100    35A     -0.441310    36A     -0.409553

  @DF-RHF Final Energy:  -387.12201997904265

   => Energetics <=

    Nuclear Repulsion Energy =            439.3738488873592587
    One-Electron Energy =               -1395.0685472793506960
    Two-Electron Energy =                 568.5726784129524276
    DFT Exchange-Correlation Energy =       0.0000000000000000
    Empirical Dispersion Energy =           0.0000000000000000
    PCM Polarization Energy =               0.0000000000000000
    EFP Energy =                            0.0000000000000000
    Total Energy =                       -387.1220199790390097

  Mulliken Charges: (a.u.)
   Center  Symbol    Alpha    Beta     Spin     Total
       1     H     0.43260  0.43260  0.00000  0.13480
       2     C     2.83084  2.83084  0.00000  0.33833
       3     C     3.20815  3.20815  0.00000 -0.41629
       4     O     4.23776  4.23776  0.00000 -0.47551
       5     C     3.16656  3.16656  0.00000 -0.33311
       6     H     0.39968  0.39968  0.00000  0.20063
       7     H     0.40669  0.40669  0.00000  0.18662
       8     C     3.15475  3.15475  0.00000 -0.30949
       9     H     0.41285  0.41285  0.00000  0.17430
      10     H     0.41962  0.41962  0.00000  0.16075
      11     C     3.15447  3.15447  0.00000 -0.30895
      12     H     0.41798  0.41798  0.00000  0.16403
      13     H     0.41843  0.41843  0.00000  0.16313
      14     C     3.15301  3.15301  0.00000 -0.30601
      15     H     0.42065  0.42065  0.00000  0.15870
      16     H     0.42382  0.42382  0.00000  0.15236
      17     C     3.15254  3.15254  0.00000 -0.30509
      18     H     0.42301  0.42301  0.00000  0.15397
      19     H     0.42064  0.42064  0.00000  0.15872
      20     C     3.24165  3.24165  0.00000 -0.48331
      21     H     0.41997  0.41997  0.00000  0.16007
      22     H     0.42322  0.42322  0.00000  0.15356
      23     H     0.42198  0.42198  0.00000  0.15605
      24     H     0.42051  0.42051  0.00000  0.15898
      25     H     0.41862  0.41862  0.00000  0.16275

   Total alpha = 36.00000, Total beta = 36.00000, Total charge = -0.00000
