                              Psi4 1.0.54 Driver

  ==> Input File <==

--------------------------------------------------------------------------
set {
	reference rhf
	basis cc-pvtz
}

set_num_threads( 4 )
memory 2 gb

molecule MOL {
0 1

O	 -2.608834	 0.995323	 -0.293950
C	 -1.922978	 0.063265	 -0.045005
C	 -2.393398	 -1.363767	 -0.017866
O	 -0.637375	 0.157174	 0.243149
H	 -2.224743	 -1.783405	 0.965587
H	 -3.442198	 -1.403113	 -0.263033
H	 -1.822066	 -1.948694	 -0.727097
C	 0.162530	 -1.009518	 0.097799
C	 1.587210	 -0.664190	 0.477086
H	 0.096803	 -1.356267	 -0.924704
H	 -0.233803	 -1.785900	 0.736810
C	 2.256770	 0.342732	 -0.454344
H	 2.154716	 -1.590834	 0.479041
H	 1.598751	 -0.289614	 1.496104
C	 3.698146	 0.643205	 -0.057145
H	 2.235038	 -0.042575	 -1.470299
H	 1.683491	 1.262594	 -0.461300
H	 4.150202	 1.356548	 -0.736242
H	 4.305463	 -0.255904	 -0.069842
H	 3.749130	 1.061068	 0.942759

	symmetry c1
}
set optking {
	frozen_dihedral = ("
		1 2 4 8
	")
}

ee,wfn = optimize('scf', return_wfn=True)
oeprop( wfn, 'DIPOLE', 'QUADRUPOLE', 'MULLIKEN_CHARGES')
f=open( 'psi4out.xyz', 'w' )
f.write( "20  " )
f.write( str(ee) + "\n" )
f.write( MOL.save_string_xyz() )
f.close()
--------------------------------------------------------------------------

    Molecular point group: c1
  Charge       = 0
  Multiplicity = 1
  Basis Set: CC-PVTZ
  Basis Set:
  @DF-RHF Final Energy:  -384.06493109873020
    Total Energy =                       -384.0649310987299714
    Molecular point group: c1
  Basis Set: CC-PVTZ
  Basis Set:
  Basis Set: CC-PVTZ
  Basis Set:
  @DF-RHF Final Energy:  -384.01400265119258
    Total Energy =                       -384.0140026511929250
  Basis Set: CC-PVTZ
  Basis Set:
  Basis Set: CC-PVTZ
  Basis Set:
  @DF-RHF Final Energy:  -384.06738552728899
    Total Energy =                       -384.0673855272890478
  Basis Set: CC-PVTZ
  Basis Set:
  Basis Set: CC-PVTZ
  Basis Set:
  @DF-RHF Final Energy:  -384.07266539089511
    Total Energy =                       -384.0726653908953949
  Basis Set: CC-PVTZ
  Basis Set:
  @DF-RHF Final Energy:  -384.07306424010488
    Total Energy =                       -384.0730642401042587
  @DF-RHF Final Energy:  -384.07319801241204
    Total Energy =                       -384.0731980124124902
  Basis Set: CC-PVTZ
  Basis Set:
  @DF-RHF Final Energy:  -384.07359586178944
    Total Energy =                       -384.0735958617893857
  Basis Set: CC-PVTZ
  Basis Set:
  Basis Set: CC-PVTZ
  Basis Set:
  @DF-RHF Final Energy:  -384.07368528920995
    Total Energy =                       -384.0736852892098341
  Basis Set: CC-PVTZ
  Basis Set:
  Basis Set: CC-PVTZ
  Basis Set:
  @DF-RHF Final Energy:  -384.07369033809937
    Total Energy =                       -384.0736903380992544
  Basis Set: CC-PVTZ
  Basis Set:
  Charge       = 0
  Multiplicity = 1
  Basis Set: CC-PVTZ
  Basis Set:

    Orbital Energies (a.u.)
    -----------------------

    Doubly Occupied:

       1A    -20.591322     2A    -20.528614     3A    -11.368362
       4A    -11.294874     5A    -11.240020     6A    -11.228497
       7A    -11.218804     8A    -11.211399     9A     -1.465009
      10A     -1.367446    11A     -1.087617    12A     -1.019977
      13A     -1.000780    14A     -0.889922    15A     -0.814872
      16A     -0.781778    17A     -0.700710    18A     -0.689408
      19A     -0.663870    20A     -0.635557    21A     -0.607196
      22A     -0.596087    23A     -0.579885    24A     -0.562839
      25A     -0.545188    26A     -0.530688    27A     -0.521453
      28A     -0.487352    29A     -0.478255    30A     -0.474886
      31A     -0.445873    32A     -0.435655

  @DF-RHF Final Energy:  -384.07369075787682

   => Energetics <=

    Nuclear Repulsion Energy =            385.4279690273925212
    One-Electron Energy =               -1286.8749325339595089
    Two-Electron Energy =                 517.3732727486902832
    DFT Exchange-Correlation Energy =       0.0000000000000000
    Empirical Dispersion Energy =           0.0000000000000000
    PCM Polarization Energy =               0.0000000000000000
    EFP Energy =                            0.0000000000000000
    Total Energy =                       -384.0736907578767614
    Molecular point group: c1
  Basis Set: CC-PVTZ
  Basis Set:

  -Total Gradient:
     Atom            X                  Y                   Z
    ------   -----------------  -----------------  -----------------
       1       -0.000118973078    -0.000198401662    -0.002040049402
       2        0.000133139334     0.000427515320     0.001847919232
       3        0.000088918103     0.000038508611    -0.000053178332
       4       -0.000092785544    -0.000831960319     0.001873608009
       5       -0.000022277975     0.000040914887    -0.000041103219
       6        0.000046302417     0.000017166277     0.000009385989
       7        0.000028769404     0.000042834910     0.000085159317
       8       -0.000018884718     0.000412921900    -0.001593566928
       9       -0.000000525166    -0.000005165134     0.000002151976
      10       -0.000093500802     0.000046447259    -0.000020468639
      11        0.000053536929     0.000005979351    -0.000065315760
      12        0.000004363552    -0.000004988102    -0.000008231547
      13        0.000000272426     0.000004670948    -0.000009198150
      14        0.000003179545    -0.000001973094    -0.000007177168
      15       -0.000002803246     0.000012275205     0.000009004040
      16       -0.000001229792     0.000003551985     0.000015376173
      17       -0.000004122844     0.000000797426    -0.000002308722
      18       -0.000003742269    -0.000007663315     0.000006723575
      19       -0.000000750497    -0.000000837739    -0.000000158465
      20        0.000001114210    -0.000002594713    -0.000008571980

  **** Optimization is complete! (in 10 steps) ****
    Final optimized geometry and variables:
    Molecular point group: c1

    Geometry (in Angstrom), charge = 0, multiplicity = 1:

    O           -2.322706807463     1.406155417311     0.403490433692
    C           -1.834027713394     0.335961533718     0.478844608888
    C           -2.648396358648    -0.920789516961     0.661072448609
    O           -0.510437834080     0.215073675565     0.428099419000
    H           -2.340013416013    -1.445446810400     1.556609469174
    H           -3.685195801157    -0.641079762129     0.742798030057
    H           -2.522346138559    -1.592434580681    -0.178144989537
    C            0.138871251955    -0.997530659618     0.101050410445
    C            1.630951701115    -0.737193743531     0.049970342410
    H           -0.215178091655    -1.352778040015    -0.860539743759
    H           -0.080075972435    -1.752201407537     0.846031783516
    C            2.056446877843     0.224563563078    -1.055891187787
    H            2.124942530305    -1.695529820560    -0.086500757291
    H            1.946958629518    -0.354768334722     1.015180043200
    C            3.562631605767     0.460830607250    -1.078223941538
    H            1.739574051911    -0.173754336990    -2.016428990776
    H            1.540770772558     1.167953780390    -0.926802719946
    H            3.837801155011     1.142521100891    -1.874140619165
    H            4.105701702903    -0.465808925104    -1.233638315925
    H            3.904193947513     0.890886856682    -0.142789734671

  Mulliken Charges: (a.u.)
   Center  Symbol    Alpha    Beta     Spin     Total
       1     O     4.18140  4.18140  0.00000 -0.36281
       2     C     2.82070  2.82070  0.00000  0.35859
       3     C     3.16575  3.16575  0.00000 -0.33150
       4     O     4.13233  4.13233  0.00000 -0.26466
       5     H     0.44459  0.44459  0.00000  0.11083
       6     H     0.42620  0.42620  0.00000  0.14761
       7     H     0.44751  0.44751  0.00000  0.10498
       8     C     2.99810  2.99810  0.00000  0.00380
       9     C     3.08353  3.08353  0.00000 -0.16706
      10     H     0.45765  0.45765  0.00000  0.08469
      11     H     0.45079  0.45079  0.00000  0.09843
      12     C     3.08613  3.08613  0.00000 -0.17225
      13     H     0.45285  0.45285  0.00000  0.09431
      14     H     0.44903  0.44903  0.00000  0.10195
      15     C     3.15072  3.15072  0.00000 -0.30144
      16     H     0.45731  0.45731  0.00000  0.08538
      17     H     0.43871  0.43871  0.00000  0.12258
      18     H     0.44637  0.44637  0.00000  0.10727
      19     H     0.45709  0.45709  0.00000  0.08581
      20     H     0.45325  0.45325  0.00000  0.09350

   Total alpha = 32.00000, Total beta = 32.00000, Total charge = -0.00000

*** Psi4 exiting successfully. Buy a developer a beer!
