                              Psi4 1.0.54 Driver

  ==> Input File <==

--------------------------------------------------------------------------
set {
	reference rhf
	basis cc-pvtz
}

set_num_threads( 4 )
memory 2 gb

molecule MOL {
0 1

H	 2.190573	 -0.629143	 -0.208718
O	 1.355408	 -0.529451	 0.208662
C	 0.700177	 0.619554	 -0.266242
C	 -0.713111	 0.588314	 0.266177
H	 0.678680	 0.627133	 -1.351786
H	 1.199747	 1.521489	 0.077736
O	 -1.421673	 -0.521378	 -0.196983
H	 -1.244794	 1.469161	 -0.069059
H	 -0.685100	 0.604721	 1.352683
H	 -2.056831	 -0.763917	 0.453996

	symmetry c1
}
set optking {
	frozen_dihedral = ("
		10 7 4 3
	")
}

ee,wfn = optimize('scf', return_wfn=True)
oeprop( wfn, 'DIPOLE', 'QUADRUPOLE', 'MULLIKEN_CHARGES')
f=open( 'psi4out.xyz', 'w' )
f.write( "10  " )
f.write( str(ee) + "\n" )
f.write( MOL.save_string_xyz() )
f.close()
--------------------------------------------------------------------------

    Molecular point group: c1
  Charge       = 0
  Multiplicity = 1
  Basis Set: CC-PVTZ
  Basis Set:
  @DF-RHF Final Energy:  -229.02228399566420
    Total Energy =                       -229.0222839956641678
    Molecular point group: c1
  Basis Set: CC-PVTZ
  Basis Set:
  Basis Set: CC-PVTZ
  Basis Set:
  @DF-RHF Final Energy:  -228.66043194020051
    Total Energy =                       -228.6604319402006240
  Basis Set: CC-PVTZ
  Basis Set:
  Basis Set: CC-PVTZ
  Basis Set:
  @DF-RHF Final Energy:  -228.81523242133312
    Total Energy =                       -228.8152324213331212
  Basis Set: CC-PVTZ
  Basis Set:
  Basis Set: CC-PVTZ
  Basis Set:
  @DF-RHF Final Energy:  -228.80913424671405
    Total Energy =                       -228.8091342467141089
  Basis Set: CC-PVTZ
  Basis Set:
  @DF-RHF Final Energy:  -228.99056693108417
    Total Energy =                       -228.9905669310841461
  @DF-RHF Final Energy:  -228.80897782520009
    Total Energy =                       -228.8089778252001736
  @DF-RHF Final Energy:  -228.97402471637062
    Total Energy =                       -228.9740247163706215
  @DF-RHF Final Energy:  -229.01965716179694
    Total Energy =                       -229.0196571617969994
  @DF-RHF Final Energy:  -229.02342644781308
    Total Energy =                       -229.0234264478130797
  @DF-RHF Final Energy:  -229.02404194396664
    Total Energy =                       -229.0240419439665516
  Basis Set: CC-PVTZ
  Basis Set:
  @DF-RHF Final Energy:  -229.02410349458987
    Total Energy =                       -229.0241034945897809
  Basis Set: CC-PVTZ
  Basis Set:
  Basis Set: CC-PVTZ
  Basis Set:
  @DF-RHF Final Energy:  -229.02411972144182
    Total Energy =                       -229.0241197214416502
  Basis Set: CC-PVTZ
  Basis Set:
  Basis Set: CC-PVTZ
  Basis Set:
  @DF-RHF Final Energy:  -229.02412257632542
    Total Energy =                       -229.0241225763253112
  Basis Set: CC-PVTZ
  Basis Set:
  Charge       = 0
  Multiplicity = 1
  Basis Set: CC-PVTZ
  Basis Set:

    Orbital Energies (a.u.)
    -----------------------

    Doubly Occupied:

       1A    -20.546534     2A    -20.545359     3A    -11.268248
       4A    -11.267506     5A     -1.375068     6A     -1.355072
       7A     -1.003772     8A     -0.832478     9A     -0.719732
      10A     -0.709172    11A     -0.616119    12A     -0.598142
      13A     -0.595644    14A     -0.529435    15A     -0.474626
      16A     -0.446748    17A     -0.442185

  @DF-RHF Final Energy:  -229.02412340069293

   => Energetics <=

    Nuclear Repulsion Energy =            133.5053789737313537
    One-Electron Energy =                -578.4073224476869655
    Two-Electron Energy =                 215.8778200732627397
    DFT Exchange-Correlation Energy =       0.0000000000000000
    Empirical Dispersion Energy =           0.0000000000000000
    PCM Polarization Energy =               0.0000000000000000
    EFP Energy =                            0.0000000000000000
    Total Energy =                       -229.0241234006928721
    Molecular point group: c1
  Basis Set: CC-PVTZ
  Basis Set:

  -Total Gradient:
     Atom            X                  Y                   Z
    ------   -----------------  -----------------  -----------------
       1        0.000045217039     0.000023953794    -0.000005462416
       2       -0.000012027387     0.000011188651     0.000019100406
       3       -0.000012385873    -0.000116757661     0.000018169506
       4        0.000042997321     0.000032698601    -0.000166241306
       5        0.000033128526    -0.000002462157     0.000011046689
       6       -0.000029426203     0.000023592823     0.000058352241
       7       -0.000041736560     0.000249589372    -0.000130554000
       8       -0.000017426201    -0.000035720628     0.000029212647
       9       -0.000003748035     0.000007846339    -0.000019665714
      10       -0.000004592627    -0.000193929134     0.000186041949

  **** Optimization is complete! (in 14 steps) ****
    Final optimized geometry and variables:
    Molecular point group: c1

    Geometry (in Angstrom), charge = 0, multiplicity = 1:

    H           -0.955116323618    -2.106122738817    -0.091639952059
    O           -0.302887550163    -1.489920182082     0.184519246493
    C           -0.131719280684    -0.497328009658    -0.787250893070
    C            0.650686392183     0.647262878335    -0.193566714439
    H           -1.088229826229    -0.121552863953    -1.137802587483
    H            0.415316739830    -0.887736177192    -1.642643438896
    O           -0.164520956013     1.366640076257     0.688924194562
    H            0.994818657554     1.291589809629    -0.998901868507
    H            1.521638629605     0.245483288988     0.313960239654
    H            0.350431816777     1.749634627920     1.373273578020

  Mulliken Charges: (a.u.)
   Center  Symbol    Alpha    Beta     Spin     Total
       1     H     0.39398  0.39398  0.00000  0.21203
       2     O     4.19716  4.19716  0.00000 -0.39432
       3     C     2.95954  2.95954  0.00000  0.08092
       4     C     2.96287  2.96287  0.00000  0.07427
       5     H     0.47108  0.47108  0.00000  0.05785
       6     H     0.47800  0.47800  0.00000  0.04400
       7     O     4.19958  4.19958  0.00000 -0.39915
       8     H     0.47581  0.47581  0.00000  0.04838
       9     H     0.47032  0.47032  0.00000  0.05936
      10     H     0.39167  0.39167  0.00000  0.21667

   Total alpha = 17.00000, Total beta = 17.00000, Total charge =  0.00000

*** Psi4 exiting successfully. Buy a developer a beer!
