                              Psi4 1.0.54 Driver

  ==> Input File <==

--------------------------------------------------------------------------
set {
	reference rhf
	basis cc-pvtz
}

set_num_threads( 4 )
memory 2 gb

molecule MOL {
0 1

O	 0.395927	 1.296676	 -0.000076
C	 0.503051	 0.114301	 -0.000074
C	 -0.701422	 -0.805636	 -0.000109
C	 1.858118	 -0.556123	 0.000212
C	 -1.773461	 -0.423332	 -1.008403
H	 -0.342333	 -1.815640	 -0.180063
H	 -1.104818	 -0.817415	 1.009135
H	 -1.379896	 -0.434330	 -2.015982
H	 -2.603083	 -1.118271	 -0.957009
H	 -2.149154	 0.572742	 -0.816253
H	 1.961106	 -1.191101	 -0.872843
H	 2.636688	 0.191085	 -0.000109
H	 1.961070	 -1.190284	 0.873873

	symmetry c1
}
set optking {
	frozen_dihedral = ("
		6 3 2 1
	")
}

ee,wfn = optimize('scf', return_wfn=True)
oeprop( wfn, 'DIPOLE', 'QUADRUPOLE', 'MULLIKEN_CHARGES')
f=open( 'psi4out.xyz', 'w' )
f.write( "13  " )
f.write( str(ee) + "\n" )
f.write( MOL.save_string_xyz() )
f.close()
--------------------------------------------------------------------------

    Molecular point group: c1
  Charge       = 0
  Multiplicity = 1
  Basis Set: CC-PVTZ
  Basis Set:
  @DF-RHF Final Energy:  -231.08126560676467
    Total Energy =                       -231.0812656067647595
    Molecular point group: c1
  Basis Set: CC-PVTZ
  Basis Set:
  Basis Set: CC-PVTZ
  Basis Set:
  @DF-RHF Final Energy:  -231.07512842796211
    Total Energy =                       -231.0751284279621132
  Basis Set: CC-PVTZ
  Basis Set:
  Basis Set: CC-PVTZ
  Basis Set:
  @DF-RHF Final Energy:  -231.08129655129554
    Total Energy =                       -231.0812965512953951
  Basis Set: CC-PVTZ
  Basis Set:
  Basis Set: CC-PVTZ
  Basis Set:
  @DF-RHF Final Energy:  -231.07986279186855
    Total Energy =                       -231.0798627918686634
  Basis Set: CC-PVTZ
  Basis Set:
  @DF-RHF Final Energy:  -231.08039866909124
    Total Energy =                       -231.0803986690911529
  Basis Set: CC-PVTZ
  Basis Set:
  @DF-RHF Final Energy:  -231.08074631246447
    Total Energy =                       -231.0807463124646688
  Basis Set: CC-PVTZ
  Basis Set:
  Basis Set: CC-PVTZ
  Basis Set:
  @DF-RHF Final Energy:  -231.08184742800060
    Total Energy =                       -231.0818474280009127
  Basis Set: CC-PVTZ
  Basis Set:
  Basis Set: CC-PVTZ
  Basis Set:
  @DF-RHF Final Energy:  -231.08185304221973
    Total Energy =                       -231.0818530422197341
  Basis Set: CC-PVTZ
  Basis Set:
  Charge       = 0
  Multiplicity = 1
  Basis Set: CC-PVTZ
  Basis Set:

    Orbital Energies (a.u.)
    -----------------------

    Doubly Occupied:

       1A    -20.538276     2A    -11.321461     3A    -11.232577
       4A    -11.228321     5A    -11.217418     6A     -1.399097
       7A     -1.062630     8A     -1.001642     9A     -0.880187
      10A     -0.732504    11A     -0.659646    12A     -0.644463
      13A     -0.616031    14A     -0.588327    15A     -0.572531
      16A     -0.531307    17A     -0.521994    18A     -0.505002
      19A     -0.483053    20A     -0.402986

  @DF-RHF Final Energy:  -231.08185327347701

   => Energetics <=

    Nuclear Repulsion Energy =            177.1627174978279982
    One-Electron Energy =                -664.2102305961919910
    Two-Electron Energy =                 255.9656598248868704
    DFT Exchange-Correlation Energy =       0.0000000000000000
    Empirical Dispersion Energy =           0.0000000000000000
    PCM Polarization Energy =               0.0000000000000000
    EFP Energy =                            0.0000000000000000
    Total Energy =                       -231.0818532734771225
    Molecular point group: c1
  Basis Set: CC-PVTZ
  Basis Set:

  -Total Gradient:
     Atom            X                  Y                   Z
    ------   -----------------  -----------------  -----------------
       1       -0.000691179841    -0.000312855177     0.001346273947
       2        0.000818130706     0.000302830077    -0.001535336639
       3        0.000407037831     0.000560734989    -0.001135888508
       4        0.000039554595     0.000015395430    -0.000074296277
       5       -0.000002454364     0.000003072852     0.000011574942
       6       -0.000543487470    -0.000558123426     0.001333171727
       7        0.000001866915     0.000003034883     0.000004153691
       8        0.000000233659     0.000000428451    -0.000005899243
       9        0.000001722693    -0.000002278059     0.000000337089
      10        0.000000956194     0.000000159501     0.000000044493
      11       -0.000010103199    -0.000009750114     0.000023982837
      12       -0.000006029686     0.000003623941     0.000014375496
      13       -0.000016248030    -0.000006273348     0.000017506444

  **** Optimization is complete! (in 8 steps) ****
    Final optimized geometry and variables:
    Molecular point group: c1

    Geometry (in Angstrom), charge = 0, multiplicity = 1:

    O            0.279685663407     1.205243786844     0.665078557012
    C            0.329867806721     0.047674539918     0.404787179715
    C           -0.800324205226    -0.639883237820    -0.342430933041
    C            1.493144165864    -0.811784280968     0.834483671797
    C           -1.305117601401     0.166947396946    -1.534116867492
    H           -0.500773659345    -1.638135274299    -0.638970799816
    H           -1.601167487370    -0.764749473606     0.381992942794
    H           -0.532128565497     0.277646318870    -2.286121085502
    H           -2.151268675163    -0.327375295637    -1.995196462689
    H           -1.610163176991     1.155018230295    -1.220989815262
    H            1.994129511432    -1.211335199710    -0.041273001601
    H            2.188911691660    -0.231792703780     1.420979089160
    H            1.136489569217    -1.658080305321     1.412247253572

  Mulliken Charges: (a.u.)
   Center  Symbol    Alpha    Beta     Spin     Total
       1     O     4.17429  4.17429  0.00000 -0.34859
       2     C     2.85702  2.85702  0.00000  0.28596
       3     C     3.09947  3.09947  0.00000 -0.19894
       4     C     3.15177  3.15177  0.00000 -0.30353
       5     C     3.14419  3.14419  0.00000 -0.28839
       6     H     0.44725  0.44725  0.00000  0.10551
       7     H     0.44507  0.44507  0.00000  0.10985
       8     H     0.45484  0.45484  0.00000  0.09033
       9     H     0.44929  0.44929  0.00000  0.10141
      10     H     0.44018  0.44018  0.00000  0.11964
      11     H     0.44993  0.44993  0.00000  0.10015
      12     H     0.43650  0.43650  0.00000  0.12700
      13     H     0.45021  0.45021  0.00000  0.09959

   Total alpha = 20.00000, Total beta = 20.00000, Total charge = -0.00000

*** Psi4 exiting successfully. Buy a developer a beer!
