  ==> Input File <==

--------------------------------------------------------------------------
set {
	reference rhf
	basis 6-31G*
}

set_num_threads( 4 )
memory 2 gb

molecule MOL {
0 1

H	 -1.565935	 2.361423	 0.159320
C	 -1.490800	 1.793498	 1.078647
C	 -0.177363	 1.022806	 1.139286
H	 -2.338402	 1.120160	 1.116988
H	 -1.562812	 2.482600	 1.913648
C	 -0.000005	 0.033229	 -0.000001
H	 -0.094795	 0.474039	 2.075465
H	 0.670943	 1.704425	 1.126261
C	 1.290528	 -0.768786	 0.000276
O	 -0.827974	 -0.106360	 -0.847448
C	 2.545731	 0.095645	 -0.000061
H	 1.275672	 -1.427874	 -0.865626
H	 1.275566	 -1.427086	 0.866768
H	 2.577157	 0.734767	 -0.874036
H	 3.433520	 -0.528139	 0.000137
H	 2.577172	 0.735117	 0.873581

	symmetry c1
}
set optking {
	frozen_dihedral = ("
		3 6 9 12
	")
}

ee = optimize('scf')
oeprop('DIPOLE', 'QUADRUPOLE', 'MULLIKEN_CHARGES')
f=open( 'psi4out.xyz', 'w' )
f.write( "16  " )
f.write( str(ee) + "\n" )
f.write( MOL.save_string_xyz() )
f.close()
--------------------------------------------------------------------------

    Molecular point group: c1
  Charge       = 0
  Multiplicity = 1
  Basis Set: 6-31G*
  Basis Set:
  @DF-RHF Final Energy:  -270.02952317514649
    Total Energy =                       -270.0295231751465508
    Molecular point group: c1
  Basis Set: 6-31G*
  Basis Set:
  Basis Set: 6-31G*
  Basis Set:
  @DF-RHF Final Energy:  -270.02974335034583
    Total Energy =                       -270.0297433503458251
  Basis Set: 6-31G*
  Basis Set:
  Basis Set: 6-31G*
  Basis Set:
  @DF-RHF Final Energy:  -270.02916405815245
    Total Energy =                       -270.0291640581525598
  Basis Set: 6-31G*
  Basis Set:
  Basis Set: 6-31G*
  Basis Set:
  @DF-RHF Final Energy:  -270.03051294114800
    Total Energy =                       -270.0305129411480607
  Basis Set: 6-31G*
  Basis Set:
  Basis Set: 6-31G*
  Basis Set:
  @DF-RHF Final Energy:  -270.03056581427523
    Total Energy =                       -270.0305658142751781
  Basis Set: 6-31G*
  Basis Set:
  Basis Set: 6-31G*
  Basis Set:
  @DF-RHF Final Energy:  -270.03057460798021
    Total Energy =                       -270.0305746079801565
  Basis Set: 6-31G*
  Basis Set:
  Charge       = 0
  Multiplicity = 1
  Basis Set: 6-31G*
  Basis Set:

    Orbital Energies (a.u.)
    -----------------------

    Doubly Occupied:

       1A    -20.549379     2A    -11.322713     3A    -11.233433
       4A    -11.232662     5A    -11.229758     6A    -11.213234
       7A     -1.394475     8A     -1.072883     9A     -1.035217
      10A     -0.909142    11A     -0.862525    12A     -0.724508
      13A     -0.661494    14A     -0.638404    15A     -0.632102
      16A     -0.607380    17A     -0.557366    18A     -0.543763
      19A     -0.533561    20A     -0.510609    21A     -0.505386
      22A     -0.495005    23A     -0.480232    24A     -0.396671

  @DF-RHF Final Energy:  -270.03057557295472

   => Energetics <=

    Nuclear Repulsion Energy =            240.4525915394765718
    One-Electron Energy =                -842.2825285130901420
    Two-Electron Energy =                 331.7993614006589951
    DFT Exchange-Correlation Energy =       0.0000000000000000
    Empirical Dispersion Energy =           0.0000000000000000
    PCM Polarization Energy =               0.0000000000000000
    EFP Energy =                            0.0000000000000000
    Total Energy =                       -270.0305755729546036
    Molecular point group: c1
  Basis Set: 6-31G*
  Basis Set:

  -Total Gradient:
     Atom            X                  Y                   Z
    ------   -----------------  -----------------  -----------------
       1       -0.000004850802     0.000004915710    -0.000005365145
       2        0.000011135123    -0.000012840121     0.000018879159
       3        0.000042871344     0.000091646258    -0.000097901728
       4        0.000008303197     0.000005369938    -0.000005850192
       5        0.000002569229     0.000002716902    -0.000003958309
       6       -0.000076105704    -0.000059971789     0.000114180662
       7        0.000007976930    -0.000014486631     0.000011078551
       8        0.000007455211    -0.000003382322     0.000018395922
       9       -0.000029626241    -0.000055449084     0.000050952726
      10        0.000001158767    -0.000031492137    -0.000025825609
      11       -0.000003340689     0.000009304414    -0.000015442617
      12        0.000063171570     0.000078165177    -0.000068586133
      13       -0.000000446323    -0.000004741374    -0.000005735433
      14       -0.000000036969    -0.000000831714     0.000008290653
      15       -0.000009761991    -0.000010062505    -0.000001157812
      16       -0.000020472646     0.000001139278     0.000008045308

  **** Optimization is complete! (in 7 steps) ****
    Final optimized geometry and variables:
    Molecular point group: c1

    Geometry (in Angstrom), charge = 0, multiplicity = 1:

    H           -1.977257463380     1.885660187750    -0.029484198900
    C           -1.783249872601     1.361576742613     0.897625463553
    C           -0.398188331841     0.724822668901     0.883786039071
    H           -2.555887022102     0.611110989304     1.017214332059
    H           -1.865251651998     2.068817816110     1.716413808455
    C           -0.204130623312    -0.270801916289    -0.248056837275
    H           -0.190659685406     0.222083398599     1.826078184927
    H            0.367524267433     1.491563745284     0.786606268867
    C            1.039697694196    -1.143568336644    -0.214212401189
    O           -1.000830892304    -0.374486848914    -1.130834382766
    C            2.356644927284    -0.358811810702    -0.178698190285
    H            1.002304656624    -1.778668148622    -1.090208537867
    H            0.978674187215    -1.785800097698     0.662090241265
    H            2.428704992368     0.324198102912    -1.019276898127
    H            3.197073728614    -1.041516291842    -0.235614694825
    H            2.463576136722     0.216503046920     0.734271563963

  Mulliken Charges: (a.u.)
   Center  Symbol    Alpha    Beta     Spin     Total
       1     H     0.40792  0.40792  0.00000  0.18416
       2     C     3.23472  3.23472  0.00000 -0.46944
       3     C     3.20978  3.20978  0.00000 -0.41956
       4     H     0.41302  0.41302  0.00000  0.17396
       5     H     0.42030  0.42030  0.00000  0.15940
       6     C     2.73264  2.73264  0.00000  0.53472
       7     H     0.41168  0.41168  0.00000  0.17663
       8     H     0.40528  0.40528  0.00000  0.18943
       9     C     3.20150  3.20150  0.00000 -0.40301
      10     O     4.26357  4.26357  0.00000 -0.52714
      11     C     3.25097  3.25097  0.00000 -0.50194
      12     H     0.39837  0.39837  0.00000  0.20326
      13     H     0.41101  0.41101  0.00000  0.17797
      14     H     0.41219  0.41219  0.00000  0.17563
      15     H     0.41052  0.41052  0.00000  0.17895
      16     H     0.41651  0.41651  0.00000  0.16697

   Total alpha = 24.00000, Total beta = 24.00000, Total charge =  0.00000
