  ==> Input File <==

--------------------------------------------------------------------------
set {
	reference rhf
	basis 6-31G*
}

set_num_threads( 4 )
memory 2 gb

molecule MOL {
0 1

H	 -1.064405	 -0.936917	 -0.129899
N	 -0.712432	 0.000013	 -0.096310
C	 0.734192	 -0.000004	 0.040609
H	 -1.142196	 0.443786	 0.691869
H	 1.139899	 -0.873598	 -0.456463
H	 1.139939	 0.873831	 -0.456100
H	 1.096456	 -0.000300	 1.069655

	symmetry c1
}
set optking {
	frozen_dihedral = ("
		1 2 3 7
	")
}

ee = optimize('scf')
oeprop('DIPOLE', 'QUADRUPOLE', 'MULLIKEN_CHARGES')
f=open( 'psi4out.xyz', 'w' )
f.write( "7  " )
f.write( str(ee) + "\n" )
f.write( MOL.save_string_xyz() )
f.close()
--------------------------------------------------------------------------

    Molecular point group: c1
  Charge       = 0
  Multiplicity = 1
  Basis Set: 6-31G*
  Basis Set:
  @DF-RHF Final Energy:   -95.20769505771662
    Total Energy =                        -95.2076950577166201
    Molecular point group: c1
  Basis Set: 6-31G*
  Basis Set:
  Basis Set: 6-31G*
  Basis Set:
  @DF-RHF Final Energy:   -95.20786970725501
    Total Energy =                        -95.2078697072550142
  Basis Set: 6-31G*
  Basis Set:
  Basis Set: 6-31G*
  Basis Set:
  @DF-RHF Final Energy:   -95.20791241587747
    Total Energy =                        -95.2079124158772601
  Basis Set: 6-31G*
  Basis Set:
  Charge       = 0
  Multiplicity = 1
  Basis Set: 6-31G*
  Basis Set:

    Orbital Energies (a.u.)
    -----------------------

    Doubly Occupied:

       1A    -15.532322     2A    -11.237235     3A     -1.168023
       4A     -0.896769     5A     -0.666100     6A     -0.599537
       7A     -0.558336     8A     -0.519722     9A     -0.378713

  @DF-RHF Final Energy:   -95.20791339056103

   => Energetics <=

    Nuclear Repulsion Energy =             42.3010949105729921
    One-Electron Energy =                -211.9045021307863976
    Two-Electron Energy =                  74.3954938296524233
    DFT Exchange-Correlation Energy =       0.0000000000000000
    Empirical Dispersion Energy =           0.0000000000000000
    PCM Polarization Energy =               0.0000000000000000
    EFP Energy =                            0.0000000000000000
    Total Energy =                        -95.2079133905609751
    Molecular point group: c1
  Basis Set: 6-31G*
  Basis Set:

  -Total Gradient:
     Atom            X                  Y                   Z
    ------   -----------------  -----------------  -----------------
       1        0.000306779807     0.000025158506    -0.003155760629
       2       -0.000504978959     0.000944403254     0.003945173207
       3        0.000284264250    -0.003950544414    -0.000775739651
       4        0.000004104881    -0.000006880335    -0.000004399937
       5       -0.000001185735     0.000014459274    -0.000002409764
       6       -0.000047970417    -0.000003991790    -0.000000232976
       7       -0.000041013826     0.002977395506    -0.000006630250

  **** Optimization is complete! (in 4 steps) ****
    Final optimized geometry and variables:
    Molecular point group: c1

    Geometry (in Angstrom), charge = 0, multiplicity = 1:

    H           -1.074425948961    -0.920973330068    -0.116554726350
    N           -0.713979477940     0.010382008922    -0.083266426113
    C            0.735869844570     0.017802237856     0.037456368268
    H           -1.155216951060     0.489271132453     0.674948575930
    H            1.150764586240    -0.844199765575    -0.470760465415
    H            1.140802624621     0.903105458026    -0.442154575592
    H            1.096480467268     0.016577040365     1.065467521358

  Mulliken Charges: (a.u.)
   Center  Symbol    Alpha    Beta     Spin     Total
       1     H     0.33180  0.33180  0.00000  0.33639
       2     N     3.92325  3.92325  0.00000 -0.84650
       3     C     3.14521  3.14521  0.00000 -0.29042
       4     H     0.33164  0.33164  0.00000  0.33673
       5     H     0.42005  0.42005  0.00000  0.15990
       6     H     0.41697  0.41697  0.00000  0.16606
       7     H     0.43108  0.43108  0.00000  0.13784

   Total alpha =  9.00000, Total beta =  9.00000, Total charge = -0.00000
