                              Psi4 1.0.54 Driver

  ==> Input File <==

--------------------------------------------------------------------------
set {
	reference rhf
	basis cc-pvtz
}

set_num_threads( 4 )
memory 2 gb

molecule MOL {
0 1

H	 -3.436473	 1.252944	 -1.023892
O	 -3.458596	 0.315260	 -0.960865
C	 -3.176635	 -0.080824	 0.355601
C	 -1.763371	 0.265266	 0.799691
H	 -3.321825	 -1.153438	 0.379502
H	 -3.895468	 0.357385	 1.043382
C	 -0.673390	 -0.426948	 -0.013392
H	 -1.631049	 1.344913	 0.747560
H	 -1.664587	 -0.001624	 1.849167
C	 -0.785058	 -1.949172	 0.004905
H	 0.298282	 -0.128735	 0.364543
H	 -0.721505	 -0.074619	 -1.041038
C	 0.305755	 -2.635630	 -0.814821
H	 -0.746974	 -2.292690	 1.034193
H	 -1.759200	 -2.244476	 -0.379414
C	 0.189465	 -4.158824	 -0.893599
H	 1.279278	 -2.372019	 -0.407865
H	 0.283069	 -2.236442	 -1.825144
C	 0.398067	 -4.884442	 0.433469
H	 0.922993	 -4.522209	 -1.606805
H	 -0.783427	 -4.423506	 -1.299609
H	 1.361333	 -4.634127	 0.866526
H	 0.369752	 -5.958966	 0.292627
H	 -0.366014	 -4.631875	 1.158724

	symmetry c1
}
set optking {
	frozen_dihedral = ("
		11 7 4 3
	")
}

ee,wfn = optimize('scf', return_wfn=True)
oeprop( wfn, 'DIPOLE', 'QUADRUPOLE', 'MULLIKEN_CHARGES')
f=open( 'psi4out.xyz', 'w' )
f.write( "24  " )
f.write( str(ee) + "\n" )
f.write( MOL.save_string_xyz() )
f.close()
--------------------------------------------------------------------------

    Molecular point group: c1
  Charge       = 0
  Multiplicity = 1
  Basis Set: CC-PVTZ
  Basis Set:
  @DF-RHF Final Energy:  -349.37775685882292
    Total Energy =                       -349.3777568588229769
    Molecular point group: c1
  Basis Set: CC-PVTZ
  Basis Set:
  Basis Set: CC-PVTZ
  Basis Set:
  @DF-RHF Final Energy:  -349.37751212430965
    Total Energy =                       -349.3775121243093054
  Basis Set: CC-PVTZ
  Basis Set:
  Basis Set: CC-PVTZ
  Basis Set:
  @DF-RHF Final Energy:  -349.37881887960378
    Total Energy =                       -349.3788188796037275
  Basis Set: CC-PVTZ
  Basis Set:
  Basis Set: CC-PVTZ
  Basis Set:
  @DF-RHF Final Energy:  -349.37889631860941
    Total Energy =                       -349.3788963186095771
  Basis Set: CC-PVTZ
  Basis Set:
  Charge       = 0
  Multiplicity = 1
  Basis Set: CC-PVTZ
  Basis Set:

    Orbital Energies (a.u.)
    -----------------------

    Doubly Occupied:

       1A    -20.546595     2A    -11.264793     3A    -11.215694
       4A    -11.210371     5A    -11.209981     6A    -11.208293
       7A    -11.207223     8A    -11.203993     9A     -1.364115
      10A     -1.088533    11A     -1.047749    12A     -0.983622
      13A     -0.915676    14A     -0.860320    15A     -0.794023
      16A     -0.772640    17A     -0.681396    18A     -0.651514
      19A     -0.630433    20A     -0.618419    21A     -0.601084
      22A     -0.580835    23A     -0.557673    24A     -0.534147
      25A     -0.526755    26A     -0.514896    27A     -0.488832
      28A     -0.482349    29A     -0.469995    30A     -0.458207
      31A     -0.451685    32A     -0.436093    33A     -0.428049

  @DF-RHF Final Energy:  -349.37889711112922

   => Energetics <=

    Nuclear Repulsion Energy =            392.4913920641001255
    One-Electron Energy =               -1251.7285964678478649
    Two-Electron Energy =                 509.8583072926183490
    DFT Exchange-Correlation Energy =       0.0000000000000000
    Empirical Dispersion Energy =           0.0000000000000000
    PCM Polarization Energy =               0.0000000000000000
    EFP Energy =                            0.0000000000000000
    Total Energy =                       -349.3788971111293336
    Molecular point group: c1
  Basis Set: CC-PVTZ
  Basis Set:

  -Total Gradient:
     Atom            X                  Y                   Z
    ------   -----------------  -----------------  -----------------
       1       -0.000004542904     0.000069415251    -0.000019088454
       2        0.000010190454    -0.000092232159    -0.000121609411
       3        0.000033460144    -0.000488759920     0.000508572962
       4        0.000041109593     0.000656442353    -0.000541800626
       5        0.000026458412    -0.000176792481    -0.000057976470
       6       -0.000024137420     0.000017376505     0.000114909701
       7        0.000095299087     0.000749358243    -0.000410628757
       8        0.000028806393     0.000023077244    -0.000024986596
       9       -0.000016109097    -0.000017489069     0.000083188845
      10       -0.000130906890     0.000035511230    -0.000097734333
      11        0.000027620666    -0.000764636815     0.000618809307
      12       -0.000015136339    -0.000058712313    -0.000044536899
      13        0.000036943640     0.000042761574    -0.000027649349
      14       -0.000029145564    -0.000062452780     0.000089458521
      15       -0.000173046028     0.000015892286    -0.000035996381
      16        0.000087579550    -0.000022371768     0.000001240962
      17        0.000070321994     0.000032494526    -0.000024714219
      18       -0.000024834238    -0.000007144877    -0.000052461631
      19       -0.000025462412     0.000042125830     0.000017371522
      20        0.000039591491    -0.000022475548    -0.000014097094
      21       -0.000012941764     0.000017552806    -0.000035400297
      22        0.000030537757     0.000005212081     0.000025764360
      23       -0.000007008782    -0.000061210492    -0.000008495532
      24       -0.000064647746     0.000067058294     0.000057859866

  **** Optimization is complete! (in 5 steps) ****
    Final optimized geometry and variables:
    Molecular point group: c1

    Geometry (in Angstrom), charge = 0, multiplicity = 1:

    H           -2.176006781050     2.917201217153    -0.906572467516
    O           -2.295431389374     1.991204589471    -0.796249633094
    C           -2.057442623539     1.633655754143     0.540041752308
    C           -0.626435792193     1.895045288894     0.989089998539
    H           -2.294155376157     0.581358651829     0.610020759111
    H           -2.742912290804     2.158499411521     1.201029353343
    C            0.459461861739     1.213198992310     0.154610558232
    H           -0.449284292506     2.968760795111     0.986287455672
    H           -0.543061862569     1.578985998435     2.026510096913
    C            0.358915688298    -0.310264849676     0.094374219625
    H            1.423944906838     1.479947181102     0.578216443356
    H            0.442105069064     1.610588520452    -0.854394365958
    C            1.547971421518    -0.944122574794    -0.626297211638
    H            0.286361913692    -0.701936066281     1.105218428224
    H           -0.554405357283    -0.598110601078    -0.416947518883
    C            1.461296964691    -2.461688167663    -0.797439338817
    H            2.464655590900    -0.696594569423    -0.095339267524
    H            1.636734120426    -0.491845585012    -1.610296692980
    C            1.505090418253    -3.254042348011     0.507074907271
    H            2.285070578294    -2.783677675865    -1.427332033028
    H            0.552133493873    -2.709282534871    -1.338933325459
    H            2.400570795422    -3.020791632456     1.074638013030
    H            1.509001823084    -4.320072669291     0.309596078232
    H            0.649911887305    -3.043883395437     1.138162804165

  Mulliken Charges: (a.u.)
   Center  Symbol    Alpha    Beta     Spin     Total
       1     H     0.39438  0.39438  0.00000  0.21125
       2     O     4.20589  4.20589  0.00000 -0.41178
       3     C     2.97980  2.97980  0.00000  0.04040
       4     C     3.11572  3.11572  0.00000 -0.23143
       5     H     0.45611  0.45611  0.00000  0.08778
       6     H     0.45768  0.45768  0.00000  0.08464
       7     C     3.08301  3.08301  0.00000 -0.16602
       8     H     0.45059  0.45059  0.00000  0.09881
       9     H     0.45276  0.45276  0.00000  0.09447
      10     C     3.09952  3.09952  0.00000 -0.19904
      11     H     0.44953  0.44953  0.00000  0.10093
      12     H     0.45260  0.45260  0.00000  0.09481
      13     C     3.09482  3.09482  0.00000 -0.18963
      14     H     0.45385  0.45385  0.00000  0.09231
      15     H     0.44842  0.44842  0.00000  0.10315
      16     C     3.08991  3.08991  0.00000 -0.17982
      17     H     0.45451  0.45451  0.00000  0.09098
      18     H     0.44902  0.44902  0.00000  0.10197
      19     C     3.15268  3.15268  0.00000 -0.30537
      20     H     0.44905  0.44905  0.00000  0.10190
      21     H     0.45405  0.45405  0.00000  0.09191
      22     H     0.45543  0.45543  0.00000  0.08915
      23     H     0.44658  0.44658  0.00000  0.10684
      24     H     0.45410  0.45410  0.00000  0.09180

   Total alpha = 33.00000, Total beta = 33.00000, Total charge = -0.00000

*** Psi4 exiting successfully. Buy a developer a beer!
