  ==> Input File <==

--------------------------------------------------------------------------
set {
	reference rhf
	basis 6-31G*
}

set_num_threads( 4 )
memory 2 gb

molecule MOL {
0 1

H	 1.854582	 0.635384	 6.251344
C	 1.416277	 -0.228775	 5.761812
C	 0.506947	 0.192123	 4.608061
H	 2.229072	 -0.856077	 5.407979
H	 0.866523	 -0.790597	 6.512096
C	 -0.133578	 -1.003500	 3.899522
H	 1.081047	 0.771670	 3.892425
H	 -0.275885	 0.846861	 4.987776
C	 -1.063828	 -0.612477	 2.751044
H	 0.641855	 -1.658021	 3.517488
H	 -0.706671	 -1.579620	 4.622496
C	 -0.349264	 -0.064955	 1.524316
H	 -1.624753	 -1.484860	 2.419258
H	 -1.808979	 0.107372	 3.082320
C	 -1.181045	 0.701995	 0.511084
O	 0.818505	 -0.243537	 1.348729
C	 -2.285934	 -0.139295	 -0.145128
H	 -0.497643	 1.075518	 -0.242014
H	 -1.629340	 1.559411	 1.009636
C	 -3.651768	 0.085446	 0.506485
H	 -2.346596	 0.110469	 -1.202272
H	 -2.034737	 -1.195320	 -0.088721
C	 -4.759797	 -0.746382	 -0.137905
H	 -3.908762	 1.140117	 0.445781
H	 -3.588286	 -0.154158	 1.565709
H	 -4.868882	 -0.505166	 -1.191300
H	 -4.548009	 -1.809175	 -0.062213
H	 -5.715422	 -0.564821	 0.343442

	symmetry c1
}
set optking {
	frozen_dihedral = ("
		12 15 17 21
	")
}

ee = optimize('scf')
oeprop('DIPOLE', 'QUADRUPOLE', 'MULLIKEN_CHARGES')
f=open( 'psi4out.xyz', 'w' )
f.write( "28  " )
f.write( str(ee) + "\n" )
f.write( MOL.save_string_xyz() )
f.close()
--------------------------------------------------------------------------

    Molecular point group: c1
  Charge       = 0
  Multiplicity = 1
  Basis Set: 6-31G*
  Basis Set:
  @DF-RHF Final Energy:  -426.16397266372701
    Total Energy =                       -426.1639726637274634
    Molecular point group: c1
  Basis Set: 6-31G*
  Basis Set:
  Basis Set: 6-31G*
  Basis Set:
  @DF-RHF Final Energy:  -426.16462929224190
    Total Energy =                       -426.1646292922422390
  Basis Set: 6-31G*
  Basis Set:
  Basis Set: 6-31G*
  Basis Set:
  @DF-RHF Final Energy:  -426.16217154371361
    Total Energy =                       -426.1621715437131570
  Basis Set: 6-31G*
  Basis Set:
  Basis Set: 6-31G*
  Basis Set:
  @DF-RHF Final Energy:  -426.16480710654264
    Total Energy =                       -426.1648071065425256
  Basis Set: 6-31G*
  Basis Set:
  @DF-RHF Final Energy:  -426.16487557068820
    Total Energy =                       -426.1648755706883094
  Basis Set: 6-31G*
  Basis Set:
  @DF-RHF Final Energy:  -426.16487730797371
    Total Energy =                       -426.1648773079737111
  Basis Set: 6-31G*
  Basis Set:
  Basis Set: 6-31G*
  Basis Set:
  @DF-RHF Final Energy:  -426.16488205261464
    Total Energy =                       -426.1648820526146437
  Basis Set: 6-31G*
  Basis Set:
  Basis Set: 6-31G*
  Basis Set:
  @DF-RHF Final Energy:  -426.16488333496000
    Total Energy =                       -426.1648833349596543
  Basis Set: 6-31G*
  Basis Set:
  Charge       = 0
  Multiplicity = 1
  Basis Set: 6-31G*
  Basis Set:

    Orbital Energies (a.u.)
    -----------------------

    Doubly Occupied:

       1A    -20.547999     2A    -11.322152     3A    -11.232825
       4A    -11.230304     5A    -11.228588     6A    -11.227566
       7A    -11.217433     8A    -11.216206     9A    -11.211401
      10A    -11.205196    11A     -1.393345    12A     -1.093786
      13A     -1.076595    14A     -1.021167    15A     -0.991675
      16A     -0.907640    17A     -0.875059    18A     -0.812817
      19A     -0.796465    20A     -0.724296    21A     -0.670553
      22A     -0.649699    23A     -0.624602    24A     -0.613120
      25A     -0.611104    26A     -0.592125    27A     -0.576821
      28A     -0.573010    29A     -0.546848    30A     -0.532180
      31A     -0.522310    32A     -0.515512    33A     -0.499553
      34A     -0.481487    35A     -0.479343    36A     -0.476673
      37A     -0.465486    38A     -0.462500    39A     -0.454446
      40A     -0.393187

  @DF-RHF Final Energy:  -426.16488384157674

   => Energetics <=

    Nuclear Repulsion Energy =            538.1641492780502176
    One-Electron Energy =               -1644.5119203715285039
    Two-Electron Energy =                 680.1828872519009792
    DFT Exchange-Correlation Energy =       0.0000000000000000
    Empirical Dispersion Energy =           0.0000000000000000
    PCM Polarization Energy =               0.0000000000000000
    EFP Energy =                            0.0000000000000000
    Total Energy =                       -426.1648838415773071
    Molecular point group: c1
  Basis Set: 6-31G*
  Basis Set:

  -Total Gradient:
     Atom            X                  Y                   Z
    ------   -----------------  -----------------  -----------------
       1        0.000005754969    -0.000000530529     0.000003530302
       2        0.000008264197     0.000007108688    -0.000001120942
       3       -0.000010058127    -0.000010237743    -0.000004192038
       4       -0.000003018764    -0.000001281631    -0.000000266478
       5       -0.000002049447     0.000004323012    -0.000001860750
       6       -0.000011240190    -0.000005125265    -0.000008531550
       7        0.000002516402    -0.000005603174     0.000004664627
       8       -0.000000607321     0.000002112541     0.000001011751
       9        0.000005527173    -0.000010485432    -0.000018317554
      10       -0.000004704012    -0.000003056220     0.000006062558
      11        0.000019281383     0.000002607911     0.000012166583
      12        0.000477815798    -0.000215767993    -0.000540753339
      13       -0.000011478573     0.000009129199     0.000008980750
      14       -0.000008623811    -0.000003707321    -0.000001007403
      15       -0.000548096416     0.000114171223     0.000690911132
      16        0.000014598674     0.000031144327     0.000000661460
      17       -0.000696447870     0.000784763753     0.000038360060
      18       -0.000003784732     0.000005149356    -0.000006190160
      19        0.000007980353    -0.000016188161    -0.000005107199
      20       -0.000025132281     0.000020091603     0.000029489610
      21        0.000739158643    -0.000721842596    -0.000178016313
      22        0.000019729244     0.000006709518    -0.000012313059
      23        0.000016899620    -0.000005706767     0.000000354335
      24       -0.000002282005     0.000011153613    -0.000000859495
      25        0.000002510699     0.000004701391    -0.000013941654
      26       -0.000004230817     0.000000825345    -0.000005763610
      27       -0.000003280782    -0.000009348598    -0.000002877728
      28        0.000014997986     0.000004889951     0.000004926107

  **** Optimization is complete! (in 9 steps) ****
    Final optimized geometry and variables:
    Molecular point group: c1

    Geometry (in Angstrom), charge = 0, multiplicity = 1:

    H            3.224484935040     0.661085509842     4.104469342678
    C            2.648683761491    -0.140896672385     3.653003473507
    C            1.731760852625     0.389809516083     2.551758487143
    H            3.350255657192    -0.869661353232     3.257909265262
    H            2.078644974812    -0.623678041605     4.442242017404
    C            0.898925929378    -0.715609129427     1.898750524600
    H            2.329623235928     0.886739481114     1.795246376213
    H            1.064828977447     1.141658415474     2.970910956553
    C           -0.042519595102    -0.213122003833     0.804113068055
    H            1.557912708332    -1.468372760388     1.480431063906
    H            0.301657542654    -1.207636611138     2.663170550749
    C            0.653137163946     0.211471560364    -0.480210515918
    H           -0.746784624978    -0.998223464109     0.533549498071
    H           -0.650641686017     0.613139292599     1.165227133995
    C           -0.163910915394     0.961357530876    -1.520390379936
    O            1.798853607698    -0.054394895275    -0.688286188036
    C           -1.228268534991     0.086453533827    -2.226188808085
    H            0.548955057098     1.332944772243    -2.244955492970
    H           -0.641393013998     1.820824880545    -1.056197656201
    C           -2.646109641134     0.221614318300    -1.664994500764
    H           -1.243244180754     0.353833866612    -3.278297943582
    H           -0.921134511529    -0.956981908533    -2.198910402013
    C           -3.653485855420    -0.665266005844    -2.395549326371
    H           -2.957630610219     1.261037503831    -1.740641394317
    H           -2.656090390234    -0.021767612967    -0.606068622309
    H           -3.693657285705    -0.423315566744    -3.453698821219
    H           -3.389179058910    -1.715168496390    -2.307111531488
    H           -4.652152712091    -0.540269378086    -1.989383902201

  Mulliken Charges: (a.u.)
   Center  Symbol    Alpha    Beta     Spin     Total
       1     H     0.41939  0.41939  0.00000  0.16123
       2     C     3.24019  3.24019  0.00000 -0.48037
       3     C     3.15629  3.15629  0.00000 -0.31257
       4     H     0.41846  0.41846  0.00000  0.16308
       5     H     0.42387  0.42387  0.00000  0.15226
       6     C     3.14823  3.14823  0.00000 -0.29645
       7     H     0.40907  0.40907  0.00000  0.18186
       8     H     0.42795  0.42795  0.00000  0.14410
       9     C     3.21232  3.21232  0.00000 -0.42464
      10     H     0.40752  0.40752  0.00000  0.18497
      11     H     0.42224  0.42224  0.00000  0.15552
      12     C     2.73555  2.73555  0.00000  0.52890
      13     H     0.40387  0.40387  0.00000  0.19225
      14     H     0.41205  0.41205  0.00000  0.17590
      15     C     3.20226  3.20226  0.00000 -0.40453
      16     O     4.26588  4.26588  0.00000 -0.53177
      17     C     3.16441  3.16441  0.00000 -0.32881
      18     H     0.39755  0.39755  0.00000  0.20491
      19     H     0.41239  0.41239  0.00000  0.17522
      20     C     3.15538  3.15538  0.00000 -0.31076
      21     H     0.41195  0.41195  0.00000  0.17610
      22     H     0.41456  0.41456  0.00000  0.17088
      23     C     3.24068  3.24068  0.00000 -0.48137
      24     H     0.42031  0.42031  0.00000  0.15938
      25     H     0.42079  0.42079  0.00000  0.15843
      26     H     0.41960  0.41960  0.00000  0.16079
      27     H     0.42017  0.42017  0.00000  0.15966
      28     H     0.41709  0.41709  0.00000  0.16583

   Total alpha = 40.00000, Total beta = 40.00000, Total charge = -0.00000
