                              Psi4 1.0.54 Driver

  ==> Input File <==

--------------------------------------------------------------------------
set {
	reference rhf
	basis cc-pvtz
}

set_num_threads( 4 )
memory 2 gb

molecule MOL {
0 1

H	 -0.939693	 0.000281	 1.681345
O	 -0.046262	 -0.000157	 1.387678
C	 -0.000837	 0.000006	 -0.025491
C	 -1.422991	 0.000839	 -0.582828
C	 0.772045	 1.224338	 -0.512123
C	 0.726222	 -1.282408	 -0.406263
H	 -1.420587	 -0.035425	 -1.666098
H	 -1.953418	 0.899564	 -0.282809
H	 -1.972358	 -0.854723	 -0.210442
H	 0.854851	 1.232824	 -1.592798
H	 0.271808	 2.139915	 -0.211199
H	 1.769112	 1.230795	 -0.089889
H	 0.811584	 -1.373270	 -1.482713
H	 0.189713	 -2.143547	 -0.028362
H	 1.720998	 -1.290056	 0.021029

	symmetry c1
}
set optking {
	frozen_dihedral = ("
		4 3 2 1
	")
}

ee,wfn = optimize('scf', return_wfn=True)
oeprop( wfn, 'DIPOLE', 'QUADRUPOLE', 'MULLIKEN_CHARGES')
f=open( 'psi4out.xyz', 'w' )
f.write( "15  " )
f.write( str(ee) + "\n" )
f.write( MOL.save_string_xyz() )
f.close()
--------------------------------------------------------------------------

    Molecular point group: c1
  Charge       = 0
  Multiplicity = 1
  Basis Set: CC-PVTZ
  Basis Set:
  @DF-RHF Final Energy:  -232.24407681141108
    Total Energy =                       -232.2440768114109915
    Molecular point group: c1
  Basis Set: CC-PVTZ
  Basis Set:
  Basis Set: CC-PVTZ
  Basis Set:
  @DF-RHF Final Energy:  -232.24454226139790
    Total Energy =                       -232.2445422613978963
  Basis Set: CC-PVTZ
  Basis Set:
  Basis Set: CC-PVTZ
  Basis Set:
  @DF-RHF Final Energy:  -232.24471883113927
    Total Energy =                       -232.2447188311394370
  Basis Set: CC-PVTZ
  Basis Set:
  Charge       = 0
  Multiplicity = 1
  Basis Set: CC-PVTZ
  Basis Set:

    Orbital Energies (a.u.)
    -----------------------

    Doubly Occupied:

       1A    -20.540162     2A    -11.281149     3A    -11.216337
       4A    -11.203413     5A    -11.203341     6A     -1.362657
       7A     -1.065831     8A     -0.946430     9A     -0.936568
      10A     -0.778618    11A     -0.671793    12A     -0.624577
      13A     -0.622796    14A     -0.576668    15A     -0.557444
      16A     -0.534770    17A     -0.517036    18A     -0.511272
      19A     -0.503122    20A     -0.458253    21A     -0.426484

  @DF-RHF Final Energy:  -232.24471822051473

   => Energetics <=

    Nuclear Repulsion Energy =            200.5715547462982897
    One-Electron Energy =                -712.5551036815350017
    Two-Electron Energy =                 279.7388307147219280
    DFT Exchange-Correlation Energy =       0.0000000000000000
    Empirical Dispersion Energy =           0.0000000000000000
    PCM Polarization Energy =               0.0000000000000000
    EFP Energy =                            0.0000000000000000
    Total Energy =                       -232.2447182205148124
    Molecular point group: c1
  Basis Set: CC-PVTZ
  Basis Set:

  -Total Gradient:
     Atom            X                  Y                   Z
    ------   -----------------  -----------------  -----------------
       1        0.000134324223     0.000010371328     0.000029234958
       2       -0.000328512723     0.000159087127     0.000076622287
       3        0.000212547073    -0.000095495355    -0.000051872981
       4        0.000050587692     0.000073061451     0.000028550387
       5       -0.000129785562     0.000066984826     0.000026490009
       6        0.000000599899    -0.000084143763    -0.000153367783
       7        0.000032334683    -0.000023421007     0.000019504823
       8        0.000031621609     0.000001766618     0.000002407209
       9        0.000013637418    -0.000037814538    -0.000039423029
      10       -0.000051278782     0.000043270047    -0.000036443608
      11        0.000099022264     0.000039400516     0.000062477611
      12       -0.000064346259    -0.000135213602    -0.000020018059
      13       -0.000036276289    -0.000038733209     0.000034204969
      14        0.000049002677    -0.000054977458     0.000023413202
      15       -0.000013477924     0.000075857018    -0.000001779993

  **** Optimization is complete! (in 4 steps) ****
    Final optimized geometry and variables:
    Molecular point group: c1

    Geometry (in Angstrom), charge = 0, multiplicity = 1:

    H           -0.883177391014     0.097317844716     1.721103866163
    O           -0.005471588298     0.068256698079     1.391443439937
    C            0.002489499034    -0.001493208666    -0.025011330361
    C           -1.427868161257    -0.006624382121    -0.555848939807
    C            0.761886694846     1.218856048757    -0.536298645736
    C            0.726285071807    -1.286791860333    -0.414929286519
    H           -1.440318543862    -0.059139987258    -1.637314859376
    H           -1.950234625168     0.897219312464    -0.259603699799
    H           -1.975728923908    -0.862182538486    -0.174376367933
    H            0.839604860092     1.209441580066    -1.617812176264
    H            0.260246106521     2.130476789015    -0.234508374406
    H            1.761440100926     1.233184448132    -0.120401933276
    H            0.809840857108    -1.379802397082    -1.491940001802
    H            0.194769170647    -2.151003758265    -0.034718020765
    H            1.722729728617    -1.293239791724     0.008666184610

  Mulliken Charges: (a.u.)
   Center  Symbol    Alpha    Beta     Spin     Total
       1     H     0.39167  0.39167  0.00000  0.21666
       2     O     4.21555  4.21555  0.00000 -0.43110
       3     C     2.88058  2.88058  0.00000  0.23885
       4     C     3.16361  3.16361  0.00000 -0.32722
       5     C     3.13950  3.13950  0.00000 -0.27900
       6     C     3.13956  3.13956  0.00000 -0.27911
       7     H     0.45026  0.45026  0.00000  0.09949
       8     H     0.44851  0.44851  0.00000  0.10297
       9     H     0.44851  0.44851  0.00000  0.10298
      10     H     0.45959  0.45959  0.00000  0.08082
      11     H     0.45347  0.45347  0.00000  0.09306
      12     H     0.44810  0.44810  0.00000  0.10379
      13     H     0.45951  0.45951  0.00000  0.08099
      14     H     0.45357  0.45357  0.00000  0.09286
      15     H     0.44802  0.44802  0.00000  0.10397

   Total alpha = 21.00000, Total beta = 21.00000, Total charge = -0.00000

*** Psi4 exiting successfully. Buy a developer a beer!
