                              Psi4 1.0.54 Driver

  ==> Input File <==

--------------------------------------------------------------------------
set {
	reference rhf
	basis cc-pvtz
}

set_num_threads( 4 )
memory 2 gb

molecule MOL {
0 1

O	 0.749630	 1.305591	 -0.000460
C	 0.576499	 0.134701	 -0.003900
C	 -0.765656	 -0.550508	 -0.002152
O	 1.564816	 -0.744612	 -0.000631
C	 -1.945526	 0.411052	 0.000603
H	 -0.794329	 -1.203792	 -0.868145
H	 -0.791555	 -1.205429	 0.862701
C	 -3.282915	 -0.321280	 0.002596
H	 -1.880300	 1.059126	 -0.864925
H	 -1.877207	 1.057892	 0.866807
H	 -3.388495	 -0.952755	 -0.873419
H	 -4.107811	 0.380864	 0.004116
H	 -3.385717	 -0.953283	 0.878571
C	 2.472675	 -0.704534	 -1.083311
H	 1.960213	 -0.882214	 -2.017049
H	 3.190718	 -1.486660	 -0.897882
H	 2.968371	 0.253676	 -1.129797

	symmetry c1
}
set optking {
	frozen_dihedral = ("
		14 4 2 1
	")
}

ee,wfn = optimize('scf', return_wfn=True)
oeprop( wfn, 'DIPOLE', 'QUADRUPOLE', 'MULLIKEN_CHARGES')
f=open( 'psi4out.xyz', 'w' )
f.write( "17  " )
f.write( str(ee) + "\n" )
f.write( MOL.save_string_xyz() )
f.close()
--------------------------------------------------------------------------

    Molecular point group: c1
  Charge       = 0
  Multiplicity = 1
  Basis Set: CC-PVTZ
  Basis Set:
  @DF-RHF Final Energy:  -345.02093452267559
    Total Energy =                       -345.0209345226756454
    Molecular point group: c1
  Basis Set: CC-PVTZ
  Basis Set:
  Basis Set: CC-PVTZ
  Basis Set:
  @DF-RHF Final Energy:  -344.92785671399304
    Total Energy =                       -344.9278567139929237
  Basis Set: CC-PVTZ
  Basis Set:
  Basis Set: CC-PVTZ
  Basis Set:
  @DF-RHF Final Energy:  -345.00661637042629
    Total Energy =                       -345.0066163704260020
  Basis Set: CC-PVTZ
  Basis Set:
  Basis Set: CC-PVTZ
  Basis Set:
  @DF-RHF Final Energy:  -345.01983996297361
    Total Energy =                       -345.0198399629738901
  Basis Set: CC-PVTZ
  Basis Set:
  @DF-RHF Final Energy:  -345.01889709384488
    Total Energy =                       -345.0188970938444868
  Basis Set: CC-PVTZ
  Basis Set:
  @DF-RHF Final Energy:  -345.02167717911908
    Total Energy =                       -345.0216771791190240
  Basis Set: CC-PVTZ
  Basis Set:
  Basis Set: CC-PVTZ
  Basis Set:
  @DF-RHF Final Energy:  -345.02187544870452
    Total Energy =                       -345.0218754487041224
  Basis Set: CC-PVTZ
  Basis Set:
  Basis Set: CC-PVTZ
  Basis Set:
  @DF-RHF Final Energy:  -345.02188250393704
    Total Energy =                       -345.0218825039370358
  Basis Set: CC-PVTZ
  Basis Set:
  Charge       = 0
  Multiplicity = 1
  Basis Set: CC-PVTZ
  Basis Set:

    Orbital Energies (a.u.)
    -----------------------

    Doubly Occupied:

       1A    -20.582468     2A    -20.542710     3A    -11.367422
       4A    -11.284671     5A    -11.236565     6A    -11.221628
       7A    -11.214152     8A     -1.464070     9A     -1.368441
      10A     -1.082121    11A     -0.996670    12A     -0.945841
      13A     -0.831958    14A     -0.766656    15A     -0.701737
      16A     -0.680818    17A     -0.675991    18A     -0.635454
      19A     -0.611754    20A     -0.578598    21A     -0.566735
      22A     -0.534445    23A     -0.521847    24A     -0.500027
      25A     -0.491039    26A     -0.480825    27A     -0.456833
      28A     -0.438307

  @DF-RHF Final Energy:  -345.02188303764763

   => Energetics <=

    Nuclear Repulsion Energy =            312.4416216472445740
    One-Electron Energy =               -1089.3674453501816970
    Two-Electron Energy =                 431.9039406652896673
    DFT Exchange-Correlation Energy =       0.0000000000000000
    Empirical Dispersion Energy =           0.0000000000000000
    PCM Polarization Energy =               0.0000000000000000
    EFP Energy =                            0.0000000000000000
    Total Energy =                       -345.0218830376474557
    Molecular point group: c1
  Basis Set: CC-PVTZ
  Basis Set:

  -Total Gradient:
     Atom            X                  Y                   Z
    ------   -----------------  -----------------  -----------------
       1        0.002510858242     0.001248846079     0.008011812996
       2       -0.005378156329    -0.004476928410    -0.012580673552
       3       -0.000013314994     0.000018525170    -0.000013101927
       4        0.006571799454     0.008597837804     0.006227409150
       5        0.000001972939    -0.000011354450     0.000022597285
       6        0.000001284574     0.000003913591     0.000003207389
       7       -0.000002610495    -0.000005275502     0.000008941088
       8       -0.000017938101     0.000012971168    -0.000010349276
       9        0.000002378987    -0.000000802614    -0.000008009296
      10        0.000003588699     0.000002394725    -0.000002587486
      11        0.000000844302    -0.000006819400    -0.000001613687
      12        0.000003240643    -0.000003505624     0.000002740004
      13        0.000004327756    -0.000005325963     0.000006886480
      14       -0.003658623030    -0.005367702893    -0.001665315306
      15       -0.000007076700    -0.000004215705    -0.000021883781
      16       -0.000014208525    -0.000001820359     0.000016879218
      17       -0.000008367419    -0.000000737617     0.000003060696

  **** Optimization is complete! (in 9 steps) ****
    Final optimized geometry and variables:
    Molecular point group: c1

    Geometry (in Angstrom), charge = 0, multiplicity = 1:

    O            0.500903756150     1.477013744350    -0.315072459285
    C            0.566821911004     0.310794813315    -0.157800217204
    C           -0.520135487143    -0.550064919989     0.427813623526
    O            1.688361344103    -0.387412209705    -0.399997630872
    C           -1.762157090150     0.216845517378     0.857213667174
    H           -0.761973942179    -1.305672231311    -0.315184662832
    H           -0.080219744162    -1.091704872286     1.259043752069
    C           -2.831194796813    -0.699147606509     1.442977631789
    H           -2.162194206650     0.754990739009     0.006267030957
    H           -1.481618966285     0.969419399629     1.584400321680
    H           -3.152303755271    -1.443308639845     0.721385173706
    H           -3.704353142666    -0.132089389065     1.742134914625
    H           -2.463719429699    -1.225559340939     2.317700138393
    C            2.198904385580    -0.349956955121    -1.716053464916
    H            1.511201120080    -0.832769232383    -2.400698422055
    H            3.128720297186    -0.894976407403    -1.702802534685
    H            2.375624858403     0.667416945096    -2.033796956533

  Mulliken Charges: (a.u.)
   Center  Symbol    Alpha    Beta     Spin     Total
       1     O     4.17827  4.17827  0.00000 -0.35654
       2     C     2.79583  2.79583  0.00000  0.40833
       3     C     3.10174  3.10174  0.00000 -0.20348
       4     O     4.16510  4.16510  0.00000 -0.33020
       5     C     3.08008  3.08008  0.00000 -0.16016
       6     H     0.44551  0.44551  0.00000  0.10898
       7     H     0.43778  0.43778  0.00000  0.12444
       8     C     3.15059  3.15059  0.00000 -0.30119
       9     H     0.44692  0.44692  0.00000  0.10617
      10     H     0.44594  0.44594  0.00000  0.10812
      11     H     0.45626  0.45626  0.00000  0.08749
      12     H     0.44536  0.44536  0.00000  0.10929
      13     H     0.45528  0.45528  0.00000  0.08943
      14     C     3.03596  3.03596  0.00000 -0.07192
      15     H     0.46617  0.46617  0.00000  0.06767
      16     H     0.44536  0.44536  0.00000  0.10928
      17     H     0.44785  0.44785  0.00000  0.10429

   Total alpha = 28.00000, Total beta = 28.00000, Total charge = -0.00000

*** Psi4 exiting successfully. Buy a developer a beer!
