  ==> Input File <==

--------------------------------------------------------------------------
set {
	reference rhf
	basis 6-31G*
}

set_num_threads( 4 )
memory 2 gb

molecule MOL {
0 1

H	 2.591676	 2.013956	 0.335017
O	 3.341076	 1.666752	 -0.126416
C	 3.569581	 0.339145	 0.272707
C	 2.539767	 -0.640285	 -0.279495
H	 4.553106	 0.084646	 -0.100901
H	 3.608576	 0.269204	 1.359154
C	 1.115811	 -0.397273	 0.226630
H	 2.556196	 -0.582511	 -1.364741
H	 2.852081	 -1.648031	 -0.010655
C	 0.115918	 -1.429151	 -0.302766
H	 0.797950	 0.599468	 -0.066350
H	 1.109961	 -0.420744	 1.316472
C	 0.665876	 -2.854976	 -0.424875
H	 -0.763978	 -1.436507	 0.337996
H	 -0.226843	 -1.107225	 -1.283877
C	 1.012927	 -3.528023	 0.905930
H	 -0.074965	 -3.464142	 -0.938574
H	 1.546433	 -2.846906	 -1.065494
C	 1.456769	 -4.983005	 0.740193
H	 0.145915	 -3.490696	 1.563962
H	 1.802118	 -2.975549	 1.410164
C	 1.809940	 -5.655247	 2.066475
H	 0.666252	 -5.546757	 0.249525
H	 2.317057	 -5.023215	 0.075231
H	 0.959307	 -5.660249	 2.742213
H	 2.118507	 -6.685188	 1.915998
H	 2.623635	 -5.136084	 2.565207

	symmetry c1
}
set optking {
	frozen_dihedral = ("
		14 10 7 4
	")
}

ee = optimize('scf')
oeprop('DIPOLE', 'QUADRUPOLE', 'MULLIKEN_CHARGES')
f=open( 'psi4out.xyz', 'w' )
f.write( "27  " )
f.write( str(ee) + "\n" )
f.write( MOL.save_string_xyz() )
f.close()
--------------------------------------------------------------------------

    Molecular point group: c1
  Charge       = 0
  Multiplicity = 1
  Basis Set: 6-31G*
  Basis Set:
  @DF-RHF Final Energy:  -388.27515996909983
    Total Energy =                       -388.2751599691001729
    Molecular point group: c1
  Basis Set: 6-31G*
  Basis Set:
  Basis Set: 6-31G*
  Basis Set:
  @DF-RHF Final Energy:  -388.27650869393187
    Total Energy =                       -388.2765086939323282
  Basis Set: 6-31G*
  Basis Set:
  Basis Set: 6-31G*
  Basis Set:
  @DF-RHF Final Energy:  -388.27730284029349
    Total Energy =                       -388.2773028402933733
  Basis Set: 6-31G*
  Basis Set:
  Basis Set: 6-31G*
  Basis Set:
  @DF-RHF Final Energy:  -388.27747400935453
    Total Energy =                       -388.2774740093548189
  Basis Set: 6-31G*
  Basis Set:
  Basis Set: 6-31G*
  Basis Set:
  @DF-RHF Final Energy:  -388.27752733492298
    Total Energy =                       -388.2775273349222971
  Basis Set: 6-31G*
  Basis Set:
  Basis Set: 6-31G*
  Basis Set:
  @DF-RHF Final Energy:  -388.27752392713603
    Total Energy =                       -388.2775239271363716
  Basis Set: 6-31G*
  Basis Set:
  Basis Set: 6-31G*
  Basis Set:
  @DF-RHF Final Energy:  -388.27753986723405
    Total Energy =                       -388.2775398672340543
  Basis Set: 6-31G*
  Basis Set:
  Charge       = 0
  Multiplicity = 1
  Basis Set: 6-31G*
  Basis Set:

    Orbital Energies (a.u.)
    -----------------------

    Doubly Occupied:

       1A    -20.552307     2A    -11.267377     3A    -11.220660
       4A    -11.217740     5A    -11.216370     6A    -11.214953
       7A    -11.214907     8A    -11.214222     9A    -11.209811
      10A     -1.359178    11A     -1.095199    12A     -1.059486
      13A     -1.009591    14A     -0.950636    15A     -0.887950
      16A     -0.832674    17A     -0.799821    18A     -0.763338
      19A     -0.694621    20A     -0.656089    21A     -0.637190
      22A     -0.614381    23A     -0.604394    24A     -0.584564
      25A     -0.569910    26A     -0.555231    27A     -0.547646
      28A     -0.525452    29A     -0.513995    30A     -0.492180
      31A     -0.484498    32A     -0.479428    33A     -0.467391
      34A     -0.456757    35A     -0.448092    36A     -0.438409
      37A     -0.425561

  @DF-RHF Final Energy:  -388.27753979980832

   => Energetics <=

    Nuclear Repulsion Energy =            468.6540498888263073
    One-Electron Energy =               -1455.2991634745897045
    Two-Electron Energy =                 598.3675737859555284
    DFT Exchange-Correlation Energy =       0.0000000000000000
    Empirical Dispersion Energy =           0.0000000000000000
    PCM Polarization Energy =               0.0000000000000000
    EFP Energy =                            0.0000000000000000
    Total Energy =                       -388.2775397998078688
    Molecular point group: c1
  Basis Set: 6-31G*
  Basis Set:

  -Total Gradient:
     Atom            X                  Y                   Z
    ------   -----------------  -----------------  -----------------
       1        0.000027524404    -0.000013315124     0.000002891613
       2        0.000053010600    -0.000000075625    -0.000033011951
       3       -0.000062324682     0.000013084794     0.000086667107
       4        0.001037070650    -0.002884175348     0.003506659473
       5       -0.000010929861     0.000012508589    -0.000002141812
       6        0.000010665679     0.000009496944     0.000009895127
       7       -0.000811788932     0.003124318464    -0.004316741520
       8       -0.000035397814    -0.000000071694    -0.000005583513
       9        0.000020585739     0.000052907666    -0.000033320883
      10       -0.002931271889     0.004206125380    -0.002461215061
      11       -0.000034440167    -0.000056642433    -0.000017986922
      12        0.000023039857     0.000019631242     0.000012781250
      13       -0.000047774230    -0.000012323193     0.000013725681
      14        0.002775583583    -0.004513828121     0.003255185340
      15       -0.000007058215    -0.000031239162    -0.000014475659
      16        0.000054785293     0.000049074051     0.000007309509
      17       -0.000011597555     0.000012824330    -0.000009594190
      18       -0.000012313063     0.000009114174     0.000013391738
      19       -0.000020663136     0.000005334670    -0.000014036018
      20        0.000010177760     0.000007685312    -0.000007296789
      21       -0.000015627863    -0.000018047330     0.000008901856
      22       -0.000006925003     0.000007686007     0.000002589127
      23       -0.000000475869    -0.000002083271    -0.000005966676
      24        0.000000025289     0.000001213175     0.000003984120
      25       -0.000000813926    -0.000002930542     0.000001392846
      26       -0.000000575069     0.000002210709    -0.000003336012
      27       -0.000002491585     0.000001516334    -0.000000667777

  **** Optimization is complete! (in 8 steps) ****
    Final optimized geometry and variables:
    Molecular point group: c1

    Geometry (in Angstrom), charge = 0, multiplicity = 1:

    H            0.727436340880     3.987077173658    -0.091325386759
    O            1.490449375634     3.671584848169    -0.552909659858
    C            1.814598358597     2.379561245417    -0.107075147470
    C            0.862309776370     1.304381896924    -0.621549525272
    H            2.814178381105     2.184827320482    -0.473994707260
    H            1.859118031963     2.351394671586     0.981170051615
    C           -0.566882966414     1.456280707045    -0.092312284588
    H            0.864608368001     1.337858001389    -1.708511364452
    H            1.266635220368     0.338813397621    -0.333216774126
    C           -1.596034986380     0.438884325130    -0.623636685462
    H           -0.937074596262     2.451314580839    -0.324832343749
    H           -0.532556718067     1.393370790744     0.994427612367
    C           -1.116438698334    -1.013508306115    -0.763075618981
    H           -2.436498855597     0.420265287033     0.066483614759
    H           -1.969652179661     0.774711668284    -1.586795004524
    C           -0.780542832858    -1.695484536365     0.566080744130
    H           -1.908755282664    -1.579212449468    -1.249061807550
    H           -0.260866250193    -1.068559113267    -1.430737849334
    C           -0.351259115735    -3.154608359450     0.399537432823
    H           -1.651515526351    -1.651100606655     1.218486175416
    H            0.008612589852    -1.151316066361     1.080178529892
    C           -0.031952089365    -3.839875923080     1.727742355526
    H           -1.139016418529    -3.705232475531    -0.110146269825
    H            0.521060629141    -3.201262222815    -0.249071139808
    H           -0.896192986190    -3.841025879310     2.386036389499
    H            0.269165966171    -4.871813484027     1.576029090017
    H            0.776671334863    -3.332672016236     2.246677832381

  Mulliken Charges: (a.u.)
   Center  Symbol    Alpha    Beta     Spin     Total
       1     H     0.27981  0.27981  0.00000  0.44037
       2     O     4.37103  4.37103  0.00000 -0.74205
       3     C     2.99690  2.99690  0.00000  0.00621
       4     C     3.16453  3.16453  0.00000 -0.32906
       5     H     0.41442  0.41442  0.00000  0.17116
       6     H     0.43231  0.43231  0.00000  0.13539
       7     C     3.16320  3.16320  0.00000 -0.32639
       8     H     0.41531  0.41531  0.00000  0.16938
       9     H     0.42138  0.42138  0.00000  0.15724
      10     C     3.15229  3.15229  0.00000 -0.30457
      11     H     0.42434  0.42434  0.00000  0.15132
      12     H     0.42393  0.42393  0.00000  0.15214
      13     C     3.15841  3.15841  0.00000 -0.31682
      14     H     0.42189  0.42189  0.00000  0.15622
      15     H     0.41894  0.41894  0.00000  0.16212
      16     C     3.15265  3.15265  0.00000 -0.30531
      17     H     0.42093  0.42093  0.00000  0.15814
      18     H     0.42047  0.42047  0.00000  0.15907
      19     C     3.15124  3.15124  0.00000 -0.30248
      20     H     0.42429  0.42429  0.00000  0.15143
      21     H     0.42373  0.42373  0.00000  0.15254
      22     C     3.23921  3.23921  0.00000 -0.47842
      23     H     0.42263  0.42263  0.00000  0.15475
      24     H     0.42307  0.42307  0.00000  0.15385
      25     H     0.42175  0.42175  0.00000  0.15649
      26     H     0.41905  0.41905  0.00000  0.16190
      27     H     0.42230  0.42230  0.00000  0.15539

   Total alpha = 37.00000, Total beta = 37.00000, Total charge = -0.00000
