  ==> Input File <==

--------------------------------------------------------------------------
set {
	reference rhf
	basis cc-pvtz
}

set_num_threads( 4 )
memory 2 gb

molecule MOL {
0 1

H	 1.473539	 -1.626258	 1.516999
C	 1.651412	 -0.573471	 1.260764
C	 0.413343	 0.269738	 1.130453
O	 2.755740	 -0.181252	 1.105017
C	 -0.554654	 -0.292621	 0.086567
H	 0.711248	 1.281166	 0.887341
H	 -0.073891	 0.285028	 2.103206
C	 -1.846385	 0.513195	 -0.016346
H	 -0.063248	 -0.312036	 -0.881979
H	 -0.793827	 -1.324361	 0.331479
C	 -3.089953	 -0.365049	 -0.098564
H	 -1.798267	 1.154820	 -0.891143
H	 -1.925398	 1.173265	 0.842889
H	 -3.055079	 -1.012299	 -0.968245
H	 -3.988403	 0.236438	 -0.170014
H	 -3.183055	 -0.995885	 0.779079

	symmetry c1
}
set optking {
	frozen_dihedral = ("
		9 5 8 12
	")
}

ee = optimize('scf')
oeprop('DIPOLE', 'QUADRUPOLE', 'MULLIKEN_CHARGES')
f=open( 'psi4out.xyz', 'w' )
f.write( "16  " )
f.write( str(ee) + "\n" )
f.write( MOL.save_string_xyz() )
f.close()
--------------------------------------------------------------------------

    Molecular point group: c1
  Charge       = 0
  Multiplicity = 1
  Basis Set: CC-PVTZ
  Basis Set:
  @DF-RHF Final Energy:  -270.11417021282602
    Total Energy =                       -270.1141702128260818
    Molecular point group: c1
  Basis Set: CC-PVTZ
  Basis Set:
  Basis Set: CC-PVTZ
  Basis Set:
  @DF-RHF Final Energy:  -270.11445017354771
    Total Energy =                       -270.1144501735477661
  Basis Set: CC-PVTZ
  Basis Set:
  Basis Set: CC-PVTZ
  Basis Set:
  @DF-RHF Final Energy:  -270.11453503656219
    Total Energy =                       -270.1145350365618469
  Basis Set: CC-PVTZ
  Basis Set:
  Basis Set: CC-PVTZ
  Basis Set:
  @DF-RHF Final Energy:  -270.11426853097521
    Total Energy =                       -270.1142685309752096
  Basis Set: CC-PVTZ
  Basis Set:
  Basis Set: CC-PVTZ
  Basis Set:
  @DF-RHF Final Energy:  -270.11454163019727
    Total Energy =                       -270.1145416301974365
  Basis Set: CC-PVTZ
  Basis Set:
  Charge       = 0
  Multiplicity = 1
  Basis Set: CC-PVTZ
  Basis Set:

    Orbital Energies (a.u.)
    -----------------------

    Doubly Occupied:

       1A    -20.552072     2A    -11.321004     3A    -11.234690
       4A    -11.234039     5A    -11.227405     6A    -11.217341
       7A     -1.406723     8A     -1.095865     9A     -1.019725
      10A     -0.906424    11A     -0.812824    12A     -0.793982
      13A     -0.682473    14A     -0.642722    15A     -0.633637
      16A     -0.612410    17A     -0.579196    18A     -0.551389
      19A     -0.534195    20A     -0.509233    21A     -0.488205
      22A     -0.483504    23A     -0.475331    24A     -0.410968

  @DF-RHF Final Energy:  -270.11454217815913

   => Energetics <=

    Nuclear Repulsion Energy =            229.3843079209111977
    One-Electron Energy =                -820.1469849174213778
    Two-Electron Energy =                 320.6481348183509681
    DFT Exchange-Correlation Energy =       0.0000000000000000
    Empirical Dispersion Energy =           0.0000000000000000
    PCM Polarization Energy =               0.0000000000000000
    EFP Energy =                            0.0000000000000000
    Total Energy =                       -270.1145421781592404
    Molecular point group: c1
  Basis Set: CC-PVTZ
  Basis Set:

  -Total Gradient:
     Atom            X                  Y                   Z
    ------   -----------------  -----------------  -----------------
       1       -0.000003887396    -0.000008366759    -0.000033600245
       2        0.000035413644     0.000025236308     0.000071526290
       3       -0.000063105923    -0.000052637890    -0.000113955969
       4       -0.000003856543    -0.000002047706     0.000001081653
       5       -0.002620520122    -0.004344143795    -0.001513533634
       6        0.000002863439     0.000003142739     0.000013449175
       7        0.000025134767     0.000009622688     0.000032228941
       8        0.002275504562     0.003982871402     0.002695185930
       9        0.001856729006     0.003033508074     0.000867017298
      10       -0.000015309784     0.000014825120     0.000008098227
      11        0.000016877524     0.000008567548     0.000008416886
      12       -0.001504499199    -0.002645903640    -0.002035558169
      13        0.000009524128    -0.000017598530     0.000001640848
      14       -0.000000741519    -0.000004433112     0.000002714198
      15       -0.000004252540     0.000003330422    -0.000003274798
      16       -0.000005874036    -0.000005972868    -0.000001436631

  **** Optimization is complete! (in 6 steps) ****
    Final optimized geometry and variables:
    Molecular point group: c1

    Geometry (in Angstrom), charge = 0, multiplicity = 1:

    H            1.630132306772    -1.508759647848     0.945499027245
    C            1.787458534282    -0.456779416019     0.672591829156
    C            0.535835499587     0.370111009548     0.570885833201
    O            2.881827525525    -0.053928759474     0.477762774030
    C           -0.450963537621    -0.208461878636    -0.449720095847
    H            0.813962289388     1.384693349337     0.316690405531
    H            0.071341702939     0.382819034781     1.554622386762
    C           -1.743872414601     0.619599693829    -0.562422874310
    H            0.047992822648    -0.237759947666    -1.412426246648
    H           -0.686471149404    -1.232469996367    -0.178439251595
    C           -2.995380862269    -0.245292202829    -0.692590777375
    H           -1.684698702403     1.258520197638    -1.436387851750
    H           -1.847350128683     1.269109686657     0.299647352057
    H           -2.930467985121    -0.897774764825    -1.556979853263
    H           -3.883279891506     0.365834982944    -0.805693885671
    H           -3.131896987178    -0.871073772881     0.183123175059

  Mulliken Charges: (a.u.)
   Center  Symbol    Alpha    Beta     Spin     Total
       1     H     0.46543  0.46543  0.00000  0.06915
       2     C     2.91042  2.91042  0.00000  0.17916
       3     C     3.07908  3.07908  0.00000 -0.15816
       4     O     4.16364  4.16364  0.00000 -0.32728
       5     C     3.10445  3.10445  0.00000 -0.20889
       6     H     0.44162  0.44162  0.00000  0.11675
       7     H     0.45054  0.45054  0.00000  0.09892
       8     C     3.08597  3.08597  0.00000 -0.17194
       9     H     0.44341  0.44341  0.00000  0.11318
      10     H     0.45122  0.45122  0.00000  0.09756
      11     C     3.14770  3.14770  0.00000 -0.29540
      12     H     0.44834  0.44834  0.00000  0.10331
      13     H     0.45208  0.45208  0.00000  0.09584
      14     H     0.45283  0.45283  0.00000  0.09434
      15     H     0.44757  0.44757  0.00000  0.10487
      16     H     0.45570  0.45570  0.00000  0.08860

   Total alpha = 24.00000, Total beta = 24.00000, Total charge =  0.00000
