                              Psi4 1.0.54 Driver

  ==> Input File <==

--------------------------------------------------------------------------
set {
	reference rhf
	basis cc-pvtz
}

set_num_threads( 4 )
memory 2 gb

molecule MOL {
0 1

O	 -3.102654	 0.721457	 0.931203
C	 -2.664672	 0.129869	 0.003507
C	 -3.392040	 -0.030213	 -1.304007
O	 -1.481217	 -0.452708	 0.001092
H	 -3.606870	 0.952858	 -1.700870
H	 -2.817546	 -0.598545	 -2.017866
H	 -4.336574	 -0.521984	 -1.114030
C	 -0.332055	 0.384012	 -0.000250
C	 0.892252	 -0.506059	 -0.000295
H	 -0.360822	 1.020205	 -0.874146
H	 -0.359817	 1.021310	 0.872861
C	 2.188199	 0.299473	 -0.001416
H	 0.857046	 -1.152781	 -0.871031
H	 0.857910	 -1.151798	 0.871202
C	 3.437151	 -0.577593	 -0.000991
H	 2.209565	 0.950707	 -0.871712
H	 2.210062	 0.952234	 0.867721
C	 4.732399	 0.226982	 -0.000914
H	 3.417321	 -1.229122	 -0.869998
H	 3.416993	 -1.228707	 0.868337
H	 4.797903	 0.863451	 -0.876963
H	 5.598517	 -0.424436	 -0.000420
H	 4.797415	 0.864118	 0.874691

	symmetry c1
}
set optking {
	frozen_dihedral = ("
		1 2 4 8
	")
}

ee,wfn = optimize('scf', return_wfn=True)
oeprop( wfn, 'DIPOLE', 'QUADRUPOLE', 'MULLIKEN_CHARGES')
f=open( 'psi4out.xyz', 'w' )
f.write( "23  " )
f.write( str(ee) + "\n" )
f.write( MOL.save_string_xyz() )
f.close()
--------------------------------------------------------------------------

    Molecular point group: c1
  Charge       = 0
  Multiplicity = 1
  Basis Set: CC-PVTZ
  Basis Set:
  @DF-RHF Final Energy:  -423.11629366728368
    Total Energy =                       -423.1162936672837986
    Molecular point group: c1
  Basis Set: CC-PVTZ
  Basis Set:
  Basis Set: CC-PVTZ
  Basis Set:
  @DF-RHF Final Energy:  -422.96058236726327
    Total Energy =                       -422.9605823672631004
  Basis Set: CC-PVTZ
  Basis Set:
  Basis Set: CC-PVTZ
  Basis Set:
  @DF-RHF Final Energy:  -423.07689282808201
    Total Energy =                       -423.0768928280823502
  Basis Set: CC-PVTZ
  Basis Set:
  Basis Set: CC-PVTZ
  Basis Set:
  @DF-RHF Final Energy:  -423.11476487288053
    Total Energy =                       -423.1147648728804143
  Basis Set: CC-PVTZ
  Basis Set:
  @DF-RHF Final Energy:  -423.09549279211700
    Total Energy =                       -423.0954927921172839
  @DF-RHF Final Energy:  -423.11395149671529
    Total Energy =                       -423.1139514967153445
  @DF-RHF Final Energy:  -423.11741003298238
    Total Energy =                       -423.1174100329817520
  @DF-RHF Final Energy:  -423.11762817129238
    Total Energy =                       -423.1176281712928358
  @DF-RHF Final Energy:  -423.11764445390190
    Total Energy =                       -423.1176444539017893
  @DF-RHF Final Energy:  -423.11764796667205
    Total Energy =                       -423.1176479666726209
  @DF-RHF Final Energy:  -423.10379295154570
    Total Energy =                       -423.1037929515455289
  @DF-RHF Final Energy:  -422.90519203115190
    Total Energy =                       -422.9051920311521826
  @DF-RHF Final Energy:  -422.63687423926331
    Total Energy =                       -422.6368742392636477
  @DF-RHF Final Energy:  -422.09563196523652
    Total Energy =                       -422.0956319652365210
  @DF-RHF Final Energy:  -422.24787928932500
    Total Energy =                       -422.2478792893249420
  @DF-RHF Final Energy:  -422.15451163190926
    Total Energy =                       -422.1545116319093722
  @DF-RHF Final Energy:  -422.26504608647406
    Total Energy =                       -422.2650460864741717
  @DF-RHF Final Energy:  -422.29934962646661
    Total Energy =                       -422.2993496264662099
  @DF-RHF Final Energy:  -422.41347806609099
    Total Energy =                       -422.4134780660911019
  @DF-RHF Final Energy:  -422.71110222759427
    Total Energy =                       -422.7111022275944379
  @DF-RHF Final Energy:  -422.99101969984366
    Total Energy =                       -422.9910196998434913
  @DF-RHF Final Energy:  -422.91586850730749
    Total Energy =                       -422.9158685073077777
  @DF-RHF Final Energy:  -422.81351707185229
    Total Energy =                       -422.8135170718519475
  @DF-RHF Final Energy:  -422.78133439677197
    Total Energy =                       -422.7813343967718538
  @DF-RHF Final Energy:  -422.70708888570454
    Total Energy =                       -422.7070888857049340
  @DF-RHF Final Energy:  -422.92406598697357
    Total Energy =                       -422.9240659869736874
  @DF-RHF Final Energy:  -423.06564895957928
    Total Energy =                       -423.0656489595787662
  @DF-RHF Final Energy:  -423.10247496331266
    Total Energy =                       -423.1024749633129431
  @DF-RHF Final Energy:  -423.10904366577739
    Total Energy =                       -423.1090436657776763
  @DF-RHF Final Energy:  -423.11264892178474
    Total Energy =                       -423.1126489217845119
  @DF-RHF Final Energy:  -423.11512706203109
    Total Energy =                       -423.1151270620304103
  @DF-RHF Final Energy:  -423.11660834099592
    Total Energy =                       -423.1166083409956400
  @DF-RHF Final Energy:  -423.11717602412364
    Total Energy =                       -423.1171760241240918
  @DF-RHF Final Energy:  -423.11746751675651
    Total Energy =                       -423.1174675167565056
  @DF-RHF Final Energy:  -423.11758344993109
    Total Energy =                       -423.1175834499310895
  @DF-RHF Final Energy:  -423.11762003642735
    Total Energy =                       -423.1176200364274109
  Basis Set: CC-PVTZ
  Basis Set:
  @DF-RHF Final Energy:  -423.11763503645568
    Total Energy =                       -423.1176350364556811
  Basis Set: CC-PVTZ
  Basis Set:
  Basis Set: CC-PVTZ
  Basis Set:
  @DF-RHF Final Energy:  -423.11764033242935
    Total Energy =                       -423.1176403324295734
  Basis Set: CC-PVTZ
  Basis Set:
  Basis Set: CC-PVTZ
  Basis Set:
  @DF-RHF Final Energy:  -423.11764138528133
    Total Energy =                       -423.1176413852818996
  Basis Set: CC-PVTZ
  Basis Set:
  Charge       = 0
  Multiplicity = 1
  Basis Set: CC-PVTZ
  Basis Set:

    Orbital Energies (a.u.)
    -----------------------

    Doubly Occupied:

       1A    -20.576870     2A    -20.540143     3A    -11.369342
       4A    -11.287144     5A    -11.233048     6A    -11.223261
       7A    -11.222604     8A    -11.220201     9A    -11.211641
      10A     -1.460808    11A     -1.366535    12A     -1.094995
      13A     -1.038091    14A     -1.006501    15A     -0.933334
      16A     -0.842111    17A     -0.803907    18A     -0.774701
      19A     -0.699392    20A     -0.686914    21A     -0.656624
      22A     -0.649629    23A     -0.617048    24A     -0.590537
      25A     -0.584918    26A     -0.574842    27A     -0.557468
      28A     -0.549701    29A     -0.513882    30A     -0.502758
      31A     -0.493860    32A     -0.478953    33A     -0.472642
      34A     -0.470997    35A     -0.451505    36A     -0.435927

  @DF-RHF Final Energy:  -423.11764169600025

   => Energetics <=

    Nuclear Repulsion Energy =            449.1458776542254441
    One-Electron Energy =               -1466.1413559540360438
    Two-Electron Energy =                 593.8778366038100103
    DFT Exchange-Correlation Energy =       0.0000000000000000
    Empirical Dispersion Energy =           0.0000000000000000
    PCM Polarization Energy =               0.0000000000000000
    EFP Energy =                            0.0000000000000000
    Total Energy =                       -423.1176416960006463
    Molecular point group: c1
  Basis Set: CC-PVTZ
  Basis Set:

  -Total Gradient:
     Atom            X                  Y                   Z
    ------   -----------------  -----------------  -----------------
       1       -0.000745632223     0.002547743398     0.006304216994
       2       -0.000569436536    -0.002517916222    -0.011025953242
       3        0.000008836090    -0.000019401615     0.000081321459
       4        0.004463886437    -0.002688548728     0.008081325752
       5        0.000032510434     0.000019121183    -0.000046933178
       6       -0.000006216920     0.000005492946    -0.000017863825
       7        0.000000904153     0.000014532844     0.000023932581
       8       -0.003203004925     0.002606842573    -0.003410351974
       9        0.000020440960     0.000027892646     0.000042561056
      10       -0.000000580136     0.000020542712    -0.000002457165
      11        0.000009489306     0.000000711411    -0.000002364336
      12       -0.000010895887    -0.000037921738    -0.000045701274
      13       -0.000005547413    -0.000002394198    -0.000009374872
      14       -0.000004896908    -0.000002175614     0.000003352670
      15       -0.000000333282     0.000044415936     0.000050385293
      16        0.000000500378     0.000002629825     0.000016083819
      17        0.000002197655    -0.000000626489     0.000005811950
      18       -0.000006974810    -0.000028498058    -0.000014190089
      19       -0.000004513294    -0.000000097634    -0.000012762275
      20       -0.000000606348    -0.000000305614    -0.000014842400
      21       -0.000013578756    -0.000004089070     0.000000980571
      22        0.000038583513     0.000023263618    -0.000012138194
      23       -0.000005131488    -0.000011214114     0.000004960680

  **** Optimization is complete! (in 45 steps) ****
    Final optimized geometry and variables:
    Molecular point group: c1

    Geometry (in Angstrom), charge = 0, multiplicity = 1:

    O            2.520801668162     2.036087883861     0.566864064195
    C            1.388742712925     2.272191786860     0.341993276346
    C            0.908880001697     3.616338108274    -0.145704479178
    O            0.408484161000     1.388701458727     0.588456494034
    H            1.394437161991     3.836826092233    -1.087770461565
    H           -0.162186326505     3.643373580537    -0.267382282441
    H            1.217374745475     4.372434993951     0.563878020540
    C            0.349138989272     0.234740723150    -0.237391132740
    C           -0.730852426485    -0.680473723663     0.297232791611
    H            0.123569222917     0.540192378037    -1.254942029657
    H            1.313695943984    -0.256563167389    -0.232689211590
    C           -0.877710054176    -1.950407015674    -0.535860211848
    H           -1.670355036993    -0.137994684203     0.318327877385
    H           -0.490112030844    -0.933111478684     1.324196848683
    C           -1.961789797693    -2.886846328552    -0.009604765848
    H           -1.104747658399    -1.685858459237    -1.566001316953
    H            0.071213175976    -2.480443416256    -0.558988247347
    C           -2.108231398874    -4.157367068336    -0.839915590759
    H           -2.911034681397    -2.359009891752     0.012788571640
    H           -1.736329969130    -3.152239053179     1.019238832788
    H           -2.368398074865    -3.926127820732    -1.867517219602
    H           -2.883883180836    -4.799547079913    -0.439487368479
    H           -1.183750294585    -4.724870025838    -0.853640038400

  Mulliken Charges: (a.u.)
   Center  Symbol    Alpha    Beta     Spin     Total
       1     O     4.17978  4.17978  0.00000 -0.35957
       2     C     2.80998  2.80998  0.00000  0.38004
       3     C     3.14869  3.14869  0.00000 -0.29739
       4     O     4.16667  4.16667  0.00000 -0.33334
       5     H     0.44206  0.44206  0.00000  0.11587
       6     H     0.44129  0.44129  0.00000  0.11741
       7     H     0.43697  0.43697  0.00000  0.12606
       8     C     2.97214  2.97214  0.00000  0.05573
       9     C     3.08530  3.08530  0.00000 -0.17059
      10     H     0.46610  0.46610  0.00000  0.06780
      11     H     0.45069  0.45069  0.00000  0.09861
      12     C     3.09982  3.09982  0.00000 -0.19963
      13     H     0.45015  0.45015  0.00000  0.09970
      14     H     0.44636  0.44636  0.00000  0.10727
      15     C     3.08513  3.08513  0.00000 -0.17027
      16     H     0.45455  0.45455  0.00000  0.09091
      17     H     0.45205  0.45205  0.00000  0.09589
      18     C     3.14953  3.14953  0.00000 -0.29906
      19     H     0.45350  0.45350  0.00000  0.09300
      20     H     0.45239  0.45239  0.00000  0.09521
      21     H     0.45515  0.45515  0.00000  0.08970
      22     H     0.44739  0.44739  0.00000  0.10522
      23     H     0.45429  0.45429  0.00000  0.09141

   Total alpha = 36.00000, Total beta = 36.00000, Total charge = -0.00000

*** Psi4 exiting successfully. Buy a developer a beer!
