  ==> Input File <==

--------------------------------------------------------------------------
set {
	reference rhf
	basis 6-31G*
}

set_num_threads( 1 )
memory 2 gb

molecule MOL {
0 1

H	 -2.698709	 -0.000305	 0.034435
C	 -1.693833	 0.000034	 0.434417
O	 -0.828952	 -0.000968	 -0.659236
H	 -1.574200	 0.882896	 1.055746
H	 -1.574147	 -0.881698	 1.057355
C	 -0.078896	 1.161093	 -0.926693
C	 -0.959330	 2.355439	 -1.289032
C	 0.912333	 1.487719	 0.188537
H	 0.490533	 0.889366	 -1.807571
H	 -1.682753	 2.073441	 -2.046452
H	 -0.348139	 3.160444	 -1.684821
H	 -1.496268	 2.745770	 -0.430251
H	 1.483846	 0.605002	 0.454321
H	 1.605149	 2.254617	 -0.143636
H	 0.419050	 1.858659	 1.081239

	symmetry c1
}
set optking {
	frozen_dihedral = ("
		9 6 3 2
	")
}

ee = energy('scf')
oeprop('DIPOLE', 'QUADRUPOLE', 'MULLIKEN_CHARGES')
f=open( 'psi4out.xyz', 'w' )
f.write( "15  " )
f.write( str(ee) + "\n" )
f.write( MOL.save_string_xyz() )
f.close()
--------------------------------------------------------------------------

    Molecular point group: c1

    Geometry (in Angstrom), charge = 0, multiplicity = 1:

       Center              X                  Y                   Z               Mass
    ------------   -----------------  -----------------  -----------------  -----------------
           H         -2.151770968715    -0.995678385494     0.467875673580     1.007825032070
           C         -1.146894968715    -0.995339385494     0.867857673580    12.000000000000
           O         -0.282013968715    -0.996341385494    -0.225795326420    15.994914619560
           H         -1.027261968715    -0.112477385494     1.489186673580     1.007825032070
           H         -1.027208968715    -1.877071385494     1.490795673580     1.007825032070
           C          0.468042031285     0.165719614506    -0.493252326420    12.000000000000
           C         -0.412391968715     1.360065614506    -0.855591326420    12.000000000000
           C          1.459271031285     0.492345614506     0.621977673580    12.000000000000
           H          1.037471031285    -0.106007385494    -1.374130326420     1.007825032070
           H         -1.135814968715     1.078067614506    -1.613011326420     1.007825032070
           H          0.198799031285     2.165070614506    -1.251380326420     1.007825032070
           H         -0.949329968715     1.750396614506     0.003189673580     1.007825032070
           H          2.030784031285    -0.390371385494     0.887761673580     1.007825032070
           H          2.152087031285     1.259243614506     0.289804673580     1.007825032070
           H          0.965988031285     0.863285614506     1.514679673580     1.007825032070

  Charge       = 0
  Multiplicity = 1
  Basis Set: 6-31G*
  Basis Set:

    Orbital Energies (a.u.)
    -----------------------

    Doubly Occupied:

       1A    -20.545630     2A    -11.275201     3A    -11.260866
       4A    -11.210752     5A    -11.210632     6A     -1.369376
       7A     -1.050533     8A     -0.939635     9A     -0.931211
      10A     -0.781534    11A     -0.676444    12A     -0.639402
      13A     -0.632063    14A     -0.571474    15A     -0.562603
      16A     -0.551974    17A     -0.538210    18A     -0.501023
      19A     -0.497340    20A     -0.442441    21A     -0.402213

  @DF-RHF Final Energy:  -232.13439338821425

   => Energetics <=

    Nuclear Repulsion Energy =            198.8288197478900372
    One-Electron Energy =                -708.7452187801048922
    Two-Electron Energy =                 277.7820056440019130
    DFT Exchange-Correlation Energy =       0.0000000000000000
    Empirical Dispersion Energy =           0.0000000000000000
    PCM Polarization Energy =               0.0000000000000000
    EFP Energy =                            0.0000000000000000
    Total Energy =                       -232.1343933882129136

  Mulliken Charges: (a.u.)
   Center  Symbol    Alpha    Beta     Spin     Total
       1     H     0.42209  0.42209  0.00000  0.15581
       2     C     3.07896  3.07896  0.00000 -0.15792
       3     O     4.31451  4.31451  0.00000 -0.62902
       4     H     0.43048  0.43048  0.00000  0.13904
       5     H     0.41875  0.41875  0.00000  0.16250
       6     C     2.91053  2.91053  0.00000  0.17893
       7     C     3.25183  3.25183  0.00000 -0.50365
       8     C     3.25180  3.25180  0.00000 -0.50360
       9     H     0.41522  0.41522  0.00000  0.16956
      10     H     0.41140  0.41140  0.00000  0.17719
      11     H     0.41962  0.41962  0.00000  0.16077
      12     H     0.42210  0.42210  0.00000  0.15580
      13     H     0.41123  0.41123  0.00000  0.17753
      14     H     0.41958  0.41958  0.00000  0.16084
      15     H     0.42188  0.42188  0.00000  0.15623

   Total alpha = 21.00000, Total beta = 21.00000, Total charge =  0.00000
