  ==> Input File <==

--------------------------------------------------------------------------
set {
	reference rhf
	basis 6-31G*
}

set_num_threads( 1 )
memory 2 gb

molecule MOL {
0 1

H	 -3.420663	 1.227371	 -1.044276
O	 -3.452007	 0.283848	 -0.965577
C	 -3.181085	 -0.079926	 0.364119
C	 -1.765924	 0.277073	 0.805136
H	 -3.327791	 -1.152017	 0.410903
H	 -3.905698	 0.375695	 1.036898
C	 -0.677594	 -0.417312	 -0.014550
H	 -1.637766	 1.358238	 0.744969
H	 -1.659588	 0.017670	 1.857098
C	 0.472841	 -0.948636	 0.842988
H	 -0.292344	 0.276229	 -0.755693
H	 -1.123548	 -1.240683	 -0.570049
C	 1.555404	 -1.647560	 0.016158
H	 0.907312	 -0.123519	 1.402305
H	 0.081191	 -1.646018	 1.582496
C	 2.686320	 -2.275031	 0.839239
H	 1.979383	 -0.938911	 -0.693599
H	 1.087933	 -2.428962	 -0.579408
C	 3.557962	 -1.268848	 1.593057
H	 3.320111	 -2.851677	 0.169853
H	 2.264539	 -2.987639	 1.545281
H	 3.983556	 -0.535372	 0.913335
H	 4.380639	 -1.770383	 2.093560
H	 2.996497	 -0.731616	 2.350224

	symmetry c1
}
set optking {
	frozen_dihedral = ("
		20 16 13 17,
		17 13 10 7,
		13 10 7 11,
		1 2 3 5,
		7 4 3 2
	")
}

ee = energy('scf')
oeprop('DIPOLE', 'QUADRUPOLE', 'MULLIKEN_CHARGES')
f=open( 'psi4out.xyz', 'w' )
f.write( "24  " )
f.write( str(ee) + "\n" )
f.write( MOL.save_string_xyz() )
f.close()
--------------------------------------------------------------------------

    Molecular point group: c1

    Geometry (in Angstrom), charge = 0, multiplicity = 1:

       Center              X                  Y                   Z               Mass
    ------------   -----------------  -----------------  -----------------  -----------------
           H         -3.267703955525     1.959692536391    -1.461561322191     1.007825032070
           O         -3.299047955525     1.016169536391    -1.382862322191    15.994914619560
           C         -3.028125955525     0.652395536391    -0.053166322191    12.000000000000
           C         -1.612964955525     1.009394536391     0.387850677809    12.000000000000
           H         -3.174831955525    -0.419695463609    -0.006382322191     1.007825032070
           H         -3.752738955525     1.108016536391     0.619612677809     1.007825032070
           C         -0.524634955525     0.315009536391    -0.431835322191    12.000000000000
           H         -1.484806955525     2.090559536391     0.327683677809     1.007825032070
           H         -1.506628955525     0.749991536391     1.439812677809     1.007825032070
           C          0.625800044475    -0.216314463609     0.425702677809    12.000000000000
           H         -0.139384955525     1.008550536391    -1.172978322191     1.007825032070
           H         -0.970588955525    -0.508361463609    -0.987334322191     1.007825032070
           C          1.708363044475    -0.915238463609    -0.401127322191    12.000000000000
           H          1.060271044475     0.608802536391     0.985019677809     1.007825032070
           H          0.234150044475    -0.913696463609     1.165210677809     1.007825032070
           C          2.839279044475    -1.542709463609     0.421953677809    12.000000000000
           H          2.132342044475    -0.206589463609    -1.110884322191     1.007825032070
           H          1.240892044475    -1.696640463609    -0.996693322191     1.007825032070
           C          3.710921044475    -0.536526463609     1.175771677809    12.000000000000
           H          3.473070044475    -2.119355463609    -0.247432322191     1.007825032070
           H          2.417498044475    -2.255317463609     1.127995677809     1.007825032070
           H          4.136515044475     0.196949536391     0.496049677809     1.007825032070
           H          4.533598044475    -1.038061463609     1.676274677809     1.007825032070
           H          3.149456044475     0.000705536391     1.932938677809     1.007825032070

  Charge       = 0
  Multiplicity = 1
  Basis Set: 6-31G*
  Basis Set:

    Orbital Energies (a.u.)
    -----------------------

    Doubly Occupied:

       1A    -20.553123     2A    -11.267604     3A    -11.216259
       4A    -11.213975     5A    -11.212727     6A    -11.211310
       7A    -11.210776     8A    -11.207313     9A     -1.359689
      10A     -1.088774    11A     -1.048253    12A     -0.985041
      13A     -0.914735    14A     -0.851728    15A     -0.800126
      16A     -0.776753    17A     -0.678335    18A     -0.650464
      19A     -0.630957    20A     -0.614795    21A     -0.603479
      22A     -0.578922    23A     -0.552038    24A     -0.548077
      25A     -0.518670    26A     -0.504557    27A     -0.496809
      28A     -0.475901    29A     -0.469095    30A     -0.460300
      31A     -0.453275    32A     -0.446925    33A     -0.419097

  @DF-RHF Final Energy:  -349.24332683183235

   => Energetics <=

    Nuclear Repulsion Energy =            384.5189234608467928
    One-Electron Energy =               -1235.4847124178850208
    Two-Electron Energy =                 501.7224621252050270
    DFT Exchange-Correlation Energy =       0.0000000000000000
    Empirical Dispersion Energy =           0.0000000000000000
    PCM Polarization Energy =               0.0000000000000000
    EFP Energy =                            0.0000000000000000
    Total Energy =                       -349.2433268318332580

  Mulliken Charges: (a.u.)
   Center  Symbol    Alpha    Beta     Spin     Total
       1     H     0.28339  0.28339  0.00000  0.43323
       2     O     4.36855  4.36855  0.00000 -0.73711
       3     C     2.99869  2.99869  0.00000  0.00262
       4     C     3.17041  3.17041  0.00000 -0.34081
       5     H     0.41632  0.41632  0.00000  0.16735
       6     H     0.42905  0.42905  0.00000  0.14190
       7     C     3.14962  3.14962  0.00000 -0.29924
       8     H     0.42593  0.42593  0.00000  0.14815
       9     H     0.42024  0.42024  0.00000  0.15952
      10     C     3.15689  3.15689  0.00000 -0.31377
      11     H     0.41997  0.41997  0.00000  0.16007
      12     H     0.41473  0.41473  0.00000  0.17054
      13     C     3.15277  3.15277  0.00000 -0.30553
      14     H     0.42233  0.42233  0.00000  0.15534
      15     H     0.42499  0.42499  0.00000  0.15002
      16     C     3.15229  3.15229  0.00000 -0.30458
      17     H     0.42420  0.42420  0.00000  0.15159
      18     H     0.42135  0.42135  0.00000  0.15731
      19     C     3.24097  3.24097  0.00000 -0.48195
      20     H     0.42105  0.42105  0.00000  0.15790
      21     H     0.42376  0.42376  0.00000  0.15249
      22     H     0.42245  0.42245  0.00000  0.15510
      23     H     0.41953  0.41953  0.00000  0.16094
      24     H     0.42053  0.42053  0.00000  0.15894

   Total alpha = 33.00000, Total beta = 33.00000, Total charge =  0.00000
