  ==> Input File <==

--------------------------------------------------------------------------
set {
	reference rhf
	basis 6-31G*
}

set_num_threads( 4 )
memory 2 gb

molecule MOL {
0 1

O	 2.859800	 1.361155	 0.132994
C	 2.839513	 0.170671	 0.204368
C	 1.542570	 -0.618550	 0.201692
C	 4.118224	 -0.635742	 0.303120
C	 0.289025	 0.245671	 0.101786
H	 1.586804	 -1.329352	 -0.622440
H	 1.520306	 -1.226112	 1.105448
C	 -0.996318	 -0.583578	 0.101663
H	 0.341536	 0.845507	 -0.801303
H	 0.274785	 0.948724	 0.928625
C	 -2.259874	 0.272531	 0.000494
H	 -0.973847	 -1.288817	 -0.727903
H	 -1.041781	 -1.183864	 1.009219
C	 -3.549786	 -0.549746	 -0.000374
H	 -2.215837	 0.872517	 -0.906753
H	 -2.283839	 0.977325	 0.829763
C	 -4.809590	 0.315458	 -0.000369
H	 -3.560515	 -1.202009	 -0.871156
H	 -3.561123	 -1.202955	 0.869711
H	 -4.844746	 0.956611	 -0.876632
H	 -5.706986	 -0.295590	 -0.001609
H	 -4.845960	 0.954827	 0.877144
H	 4.192547	 -1.331619	 -0.527451
H	 4.970548	 0.029314	 0.294199
H	 4.126083	 -1.222754	 1.216898

	symmetry c1
}
set optking {
	frozen_dihedral = ("
		15 11 14 18
	")
}

ee = optimize('scf')
oeprop('DIPOLE', 'QUADRUPOLE', 'MULLIKEN_CHARGES')
f=open( 'psi4out.xyz', 'w' )
f.write( "25  " )
f.write( str(ee) + "\n" )
f.write( MOL.save_string_xyz() )
f.close()
--------------------------------------------------------------------------

    Molecular point group: c1
  Charge       = 0
  Multiplicity = 1
  Basis Set: 6-31G*
  Basis Set:
  @DF-RHF Final Energy:  -387.13647438027368
    Total Energy =                       -387.1364743802728299
    Molecular point group: c1
  Basis Set: 6-31G*
  Basis Set:
  Basis Set: 6-31G*
  Basis Set:
  @DF-RHF Final Energy:  -387.13647740453234
    Total Energy =                       -387.1364774045318882
  Basis Set: 6-31G*
  Basis Set:
  Basis Set: 6-31G*
  Basis Set:
  @DF-RHF Final Energy:  -387.13648450464854
    Total Energy =                       -387.1364845046479104
  Basis Set: 6-31G*
  Basis Set:
  Basis Set: 6-31G*
  Basis Set:
  @DF-RHF Final Energy:  -387.13647143732368
    Total Energy =                       -387.1364714373230527
  Basis Set: 6-31G*
  Basis Set:
  Basis Set: 6-31G*
  Basis Set:
  @DF-RHF Final Energy:  -387.13648559464252
    Total Energy =                       -387.1364855946428634
  Basis Set: 6-31G*
  Basis Set:
  Charge       = 0
  Multiplicity = 1
  Basis Set: 6-31G*
  Basis Set:

    Orbital Energies (a.u.)
    -----------------------

    Doubly Occupied:

       1A    -20.550474     2A    -11.326312     3A    -11.231892
       4A    -11.228353     5A    -11.217081     6A    -11.216489
       7A    -11.215401     8A    -11.213550     9A    -11.208266
      10A     -1.395778    11A     -1.093609    12A     -1.056316
      13A     -1.014500    14A     -0.969231    15A     -0.890656
      16A     -0.814040    17A     -0.790731    18A     -0.729914
      19A     -0.661652    20A     -0.651926    21A     -0.632027
      22A     -0.624111    23A     -0.596021    24A     -0.584258
      25A     -0.566315    26A     -0.559999    27A     -0.540026
      28A     -0.526126    29A     -0.512835    30A     -0.489662
      31A     -0.487867    32A     -0.473338    33A     -0.463579
      34A     -0.462573    35A     -0.450655    36A     -0.399406

  @DF-RHF Final Energy:  -387.13648558126243

   => Energetics <=

    Nuclear Repulsion Energy =            438.3384139165692091
    One-Electron Energy =               -1393.2598574653109154
    Two-Electron Energy =                 567.7849579674791585
    DFT Exchange-Correlation Energy =       0.0000000000000000
    Empirical Dispersion Energy =           0.0000000000000000
    PCM Polarization Energy =               0.0000000000000000
    EFP Energy =                            0.0000000000000000
    Total Energy =                       -387.1364855812626047
    Molecular point group: c1
  Basis Set: 6-31G*
  Basis Set:

  -Total Gradient:
     Atom            X                  Y                   Z
    ------   -----------------  -----------------  -----------------
       1       -0.000000479940     0.000001451309     0.000016721759
       2        0.000001552809    -0.000003400386    -0.000046393784
       3       -0.000001549589     0.000001375510     0.000022943422
       4       -0.000000678292     0.000000919086     0.000015572876
       5        0.000001625972    -0.000000738837    -0.000011991849
       6        0.000001494809     0.000004936354     0.000000435837
       7       -0.000001503130    -0.000004816773     0.000000833099
       8       -0.000002713492     0.000000851258     0.000011368718
       9        0.000002795870    -0.000001724798    -0.000002106886
      10       -0.000002040821     0.000001935137    -0.000002093011
      11       -0.000542485239     0.000841340306     0.000353354505
      12       -0.000004810955     0.000003983376    -0.000001813023
      13        0.000007703402    -0.000006427182     0.000000145073
      14        0.000524677271    -0.000823448499     0.000427712283
      15        0.000376738832    -0.000581046502    -0.000369208273
      16       -0.000007732781     0.000001148063    -0.000005056580
      17        0.000002028451    -0.000000068319     0.000006042427
      18       -0.000356379669     0.000560534329    -0.000415743073
      19        0.000006852694     0.000000116312    -0.000004336797
      20        0.000001927578     0.000001904726     0.000002400869
      21       -0.000001172974     0.000000308037    -0.000002296109
      22       -0.000005770002     0.000000642680     0.000002853844
      23       -0.000002236703     0.000001691102    -0.000000073669
      24       -0.000000012460     0.000000199567     0.000000516573
      25        0.000002168361    -0.000001665858     0.000000211769

  **** Optimization is complete! (in 6 steps) ****
    Final optimized geometry and variables:
    Molecular point group: c1

    Geometry (in Angstrom), charge = 0, multiplicity = 1:

    O            2.862498212753     1.357247966539     0.008064564182
    C            2.841979403042     0.167030194026     0.083600497163
    C            1.544765501222    -0.621752930104     0.086855303832
    C            4.120630769715    -0.639469938272     0.182409435726
    C            0.291259739584     0.242545149792    -0.012815066214
    H            1.586681601921    -1.335296469322    -0.735035207282
    H            1.524575744593    -1.226308014072     0.992665999070
    C           -0.994397890370    -0.586204452835    -0.006581249573
    H            0.341658921617     0.839249930949    -0.918084047650
    H            0.279424577790     0.948488816072     0.811615728494
    C           -2.258380731612     0.270555240168    -0.101593175470
    H           -0.976224745366    -1.291587073556    -0.836212207746
    H           -1.035636459827    -1.186368480355     0.901212010564
    C           -3.547098914616    -0.553764454948    -0.112940592080
    H           -2.211716698749     0.873961396927    -1.006336426943
    H           -2.282867036961     0.968906613868     0.732900071320
    C           -4.807451114243     0.311105028577    -0.125291631802
    H           -3.550854600056    -1.201670491995    -0.986943869625
    H           -3.567122803805    -1.207900390145     0.756103647177
    H           -4.829824466763     0.958610001014    -0.997339537874
    H           -5.704437101639    -0.300256093109    -0.144594461224
    H           -4.857316196761     0.944086830584     0.756144480180
    H            4.192914884663    -1.338242826734    -0.645907325942
    H            4.973158266693     0.025244846335     0.169308045144
    H            4.130291413800    -1.223322264548     1.098198116023

  Mulliken Charges: (a.u.)
   Center  Symbol    Alpha    Beta     Spin     Total
       1     O     4.26116  4.26116  0.00000 -0.52231
       2     C     2.73570  2.73570  0.00000  0.52860
       3     C     3.21086  3.21086  0.00000 -0.42172
       4     C     3.28663  3.28663  0.00000 -0.57325
       5     C     3.14802  3.14802  0.00000 -0.29604
       6     H     0.40998  0.40998  0.00000  0.18003
       7     H     0.41001  0.41001  0.00000  0.17998
       8     C     3.15397  3.15397  0.00000 -0.30795
       9     H     0.41216  0.41216  0.00000  0.17568
      10     H     0.41219  0.41219  0.00000  0.17562
      11     C     3.15070  3.15070  0.00000 -0.30141
      12     H     0.42491  0.42491  0.00000  0.15017
      13     H     0.42490  0.42490  0.00000  0.15020
      14     C     3.15152  3.15152  0.00000 -0.30304
      15     H     0.42231  0.42231  0.00000  0.15538
      16     H     0.42242  0.42242  0.00000  0.15516
      17     C     3.23935  3.23935  0.00000 -0.47870
      18     H     0.42336  0.42336  0.00000  0.15328
      19     H     0.42354  0.42354  0.00000  0.15292
      20     H     0.42138  0.42138  0.00000  0.15724
      21     H     0.41959  0.41959  0.00000  0.16082
      22     H     0.42143  0.42143  0.00000  0.15714
      23     H     0.40874  0.40874  0.00000  0.18252
      24     H     0.39646  0.39646  0.00000  0.20708
      25     H     0.40869  0.40869  0.00000  0.18261

   Total alpha = 36.00000, Total beta = 36.00000, Total charge = -0.00000
