  ==> Input File <==

--------------------------------------------------------------------------
set {
	reference rhf
	basis 6-31G*
}

set_num_threads( 4 )
memory 2 gb

molecule MOL {
0 1

O	 3.557191	 1.088218	 0.852264
C	 2.878148	 0.120418	 0.728480
C	 1.399463	 0.039291	 1.021226
O	 3.347903	 -1.046386	 0.304773
C	 0.809375	 1.363596	 1.500944
H	 0.915463	 -0.318478	 0.118489
H	 1.259458	 -0.742893	 1.763037
C	 -0.666793	 1.272135	 1.902263
H	 0.933974	 2.113526	 0.725574
H	 1.387328	 1.712215	 2.349978
C	 -1.630839	 0.969304	 0.751602
H	 -0.952182	 2.219156	 2.354401
H	 -0.785063	 0.519121	 2.680075
C	 -3.098741	 0.997298	 1.182273
H	 -1.476063	 1.695278	 -0.045157
H	 -1.409065	 -0.005757	 0.323766
C	 -4.071003	 0.690917	 0.041672
H	 -3.332587	 1.975188	 1.599743
H	 -3.251863	 0.279175	 1.986358
C	 -5.534941	 0.724641	 0.479218
H	 -3.918652	 1.406982	 -0.763115
H	 -3.841620	 -0.288033	 -0.374046
H	 -6.199136	 0.503652	 -0.350611
H	 -5.805478	 1.702339	 0.867950
H	 -5.727601	 -0.005331	 1.260434
C	 4.728119	 -1.109107	 -0.004993
H	 4.882018	 -1.033965	 -1.071845
H	 5.068212	 -2.067527	 0.355250
H	 5.265056	 -0.311663	 0.488280

	symmetry c1
}
set optking {
	frozen_dihedral = ("
		2 4 26 27
	")
}

ee = optimize('scf')
oeprop('DIPOLE', 'QUADRUPOLE', 'MULLIKEN_CHARGES')
f=open( 'psi4out.xyz', 'w' )
f.write( "29  " )
f.write( str(ee) + "\n" )
f.write( MOL.save_string_xyz() )
f.close()
--------------------------------------------------------------------------

    Molecular point group: c1
  Charge       = 0
  Multiplicity = 1
  Basis Set: 6-31G*
  Basis Set:
  @DF-RHF Final Energy:  -501.04199082795674
    Total Energy =                       -501.0419908279563970
    Molecular point group: c1
  Basis Set: 6-31G*
  Basis Set:
  Basis Set: 6-31G*
  Basis Set:
  @DF-RHF Final Energy:  -501.04218187905121
    Total Energy =                       -501.0421818790507587
  Basis Set: 6-31G*
  Basis Set:
  Basis Set: 6-31G*
  Basis Set:
  @DF-RHF Final Energy:  -501.04239092898604
    Total Energy =                       -501.0423909289856965
  Basis Set: 6-31G*
  Basis Set:
  Basis Set: 6-31G*
  Basis Set:
  @DF-RHF Final Energy:  -501.04228836659127
    Total Energy =                       -501.0422883665908103
  Basis Set: 6-31G*
  Basis Set:
  Basis Set: 6-31G*
  Basis Set:
  @DF-RHF Final Energy:  -501.04249294234455
    Total Energy =                       -501.0424929423444382
  Basis Set: 6-31G*
  Basis Set:
  Charge       = 0
  Multiplicity = 1
  Basis Set: 6-31G*
  Basis Set:

    Orbital Energies (a.u.)
    -----------------------

    Doubly Occupied:

       1A    -20.602590     2A    -20.544588     3A    -11.373083
       4A    -11.279589     5A    -11.234223     6A    -11.218662
       7A    -11.217363     8A    -11.215800     9A    -11.215686
      10A    -11.214289    11A    -11.208960    12A     -1.466874
      13A     -1.362899    14A     -1.097770    15A     -1.066558
      16A     -1.019550    17A     -0.977735    18A     -0.928480
      19A     -0.861329    20A     -0.798979    21A     -0.790235
      22A     -0.763035    23A     -0.701447    24A     -0.680471
      25A     -0.672138    26A     -0.650759    27A     -0.628718
      28A     -0.604991    29A     -0.594624    30A     -0.580793
      31A     -0.568108    32A     -0.549803    33A     -0.533344
      34A     -0.528155    35A     -0.514748    36A     -0.511867
      37A     -0.496150    38A     -0.477586    39A     -0.469960
      40A     -0.462137    41A     -0.458337    42A     -0.453437
      43A     -0.440571    44A     -0.435415

  @DF-RHF Final Energy:  -501.04249382399234

   => Energetics <=

    Nuclear Repulsion Energy =            609.7968597802325803
    One-Electron Energy =               -1890.7350326877708540
    Two-Electron Energy =                 779.8956790835463835
    DFT Exchange-Correlation Energy =       0.0000000000000000
    Empirical Dispersion Energy =           0.0000000000000000
    PCM Polarization Energy =               0.0000000000000000
    EFP Energy =                            0.0000000000000000
    Total Energy =                       -501.0424938239918902
    Molecular point group: c1
  Basis Set: 6-31G*
  Basis Set:

  -Total Gradient:
     Atom            X                  Y                   Z
    ------   -----------------  -----------------  -----------------
       1        0.000003118060    -0.000032350542    -0.000023063215
       2        0.000231898735    -0.000301946374     0.001166267799
       3       -0.000009503995    -0.000005863394    -0.000000253413
       4       -0.000330596661     0.000152353971    -0.001759257203
       5        0.000000786715    -0.000002289739     0.000002077577
       6        0.000000810941     0.000002877357    -0.000001232660
       7       -0.000000299325     0.000004190665    -0.000002420116
       8       -0.000002401597     0.000004964578     0.000002652205
       9        0.000001785068    -0.000000313871     0.000002020287
      10        0.000002257363    -0.000002678429     0.000000502756
      11        0.000001910176    -0.000002019057     0.000000411623
      12       -0.000004458888     0.000000282451    -0.000002018005
      13       -0.000001253490     0.000002547132     0.000001736371
      14       -0.000000184155    -0.000000864281     0.000000040443
      15       -0.000000423915    -0.000000535938     0.000001825498
      16        0.000002931177    -0.000001498185    -0.000001935048
      17       -0.000000349485     0.000000707850     0.000000299144
      18        0.000000085000    -0.000000038656     0.000000155979
      19       -0.000000316605     0.000000041826    -0.000000232907
      20       -0.000000195849    -0.000000469481    -0.000000254037
      21        0.000000057554     0.000000103307    -0.000000094396
      22       -0.000000096357     0.000000127293     0.000000082303
      23       -0.000000281172    -0.000000117192     0.000000045678
      24        0.000000158099    -0.000000069195    -0.000000157620
      25       -0.000000055333     0.000000077288     0.000000101767
      26        0.000239340207     0.001516990888     0.000731284567
      27       -0.000182953600    -0.001353477992    -0.000109970474
      28        0.000038476499     0.000002519780    -0.000011000686
      29        0.000009754838     0.000016747946     0.000002385781

  **** Optimization is complete! (in 6 steps) ****
    Final optimized geometry and variables:
    Molecular point group: c1

    Geometry (in Angstrom), charge = 0, multiplicity = 1:

    O            3.355985951438     0.665906115156     0.071895945591
    C            2.685814539867    -0.306981317721    -0.057753493433
    C            1.207199318761    -0.396212604522     0.234889000691
    O            3.151701577278    -1.474081250841    -0.487824517047
    C            0.610211130873     0.922940746362     0.720031650838
    H            0.725317758698    -0.752444553004    -0.669555881104
    H            1.070874335240    -1.182386828980     0.973083041199
    C           -0.865709938770     0.822096776788     1.120095350815
    H            0.731370056082     1.676914025303    -0.051938465795
    H            1.185816003699     1.270803344068     1.570948004137
    C           -1.827505797171     0.518761378399    -0.032330226454
    H           -1.156424684198     1.765791386716     1.575803205978
    H           -0.980516527810     0.065378740790     1.894839884000
    C           -3.295795759278     0.537396321700     0.397549623713
    H           -1.676060036920     1.248670393904    -0.826122077081
    H           -1.600389992377    -0.453420940795    -0.463879285896
    C           -4.265776657302     0.230214978349    -0.744770052387
    H           -3.535044429523     1.512447178311     0.818582645735
    H           -3.445596773657    -0.184559022576     1.198822662783
    C           -5.730106980967     0.254036448962    -0.307864944161
    H           -4.117009099607     0.950338505537    -1.546598616358
    H           -4.030748225417    -0.745764970822    -1.164297788691
    H           -6.392639889401     0.032540933249    -1.138893753071
    H           -6.006312752257     1.228687325201     0.084511489237
    H           -5.919061920675    -0.480020309922     0.470423839271
    C            4.532066584260    -1.591802552599    -0.786312364068
    H            4.672159952415    -1.513705927137    -1.856215372048
    H            4.836811243528    -2.574965074718    -0.458984149814
    H            5.103470394231    -0.831098885557    -0.281213839144

  Mulliken Charges: (a.u.)
   Center  Symbol    Alpha    Beta     Spin     Total
       1     O     4.28556  4.28556  0.00000 -0.57111
       2     C     2.60454  2.60454  0.00000  0.79093
       3     C     3.21008  3.21008  0.00000 -0.42016
       4     O     4.30909  4.30909  0.00000 -0.61819
       5     C     3.15375  3.15375  0.00000 -0.30750
       6     H     0.39877  0.39877  0.00000  0.20246
       7     H     0.40147  0.40147  0.00000  0.19706
       8     C     3.15659  3.15659  0.00000 -0.31319
       9     H     0.41311  0.41311  0.00000  0.17378
      10     H     0.40886  0.40886  0.00000  0.18228
      11     C     3.15505  3.15505  0.00000 -0.31010
      12     H     0.41830  0.41830  0.00000  0.16339
      13     H     0.42393  0.42393  0.00000  0.15213
      14     C     3.15028  3.15028  0.00000 -0.30057
      15     H     0.42262  0.42262  0.00000  0.15476
      16     H     0.42360  0.42360  0.00000  0.15280
      17     C     3.15145  3.15145  0.00000 -0.30290
      18     H     0.42334  0.42334  0.00000  0.15331
      19     H     0.42400  0.42400  0.00000  0.15199
      20     C     3.23934  3.23934  0.00000 -0.47869
      21     H     0.42280  0.42280  0.00000  0.15439
      22     H     0.42344  0.42344  0.00000  0.15312
      23     H     0.41925  0.41925  0.00000  0.16150
      24     H     0.42156  0.42156  0.00000  0.15689
      25     H     0.42185  0.42185  0.00000  0.15631
      26     C     3.09673  3.09673  0.00000 -0.19346
      27     H     0.41334  0.41334  0.00000  0.17332
      28     H     0.41069  0.41069  0.00000  0.17861
      29     H     0.39660  0.39660  0.00000  0.20680

   Total alpha = 44.00000, Total beta = 44.00000, Total charge =  0.00000
