                              Psi4 1.0.54 Driver

  ==> Input File <==

--------------------------------------------------------------------------
set {
	reference rhf
	basis cc-pvtz
}

set_num_threads( 4 )
memory 2 gb

molecule MOL {
0 1

H	 -1.006437	 4.393442	 0.184727
O	 -0.325847	 3.797794	 -0.068641
C	 -0.658973	 2.491062	 0.318524
C	 0.460172	 1.562092	 -0.106508
H	 -0.796383	 2.436741	 1.396457
H	 -1.593016	 2.182663	 -0.146539
C	 0.196029	 0.106276	 0.266738
H	 1.382750	 1.902808	 0.352822
H	 0.594186	 1.653804	 -1.179609
C	 1.330220	 -0.826136	 -0.155230
H	 0.039606	 0.036294	 1.338815
H	 -0.728892	 -0.225558	 -0.200155
C	 2.719700	 -0.407669	 0.328325
H	 1.339388	 -0.911200	 -1.239363
H	 1.119001	 -1.821953	 0.224128
C	 3.241564	 0.893452	 -0.276737
H	 3.418299	 -1.204729	 0.093035
H	 2.711776	 -0.323368	 1.411960
H	 3.254204	 0.841071	 -1.360784
H	 2.634460	 1.745075	 0.005842
H	 4.254264	 1.092401	 0.054971

	symmetry c1
}
set optking {
	frozen_dihedral = ("
		4 7 10 14
	")
}

ee,wfn = optimize('scf', return_wfn=True)
oeprop( wfn, 'DIPOLE', 'QUADRUPOLE', 'MULLIKEN_CHARGES')
f=open( 'psi4out.xyz', 'w' )
f.write( "21  " )
f.write( str(ee) + "\n" )
f.write( MOL.save_string_xyz() )
f.close()
--------------------------------------------------------------------------

    Molecular point group: c1
  Charge       = 0
  Multiplicity = 1
  Basis Set: CC-PVTZ
  Basis Set:
  @DF-RHF Final Energy:  -310.30325668541673
    Total Energy =                       -310.3032566854164997
    Molecular point group: c1
  Basis Set: CC-PVTZ
  Basis Set:
  Basis Set: CC-PVTZ
  Basis Set:
  @DF-RHF Final Energy:  -310.30176777170982
    Total Energy =                       -310.3017677717097627
  Basis Set: CC-PVTZ
  Basis Set:
  Basis Set: CC-PVTZ
  Basis Set:
  @DF-RHF Final Energy:  -310.32386571004287
    Total Energy =                       -310.3238657100430373
  Basis Set: CC-PVTZ
  Basis Set:
  Basis Set: CC-PVTZ
  Basis Set:
  @DF-RHF Final Energy:  -310.32703430568182
    Total Energy =                       -310.3270343056815364
  Basis Set: CC-PVTZ
  Basis Set:
  @DF-RHF Final Energy:  -310.32738733204155
    Total Energy =                       -310.3273873320414395
  @DF-RHF Final Energy:  -310.32789206602098
    Total Energy =                       -310.3278920660211497
  @DF-RHF Final Energy:  -310.32803845841551
    Total Energy =                       -310.3280384584157900
  Basis Set: CC-PVTZ
  Basis Set:
  @DF-RHF Final Energy:  -310.32809652739337
    Total Energy =                       -310.3280965273935408
  Basis Set: CC-PVTZ
  Basis Set:
  Basis Set: CC-PVTZ
  Basis Set:
  @DF-RHF Final Energy:  -310.32810034256926
    Total Energy =                       -310.3281003425692575
  Basis Set: CC-PVTZ
  Basis Set:
  Basis Set: CC-PVTZ
  Basis Set:
  @DF-RHF Final Energy:  -310.32810354750308
    Total Energy =                       -310.3281035475027352
  Basis Set: CC-PVTZ
  Basis Set:
  Charge       = 0
  Multiplicity = 1
  Basis Set: CC-PVTZ
  Basis Set:

    Orbital Energies (a.u.)
    -----------------------

    Doubly Occupied:

       1A    -20.545616     2A    -11.265095     3A    -11.214371
       4A    -11.212282     5A    -11.211564     6A    -11.208711
       7A    -11.202785     8A     -1.363447     9A     -1.085510
      10A     -1.030431    11A     -0.959170    12A     -0.872853
      13A     -0.814302    14A     -0.773822    15A     -0.694748
      16A     -0.659986    17A     -0.625143    18A     -0.604697
      19A     -0.585805    20A     -0.571244    21A     -0.541110
      22A     -0.524387    23A     -0.504150    24A     -0.490528
      25A     -0.484151    26A     -0.457130    27A     -0.448886
      28A     -0.442412    29A     -0.437760

  @DF-RHF Final Energy:  -310.32810398928859

   => Energetics <=

    Nuclear Repulsion Energy =            319.4101992335758951
    One-Electron Energy =               -1053.8124190500004715
    Two-Electron Energy =                 424.0741158271364952
    DFT Exchange-Correlation Energy =       0.0000000000000000
    Empirical Dispersion Energy =           0.0000000000000000
    PCM Polarization Energy =               0.0000000000000000
    EFP Energy =                            0.0000000000000000
    Total Energy =                       -310.3281039892880813
    Molecular point group: c1
  Basis Set: CC-PVTZ
  Basis Set:

  -Total Gradient:
     Atom            X                  Y                   Z
    ------   -----------------  -----------------  -----------------
       1        0.000005434957    -0.000018306640     0.000007288087
       2        0.000022555982     0.000046763132    -0.000040080234
       3       -0.000008415665    -0.000047493595     0.000041452603
       4        0.000896229784     0.000596388415     0.001310954384
       5        0.000004892539    -0.000007158661    -0.000002014737
       6        0.000010776932    -0.000007447188    -0.000004400217
       7       -0.001581284281    -0.001285207064    -0.001769283971
       8       -0.000009133073     0.000001775186     0.000003689361
       9        0.000001802774     0.000002291519    -0.000004184493
      10        0.001676888449     0.002647881991    -0.000086893368
      11        0.000010490515    -0.000001322586    -0.000009201492
      12       -0.000016030293    -0.000002667751     0.000000824856
      13        0.000012912693    -0.000011296614    -0.000019080658
      14       -0.001030197516    -0.001917920489     0.000569320606
      15       -0.000010618599    -0.000011438834     0.000002448211
      16       -0.000005403627     0.000011692280    -0.000017590424
      17        0.000011406124     0.000004233498     0.000011759440
      18       -0.000007802341    -0.000003873205     0.000001189478
      19       -0.000001216154    -0.000018120131    -0.000006412888
      20       -0.000006213614     0.000014710522     0.000009360137
      21        0.000022924409     0.000006516218     0.000000855318

  **** Optimization is complete! (in 11 steps) ****
    Final optimized geometry and variables:
    Molecular point group: c1

    Geometry (in Angstrom), charge = 0, multiplicity = 1:

    H           -2.759191403428     2.817518394622     0.197006754777
    O           -1.971970467822     2.386477689383    -0.079757786350
    C           -1.936978990037     1.076352781411     0.421274794672
    C           -0.655209651528     0.415858944300    -0.046029114067
    H           -1.974573646668     1.083463766445     1.508703916596
    H           -2.796099727413     0.510440214184     0.067563842518
    C           -0.517936788481    -1.010277012353     0.480061552398
    H            0.176226875349     1.026895449604     0.283588139491
    H           -0.642379605933     0.423186348575    -1.131435416361
    C            0.694228137733    -1.805615325537    -0.017406575715
    H           -0.482729527489    -0.976754702882     1.566844529123
    H           -1.413282464143    -1.571676229242     0.226140756052
    C            2.075820943552    -1.173738485588     0.212862997920
    H            0.566139147230    -2.043372870193    -1.070481143601
    H            0.667147274226    -2.762257715765     0.495321132381
    C            2.598090714460    -0.317347258953    -0.939751134242
    H            2.792450151152    -1.970043407791     0.385452505587
    H            2.059021274892    -0.587319537526     1.127549083723
    H            2.683359096661    -0.908151306547    -1.845827282259
    H            1.952045237636     0.522923322426    -1.156216794885
    H            3.582679448276     0.074956313489    -0.710203143876

  Mulliken Charges: (a.u.)
   Center  Symbol    Alpha    Beta     Spin     Total
       1     H     0.39742  0.39742  0.00000  0.20516
       2     O     4.19487  4.19487  0.00000 -0.38974
       3     C     2.96456  2.96456  0.00000  0.07088
       4     C     3.09319  3.09319  0.00000 -0.18638
       5     H     0.47494  0.47494  0.00000  0.05012
       6     H     0.47321  0.47321  0.00000  0.05357
       7     C     3.10428  3.10428  0.00000 -0.20857
       8     H     0.44786  0.44786  0.00000  0.10427
       9     H     0.44867  0.44867  0.00000  0.10267
      10     C     3.09805  3.09805  0.00000 -0.19611
      11     H     0.45430  0.45430  0.00000  0.09141
      12     H     0.45002  0.45002  0.00000  0.09996
      13     C     3.09953  3.09953  0.00000 -0.19907
      14     H     0.45385  0.45385  0.00000  0.09229
      15     H     0.44542  0.44542  0.00000  0.10916
      16     C     3.14853  3.14853  0.00000 -0.29705
      17     H     0.44562  0.44562  0.00000  0.10875
      18     H     0.45204  0.45204  0.00000  0.09591
      19     H     0.45523  0.45523  0.00000  0.08953
      20     H     0.44969  0.44969  0.00000  0.10062
      21     H     0.44871  0.44871  0.00000  0.10259

   Total alpha = 29.00000, Total beta = 29.00000, Total charge = -0.00000

*** Psi4 exiting successfully. Buy a developer a beer!
