  ==> Input File <==

--------------------------------------------------------------------------
set {
	reference rhf
	basis 6-31G*
}

set_num_threads( 4 )
memory 2 gb

molecule MOL {
0 1

O	 -2.439739	 -0.935931	 -0.423848
C	 -1.921153	 0.064240	 -0.045697
C	 -2.624470	 1.379923	 0.150949
O	 -0.632575	 0.154573	 0.251549
H	 -2.168117	 2.136577	 -0.476876
H	 -3.669540	 1.273223	 -0.098610
H	 -2.519365	 1.700893	 1.180846
C	 0.160891	 -1.019931	 0.106212
C	 1.589627	 -0.672828	 0.480843
H	 0.089836	 -1.367806	 -0.916050
H	 -0.238459	 -1.792301	 0.749618
C	 2.045542	 0.700808	 -0.014803
H	 2.233532	 -1.443970	 0.062919
H	 1.693178	 -0.730305	 1.561228
C	 3.496007	 1.006188	 0.356541
H	 1.931475	 0.747649	 -1.095957
H	 1.395692	 1.465276	 0.398286
H	 3.794781	 1.985047	 -0.004846
H	 4.174901	 0.274146	 -0.071823
H	 3.635401	 0.995003	 1.433816

	symmetry c1
}
set optking {
	frozen_dihedral = ("
		12 9 8 10
	")
}

ee = optimize('scf')
oeprop('DIPOLE', 'QUADRUPOLE', 'MULLIKEN_CHARGES')
f=open( 'psi4out.xyz', 'w' )
f.write( "20  " )
f.write( str(ee) + "\n" )
f.write( MOL.save_string_xyz() )
f.close()
--------------------------------------------------------------------------

    Molecular point group: c1
  Charge       = 0
  Multiplicity = 1
  Basis Set: 6-31G*
  Basis Set:
  @DF-RHF Final Energy:  -383.94256060041624
    Total Energy =                       -383.9425606004164138
    Molecular point group: c1
  Basis Set: 6-31G*
  Basis Set:
  Basis Set: 6-31G*
  Basis Set:
  @DF-RHF Final Energy:  -383.94283781248669
    Total Energy =                       -383.9428378124866867
  Basis Set: 6-31G*
  Basis Set:
  Basis Set: 6-31G*
  Basis Set:
  @DF-RHF Final Energy:  -383.94264066376667
    Total Energy =                       -383.9426406637667242
  Basis Set: 6-31G*
  Basis Set:
  Basis Set: 6-31G*
  Basis Set:
  @DF-RHF Final Energy:  -383.94316744899038
    Total Energy =                       -383.9431674489901525
  Basis Set: 6-31G*
  Basis Set:
  Basis Set: 6-31G*
  Basis Set:
  @DF-RHF Final Energy:  -383.94317198781607
    Total Energy =                       -383.9431719878162994
  Basis Set: 6-31G*
  Basis Set:
  Basis Set: 6-31G*
  Basis Set:
  @DF-RHF Final Energy:  -383.94317721610281
    Total Energy =                       -383.9431772161028675
  Basis Set: 6-31G*
  Basis Set:
  Charge       = 0
  Multiplicity = 1
  Basis Set: 6-31G*
  Basis Set:

    Orbital Energies (a.u.)
    -----------------------

    Doubly Occupied:

       1A    -20.602974     2A    -20.544971     3A    -11.375383
       4A    -11.282252     5A    -11.233974     6A    -11.225802
       7A    -11.219304     8A    -11.212624     9A     -1.469296
      10A     -1.363471    11A     -1.084253    12A     -1.028410
      13A     -0.981045    14A     -0.880500    15A     -0.815775
      16A     -0.768621    17A     -0.690348    18A     -0.686205
      19A     -0.668063    20A     -0.633046    21A     -0.596838
      22A     -0.592958    23A     -0.573227    24A     -0.549283
      25A     -0.545670    26A     -0.534148    27A     -0.509313
      28A     -0.483929    29A     -0.473576    30A     -0.469206
      31A     -0.447658    32A     -0.439688

  @DF-RHF Final Energy:  -383.94317782731116

   => Energetics <=

    Nuclear Repulsion Energy =            386.0576782137565033
    One-Electron Energy =               -1288.0380973261439976
    Two-Electron Energy =                 518.0372412850763340
    DFT Exchange-Correlation Energy =       0.0000000000000000
    Empirical Dispersion Energy =           0.0000000000000000
    PCM Polarization Energy =               0.0000000000000000
    EFP Energy =                            0.0000000000000000
    Total Energy =                       -383.9431778273111604
    Molecular point group: c1
  Basis Set: 6-31G*
  Basis Set:

  -Total Gradient:
     Atom            X                  Y                   Z
    ------   -----------------  -----------------  -----------------
       1       -0.000010764063    -0.000013007507    -0.000011565940
       2        0.000037995669     0.000023081402     0.000036137109
       3       -0.000010259900     0.000002690861    -0.000007917760
       4       -0.000020589123    -0.000019987684    -0.000013750536
       5       -0.000001536363     0.000004219400    -0.000000734956
       6        0.000002178862    -0.000001094529    -0.000000988622
       7        0.000001842538    -0.000000758630    -0.000000073027
       8       -0.001460164817     0.007401693437    -0.000912480658
       9        0.002128138762    -0.003899489761    -0.004343053070
      10        0.000722790509    -0.005257591811     0.001867552618
      11       -0.000009952416    -0.000009822162     0.000003452467
      12       -0.001362212857     0.001747848643     0.003361808241
      13       -0.000012675157     0.000007116388     0.000002851303
      14       -0.000001151526    -0.000004494562     0.000014768748
      15       -0.000005348764     0.000011980313     0.000010720705
      16        0.000007476686     0.000009050967    -0.000006299760
      17       -0.000003739410    -0.000003454704    -0.000000983599
      18        0.000001172017     0.000005386590     0.000011273379
      19       -0.000004674847     0.000008397121    -0.000011425099
      20        0.000001474200    -0.000011763766     0.000000708459

  **** Optimization is complete! (in 7 steps) ****
    Final optimized geometry and variables:
    Molecular point group: c1

    Geometry (in Angstrom), charge = 0, multiplicity = 1:

    O           -2.391774370672    -1.051091909364    -0.531078206025
    C           -1.898509151691    -0.037485042131    -0.155571357816
    C           -2.636409816966     1.257724840466     0.049953593580
    O           -0.611153023769     0.087776882232     0.136344026468
    H           -2.205128053740     2.028327511147    -0.578582635140
    H           -3.679663336166     1.122743874679    -0.193386674663
    H           -2.533629832214     1.578322531913     1.080236908322
    C            0.210213910446    -1.061431050470    -0.013198913536
    C            1.640024316341    -0.722190367759     0.388447584822
    H            0.157124583912    -1.429117130080    -1.029793168718
    H           -0.180937044784    -1.850703701465     0.615737955147
    C            2.145141538342     0.632647887305    -0.113559643430
    H            2.278860635923    -1.522673085899     0.023627463285
    H            1.715612477652    -0.737507692019     1.473159514865
    C            3.612137134184     0.870433927645     0.242908643494
    H            2.020779709465     0.693328638728    -1.192974150197
    H            1.533761340317     1.420213405283     0.310366966190
    H            3.946029573256     1.842999881562    -0.104684683157
    H            4.255372658607     0.119715717893    -0.207508513668
    H            3.765557034057     0.834009352769     1.317933496582

  Mulliken Charges: (a.u.)
   Center  Symbol    Alpha    Beta     Spin     Total
       1     O     4.28272  4.28272  0.00000 -0.56543
       2     C     2.61885  2.61885  0.00000  0.76230
       3     C     3.28181  3.28181  0.00000 -0.56362
       4     O     4.30772  4.30772  0.00000 -0.61545
       5     H     0.40044  0.40044  0.00000  0.19911
       6     H     0.39671  0.39671  0.00000  0.20659
       7     H     0.40058  0.40058  0.00000  0.19885
       8     C     3.00159  3.00159  0.00000 -0.00317
       9     C     3.16831  3.16831  0.00000 -0.33663
      10     H     0.41071  0.41071  0.00000  0.17858
      11     H     0.40907  0.40907  0.00000  0.18186
      12     C     3.15193  3.15193  0.00000 -0.30386
      13     H     0.41727  0.41727  0.00000  0.16547
      14     H     0.41710  0.41710  0.00000  0.16581
      15     C     3.24104  3.24104  0.00000 -0.48209
      16     H     0.42272  0.42272  0.00000  0.15456
      17     H     0.41059  0.41059  0.00000  0.17882
      18     H     0.41774  0.41774  0.00000  0.16452
      19     H     0.42181  0.42181  0.00000  0.15638
      20     H     0.42129  0.42129  0.00000  0.15742

   Total alpha = 32.00000, Total beta = 32.00000, Total charge =  0.00000
