                              Psi4 1.0.54 Driver

  ==> Input File <==

--------------------------------------------------------------------------
set {
	reference rhf
	basis cc-pvtz
}

set_num_threads( 4 )
memory 2 gb

molecule MOL {
0 1

H	 2.190573	 -0.629143	 -0.208718
O	 1.355408	 -0.529451	 0.208662
C	 0.700177	 0.619554	 -0.266242
C	 -0.713111	 0.588314	 0.266177
H	 0.678680	 0.627133	 -1.351786
H	 1.199747	 1.521489	 0.077736
O	 -1.421673	 -0.521378	 -0.196983
H	 -1.244794	 1.469161	 -0.069059
H	 -0.685100	 0.604721	 1.352683
H	 -0.993861	 -0.848774	 -0.968872

	symmetry c1
}
set optking {
	frozen_dihedral = ("
		10 7 4 3
	")
}

ee,wfn = optimize('scf', return_wfn=True)
oeprop( wfn, 'DIPOLE', 'QUADRUPOLE', 'MULLIKEN_CHARGES')
f=open( 'psi4out.xyz', 'w' )
f.write( "10  " )
f.write( str(ee) + "\n" )
f.write( MOL.save_string_xyz() )
f.close()
--------------------------------------------------------------------------

    Molecular point group: c1
  Charge       = 0
  Multiplicity = 1
  Basis Set: CC-PVTZ
  Basis Set:
  @DF-RHF Final Energy:  -229.02163613754254
    Total Energy =                       -229.0216361375427141
    Molecular point group: c1
  Basis Set: CC-PVTZ
  Basis Set:
  Basis Set: CC-PVTZ
  Basis Set:
  @DF-RHF Final Energy:  -229.02286980365761
    Total Energy =                       -229.0228698036577271
  Basis Set: CC-PVTZ
  Basis Set:
  Basis Set: CC-PVTZ
  Basis Set:
  @DF-RHF Final Energy:  -229.02312222126642
    Total Energy =                       -229.0231222212664761
  Basis Set: CC-PVTZ
  Basis Set:
  Basis Set: CC-PVTZ
  Basis Set:
  @DF-RHF Final Energy:  -229.02313345612973
    Total Energy =                       -229.0231334561298695
  Basis Set: CC-PVTZ
  Basis Set:
  Charge       = 0
  Multiplicity = 1
  Basis Set: CC-PVTZ
  Basis Set:

    Orbital Energies (a.u.)
    -----------------------

    Doubly Occupied:

       1A    -20.558396     2A    -20.542952     3A    -11.279648
       4A    -11.268016     5A     -1.383799     6A     -1.356666
       7A     -1.006177     8A     -0.850674     9A     -0.724010
      10A     -0.675551    11A     -0.663628    12A     -0.602090
      13A     -0.575747    14A     -0.554104    15A     -0.473251
      16A     -0.455416    17A     -0.441250

  @DF-RHF Final Energy:  -229.02313432967409

   => Energetics <=

    Nuclear Repulsion Energy =            133.9431870699528702
    One-Electron Energy =                -579.1098875497719973
    Two-Electron Energy =                 216.1435661501450625
    DFT Exchange-Correlation Energy =       0.0000000000000000
    Empirical Dispersion Energy =           0.0000000000000000
    PCM Polarization Energy =               0.0000000000000000
    EFP Energy =                            0.0000000000000000
    Total Energy =                       -229.0231343296740931
    Molecular point group: c1
  Basis Set: CC-PVTZ
  Basis Set:

  -Total Gradient:
     Atom            X                  Y                   Z
    ------   -----------------  -----------------  -----------------
       1        0.000048732405    -0.000023927332    -0.000006201346
       2       -0.000001104055     0.000069505818    -0.000012310518
       3        0.000002136518    -0.000270689764     0.000300382757
       4       -0.000219448017     0.000327200482    -0.000523987102
       5        0.000008299176     0.000000992607     0.000003708014
       6        0.000024365001     0.000006261755     0.000024390126
       7        0.000417491124    -0.000465489637     0.000571838052
       8       -0.000008190316     0.000019734237    -0.000003143366
       9        0.000010795497     0.000008226461     0.000004997004
      10       -0.000283077332     0.000328185372    -0.000359673620

  **** Optimization is complete! (in 5 steps) ****
    Final optimized geometry and variables:
    Molecular point group: c1

    Geometry (in Angstrom), charge = 0, multiplicity = 1:

    H            2.261020999967    -0.572570962296    -0.036737047068
    O            1.366162214315    -0.557596559287     0.248588976118
    C            0.724419869805     0.589900064339    -0.229419606175
    C           -0.711980149239     0.595813830890     0.239611567557
    H            0.751862460575     0.619084945729    -1.318745681040
    H            1.207183438114     1.493263569227     0.134873751922
    O           -1.455214814399    -0.504963934024    -0.196802382269
    H           -1.173426109389     1.518887111800    -0.103008581075
    H           -0.733734160505     0.593152862142     1.322126448877
    H           -1.047694863194    -0.906303634973    -0.941753654739

  Mulliken Charges: (a.u.)
   Center  Symbol    Alpha    Beta     Spin     Total
       1     H     0.39377  0.39377  0.00000  0.21247
       2     O     4.19488  4.19488  0.00000 -0.38976
       3     C     2.98137  2.98137  0.00000  0.03727
       4     C     2.94845  2.94845  0.00000  0.10311
       5     H     0.47588  0.47588  0.00000  0.04824
       6     H     0.46918  0.46918  0.00000  0.06164
       7     O     4.20282  4.20282  0.00000 -0.40564
       8     H     0.47686  0.47686  0.00000  0.04628
       9     H     0.46529  0.46529  0.00000  0.06942
      10     H     0.39151  0.39151  0.00000  0.21697

   Total alpha = 17.00000, Total beta = 17.00000, Total charge =  0.00000

*** Psi4 exiting successfully. Buy a developer a beer!
