  ==> Input File <==

--------------------------------------------------------------------------
set {
	reference rhf
	basis 6-31G*
}

set_num_threads( 4 )
memory 2 gb

molecule MOL {
0 1

O	 -2.439739	 -0.935931	 -0.423848
C	 -1.921153	 0.064240	 -0.045697
C	 -2.624470	 1.379923	 0.150949
O	 -0.632575	 0.154573	 0.251549
H	 -2.168117	 2.136577	 -0.476876
H	 -3.669540	 1.273223	 -0.098610
H	 -2.519365	 1.700893	 1.180846
C	 0.160891	 -1.019931	 0.106212
C	 1.589627	 -0.672828	 0.480843
H	 0.089836	 -1.367806	 -0.916050
H	 -0.238459	 -1.792301	 0.749618
C	 1.744951	 0.704655	 1.128002
H	 2.186040	 -0.718551	 -0.428076
H	 1.974499	 -1.440823	 1.146662
C	 3.198368	 1.032245	 1.467506
H	 1.350983	 1.463355	 0.454755
H	 1.142333	 0.747771	 2.029308
H	 3.281882	 2.012638	 1.925641
H	 3.821271	 1.029017	 0.577417
H	 3.611635	 0.306589	 2.162281

	symmetry c1
}
set optking {
	frozen_dihedral = ("
		12 9 8 10
	")
}

ee = optimize('scf')
oeprop('DIPOLE', 'QUADRUPOLE', 'MULLIKEN_CHARGES')
f=open( 'psi4out.xyz', 'w' )
f.write( "20  " )
f.write( str(ee) + "\n" )
f.write( MOL.save_string_xyz() )
f.close()
--------------------------------------------------------------------------

    Molecular point group: c1
  Charge       = 0
  Multiplicity = 1
  Basis Set: 6-31G*
  Basis Set:
  @DF-RHF Final Energy:  -383.93607184408216
    Total Energy =                       -383.9360718440821074
    Molecular point group: c1
  Basis Set: 6-31G*
  Basis Set:
  Basis Set: 6-31G*
  Basis Set:
  @DF-RHF Final Energy:  -383.93637816191915
    Total Energy =                       -383.9363781619188103
  Basis Set: 6-31G*
  Basis Set:
  Basis Set: 6-31G*
  Basis Set:
  @DF-RHF Final Energy:  -383.93747193113165
    Total Energy =                       -383.9374719311319950
  Basis Set: 6-31G*
  Basis Set:
  Basis Set: 6-31G*
  Basis Set:
  @DF-RHF Final Energy:  -383.93744987802847
    Total Energy =                       -383.9374498780281328
  Basis Set: 6-31G*
  Basis Set:
  Basis Set: 6-31G*
  Basis Set:
  @DF-RHF Final Energy:  -383.93761508984238
    Total Energy =                       -383.9376150898422111
  Basis Set: 6-31G*
  Basis Set:
  Basis Set: 6-31G*
  Basis Set:
  @DF-RHF Final Energy:  -383.93761948744884
    Total Energy =                       -383.9376194874487283
  Basis Set: 6-31G*
  Basis Set:
  Basis Set: 6-31G*
  Basis Set:
  @DF-RHF Final Energy:  -383.93762495367434
    Total Energy =                       -383.9376249536740033
  Basis Set: 6-31G*
  Basis Set:
  Charge       = 0
  Multiplicity = 1
  Basis Set: 6-31G*
  Basis Set:

    Orbital Energies (a.u.)
    -----------------------

    Doubly Occupied:

       1A    -20.601161     2A    -20.543818     3A    -11.374251
       4A    -11.283239     5A    -11.233281     6A    -11.226304
       7A    -11.219380     8A    -11.212203     9A     -1.467689
      10A     -1.361773    11A     -1.081534    12A     -1.027628
      13A     -0.979116    14A     -0.881183    15A     -0.817752
      16A     -0.760515    17A     -0.690613    18A     -0.688939
      19A     -0.666571    20A     -0.633793    21A     -0.594734
      22A     -0.592686    23A     -0.573426    24A     -0.546652
      25A     -0.544854    26A     -0.532108    27A     -0.507515
      28A     -0.482895    29A     -0.477057    30A     -0.468944
      31A     -0.443923    32A     -0.438468

  @DF-RHF Final Energy:  -383.93762646060713

   => Energetics <=

    Nuclear Repulsion Energy =            386.5565754370284139
    One-Electron Energy =               -1289.0803956890663358
    Two-Electron Energy =                 518.5861937914306736
    DFT Exchange-Correlation Energy =       0.0000000000000000
    Empirical Dispersion Energy =           0.0000000000000000
    PCM Polarization Energy =               0.0000000000000000
    EFP Energy =                            0.0000000000000000
    Total Energy =                       -383.9376264606072482
    Molecular point group: c1
  Basis Set: 6-31G*
  Basis Set:

  -Total Gradient:
     Atom            X                  Y                   Z
    ------   -----------------  -----------------  -----------------
       1        0.000006722160     0.000007102131     0.000001933355
       2       -0.000021633329    -0.000004597631    -0.000003880608
       3        0.000000662029    -0.000000178076     0.000002713562
       4        0.000019495153    -0.000021310956     0.000011973986
       5        0.000000099384    -0.000000553797    -0.000001275098
       6       -0.000000901862     0.000000740580    -0.000000126506
       7        0.000000518305    -0.000000658107    -0.000001890621
       8        0.000731717893    -0.003357710916     0.000284423474
       9       -0.000543949837    -0.000636882107     0.002822596628
      10       -0.000485929535     0.003024467060    -0.000978215186
      11       -0.000001433511     0.000004699388     0.000003000777
      12        0.000300293539     0.000991941969    -0.002161134904
      13        0.000001488322     0.000005526960     0.000002878167
      14       -0.000009747701    -0.000008947299    -0.000003176865
      15       -0.000001541563    -0.000005496341     0.000020221132
      16       -0.000010030760     0.000007301604    -0.000000860483
      17        0.000014415310    -0.000004323391    -0.000002533606
      18        0.000001182818     0.000000174755     0.000000512177
      19       -0.000010616694    -0.000000228999     0.000000187920
      20        0.000009189882    -0.000001066823     0.000002652703

  **** Optimization is complete! (in 8 steps) ****
    Final optimized geometry and variables:
    Molecular point group: c1

    Geometry (in Angstrom), charge = 0, multiplicity = 1:

    O           -2.326708500264    -1.071555498177    -0.793941089042
    C           -1.835858560342    -0.048327162185    -0.440429949487
    C           -2.579285942991     1.248215474589    -0.262894856047
    O           -0.550283358926     0.088224422639    -0.151784828078
    H           -2.151705229073     2.006785490539    -0.908376574537
    H           -3.622112234645     1.103611978507    -0.502663319278
    H           -2.477367424824     1.591917701402     0.759981733876
    C            0.276284067775    -1.067707507316    -0.277443881114
    C            1.729272200708    -0.712865748625     0.087078751670
    H            0.201565762685    -1.408759647186    -1.299836585513
    H           -0.121907991399    -1.839234722070     0.365495161533
    C            1.943807117846     0.654227631149     0.744205761686
    H            2.335980210156    -0.753447497348    -0.813420000619
    H            2.115532353237    -1.488712297681     0.742026401286
    C            3.411483591301     0.883317395979     1.103872623443
    H            1.605715487963     1.436406999740     0.074332775212
    H            1.333763642903     0.734230015946     1.638979701647
    H            3.552754494376     1.858311902524     1.559650809939
    H            4.045515759303     0.836328513818     0.222756180146
    H            3.768239041603     0.135570226797     1.806690543754

  Mulliken Charges: (a.u.)
   Center  Symbol    Alpha    Beta     Spin     Total
       1     O     4.28402  4.28402  0.00000 -0.56805
       2     C     2.61872  2.61872  0.00000  0.76255
       3     C     3.28140  3.28140  0.00000 -0.56281
       4     O     4.31100  4.31100  0.00000 -0.62201
       5     H     0.40089  0.40089  0.00000  0.19822
       6     H     0.39694  0.39694  0.00000  0.20611
       7     H     0.40075  0.40075  0.00000  0.19851
       8     C     2.99730  2.99730  0.00000  0.00539
       9     C     3.17846  3.17846  0.00000 -0.35693
      10     H     0.40786  0.40786  0.00000  0.18429
      11     H     0.40854  0.40854  0.00000  0.18292
      12     C     3.14534  3.14534  0.00000 -0.29069
      13     H     0.41638  0.41638  0.00000  0.16725
      14     H     0.41594  0.41594  0.00000  0.16812
      15     C     3.24200  3.24200  0.00000 -0.48400
      16     H     0.41448  0.41448  0.00000  0.17105
      17     H     0.41869  0.41869  0.00000  0.16261
      18     H     0.41771  0.41771  0.00000  0.16458
      19     H     0.42175  0.42175  0.00000  0.15651
      20     H     0.42181  0.42181  0.00000  0.15637

   Total alpha = 32.00000, Total beta = 32.00000, Total charge = -0.00000
