  ==> Input File <==

--------------------------------------------------------------------------
set {
	reference rhf
	basis 6-31G*
}

set_num_threads( 4 )
memory 2 gb

molecule MOL {
0 1

H	 -0.944757	 -0.000069	 1.678017
O	 -0.042387	 -0.000390	 1.388199
C	 -0.001487	 0.000018	 -0.026623
C	 -0.707799	 -1.248040	 -0.559648
C	 -0.667013	 1.271074	 -0.557788
C	 1.480774	 -0.023724	 -0.382656
H	 -0.657616	 -1.299453	 -1.642577
H	 -1.758153	 -1.247699	 -0.277403
H	 -0.250336	 -2.141833	 -0.149917
H	 -0.617075	 1.321314	 -1.640873
H	 -1.716312	 1.305273	 -0.273652
H	 -0.179499	 2.148989	 -0.148554
H	 1.622290	 -0.025762	 -1.458627
H	 1.950947	 -0.909279	 0.029918
H	 1.979119	 0.846064	 0.030277

	symmetry c1
}
set optking {
	frozen_dihedral = ("
		4 3 2 1
	")
}

ee = optimize('scf')
oeprop('DIPOLE', 'QUADRUPOLE', 'MULLIKEN_CHARGES')
f=open( 'psi4out.xyz', 'w' )
f.write( "15  " )
f.write( str(ee) + "\n" )
f.write( MOL.save_string_xyz() )
f.close()
--------------------------------------------------------------------------

    Molecular point group: c1
  Charge       = 0
  Multiplicity = 1
  Basis Set: 6-31G*
  Basis Set:
  @DF-RHF Final Energy:  -232.15336315888487
    Total Energy =                       -232.1533631588846447
    Molecular point group: c1
  Basis Set: 6-31G*
  Basis Set:
  Charge       = 0
  Multiplicity = 1
  Basis Set: 6-31G*
  Basis Set:

    Orbital Energies (a.u.)
    -----------------------

    Doubly Occupied:

       1A    -20.549159     2A    -11.281811     3A    -11.211264
       4A    -11.210885     5A    -11.205254     6A     -1.360702
       7A     -1.063275     8A     -0.941332     9A     -0.939458
      10A     -0.775608    11A     -0.670207    12A     -0.622498
      13A     -0.621107    14A     -0.574713    15A     -0.556778
      16A     -0.531424    17A     -0.516813    18A     -0.508959
      19A     -0.503047    20A     -0.457318    21A     -0.425215

  @DF-RHF Final Energy:  -232.15336227523537

   => Energetics <=

    Nuclear Repulsion Energy =            200.3642809652481276
    One-Electron Energy =                -711.9816309721802554
    Two-Electron Energy =                 279.4639877316968182
    DFT Exchange-Correlation Energy =       0.0000000000000000
    Empirical Dispersion Energy =           0.0000000000000000
    PCM Polarization Energy =               0.0000000000000000
    EFP Energy =                            0.0000000000000000
    Total Energy =                       -232.1533622752353381
    Molecular point group: c1
  Basis Set: 6-31G*
  Basis Set:

  -Total Gradient:
     Atom            X                  Y                   Z
    ------   -----------------  -----------------  -----------------
       1       -0.000015191801    -0.000098052730     0.000018703055
       2       -0.000081505883     0.000180902803     0.000020696492
       3        0.000132438526    -0.000107840609    -0.000009284017
       4       -0.000102578809     0.000045850719    -0.000030714453
       5        0.000003612612    -0.000031224389     0.000019767043
       6        0.000016230582     0.000017336260    -0.000011796650
       7       -0.000040254087     0.000014388768    -0.000004371191
       8       -0.000007153488    -0.000034084434     0.000023072325
       9        0.000066668513     0.000029316034    -0.000017110608
      10       -0.000008543651    -0.000013743433    -0.000015238808
      11        0.000005367366     0.000009503259     0.000004858950
      12        0.000022143260    -0.000014539500    -0.000011054091
      13        0.000006109743     0.000018443981     0.000004522947
      14       -0.000022361264    -0.000010831816    -0.000002373565
      15        0.000025018379    -0.000005424914     0.000010322566

  **** Optimization is complete! (in 2 steps) ****
    Final optimized geometry and variables:
    Molecular point group: c1

    Geometry (in Angstrom), charge = 0, multiplicity = 1:

    H           -0.946473733169     0.002088816014     1.677279388269
    O           -0.043785812175     0.001117220004     1.388248400508
    C           -0.001347161434     0.000031941411    -0.026544499586
    C           -0.707436703113    -1.248124593216    -0.559621185147
    C           -0.666388111784     1.270678111906    -0.559197407033
    C            1.481216103580    -0.023866657933    -0.381336137483
    H           -0.664316371567    -1.295237682393    -1.643116086014
    H           -1.755976467043    -1.251970329280    -0.270511331833
    H           -0.244471690040    -2.142069484536    -0.156464527821
    H           -0.618062045364     1.318829793495    -1.642482341438
    H           -1.715134009116     1.306531794820    -0.273309272551
    H           -0.177261196844     2.148800423027    -0.152287430434
    H            1.623756399123    -0.022466163934    -1.457188190859
    H            1.950205531744    -0.911170848920     0.028838617819
    H            1.979996940006     0.844187592595     0.034877805959

  Mulliken Charges: (a.u.)
   Center  Symbol    Alpha    Beta     Spin     Total
       1     H     0.28397  0.28397  0.00000  0.43205
       2     O     4.37572  4.37572  0.00000 -0.75145
       3     C     2.85373  2.85373  0.00000  0.29255
       4     C     3.24144  3.24144  0.00000 -0.48289
       5     C     3.24085  3.24085  0.00000 -0.48169
       6     C     3.23372  3.23372  0.00000 -0.46744
       7     H     0.42085  0.42085  0.00000  0.15830
       8     H     0.42669  0.42669  0.00000  0.14662
       9     H     0.41226  0.41226  0.00000  0.17549
      10     H     0.42114  0.42114  0.00000  0.15772
      11     H     0.42668  0.42668  0.00000  0.14664
      12     H     0.41224  0.41224  0.00000  0.17551
      13     H     0.42400  0.42400  0.00000  0.15199
      14     H     0.41343  0.41343  0.00000  0.17314
      15     H     0.41327  0.41327  0.00000  0.17346

   Total alpha = 21.00000, Total beta = 21.00000, Total charge = -0.00000
