  ==> Input File <==

--------------------------------------------------------------------------
set {
	reference rhf
	basis 6-31G*
}

set_num_threads( 4 )
memory 2 gb

molecule MOL {
0 1

O	 -1.276010	 1.052711	 -0.768302
C	 -1.204840	 0.067374	 -0.106123
C	 -2.388195	 -0.672128	 0.458071
O	 -0.067104	 -0.527208	 0.221609
H	 -2.388023	 -1.694060	 0.097175
H	 -3.300579	 -0.174919	 0.164318
H	 -2.315377	 -0.706351	 1.539059
C	 1.170111	 0.034140	 -0.238951
C	 1.138782	 1.498145	 0.162665
C	 1.298945	 -0.168912	 -1.740556
H	 1.975284	 -0.475847	 0.269100
H	 1.030235	 1.598331	 1.236642
H	 2.060080	 1.987420	 -0.135918
H	 0.308941	 2.008853	 -0.313984
H	 2.222645	 0.274087	 -2.099089
H	 1.312830	 -1.223295	 -1.985628
H	 0.470038	 0.302038	 -2.259330

	symmetry c1
}
set optking {
	frozen_dihedral = ("
		11 8 4 2
	")
}

ee = optimize('scf')
oeprop('DIPOLE', 'QUADRUPOLE', 'MULLIKEN_CHARGES')
f=open( 'psi4out.xyz', 'w' )
f.write( "17  " )
f.write( str(ee) + "\n" )
f.write( MOL.save_string_xyz() )
f.close()
--------------------------------------------------------------------------

    Molecular point group: c1
  Charge       = 0
  Multiplicity = 1
  Basis Set: 6-31G*
  Basis Set:
  @DF-RHF Final Energy:  -344.89690493648493
    Total Energy =                       -344.8969049364848161
    Molecular point group: c1
  Basis Set: 6-31G*
  Basis Set:
  Basis Set: 6-31G*
  Basis Set:
  @DF-RHF Final Energy:  -344.90790691081423
    Total Energy =                       -344.9079069108140629
  Basis Set: 6-31G*
  Basis Set:
  Basis Set: 6-31G*
  Basis Set:
  @DF-RHF Final Energy:  -344.90960401771014
    Total Energy =                       -344.9096040177100804
  Basis Set: 6-31G*
  Basis Set:
  Basis Set: 6-31G*
  Basis Set:
  @DF-RHF Final Energy:  -344.90788863608242
    Total Energy =                       -344.9078886360824754
  Basis Set: 6-31G*
  Basis Set:
  Basis Set: 6-31G*
  Basis Set:
  @DF-RHF Final Energy:  -344.90990101981043
    Total Energy =                       -344.9099010198102064
  Basis Set: 6-31G*
  Basis Set:
  Basis Set: 6-31G*
  Basis Set:
  @DF-RHF Final Energy:  -344.90994253622517
    Total Energy =                       -344.9099425362254578
  Basis Set: 6-31G*
  Basis Set:
  Basis Set: 6-31G*
  Basis Set:
  @DF-RHF Final Energy:  -344.90994490248835
    Total Energy =                       -344.9099449024885189
  Basis Set: 6-31G*
  Basis Set:
  Charge       = 0
  Multiplicity = 1
  Basis Set: 6-31G*
  Basis Set:

    Orbital Energies (a.u.)
    -----------------------

    Doubly Occupied:

       1A    -20.597562     2A    -20.541840     3A    -11.374798
       4A    -11.294069     5A    -11.231045     6A    -11.214955
       7A    -11.213447     8A     -1.462509     9A     -1.361067
      10A     -1.076073    11A     -1.003170    12A     -0.945846
      13A     -0.866817    14A     -0.731175    15A     -0.695307
      16A     -0.669916    17A     -0.659170    18A     -0.614515
      19A     -0.585770    20A     -0.580301    21A     -0.569127
      22A     -0.552135    23A     -0.528977    24A     -0.518963
      25A     -0.497524    26A     -0.483228    27A     -0.445103
      28A     -0.428500

  @DF-RHF Final Energy:  -344.90994516969482

   => Energetics <=

    Nuclear Repulsion Energy =            326.8667315817253325
    One-Electron Energy =               -1118.0675371239017295
    Two-Electron Energy =                 446.2908603724815748
    DFT Exchange-Correlation Energy =       0.0000000000000000
    Empirical Dispersion Energy =           0.0000000000000000
    PCM Polarization Energy =               0.0000000000000000
    EFP Energy =                            0.0000000000000000
    Total Energy =                       -344.9099451696947654
    Molecular point group: c1
  Basis Set: 6-31G*
  Basis Set:

  -Total Gradient:
     Atom            X                  Y                   Z
    ------   -----------------  -----------------  -----------------
       1        0.000001835154    -0.000007229532    -0.000003190286
       2        0.000097706137     0.001383179349     0.002125839405
       3       -0.000009933330     0.000008333545     0.000012615231
       4       -0.000133205241    -0.001760575389    -0.002866547532
       5       -0.000003187258    -0.000001805437    -0.000006728302
       6       -0.000005862987    -0.000006127622     0.000002808646
       7       -0.000000935712    -0.000009369904    -0.000007869207
       8        0.000245301078    -0.001334622217    -0.001220851928
       9       -0.000036771306     0.000001055641    -0.000021046683
      10        0.000016075873    -0.000029436282     0.000003411917
      11       -0.000167114334     0.001757894225     0.001970140801
      12        0.000000524080     0.000000707824     0.000011055936
      13        0.000000781393    -0.000011524622    -0.000002229316
      14        0.000003693548     0.000002364638     0.000004471755
      15       -0.000006551467     0.000004195780     0.000000288793
      16       -0.000002461952    -0.000005102311    -0.000009833443
      17        0.000000106323     0.000008062310     0.000007664211

  **** Optimization is complete! (in 8 steps) ****
    Final optimized geometry and variables:
    Molecular point group: c1

    Geometry (in Angstrom), charge = 0, multiplicity = 1:

    O           -1.239586386256     0.783136489406    -0.523542651736
    C           -1.069185575428    -0.163455668881     0.176158842955
    C           -2.177773955022    -0.941424177893     0.835618560707
    O            0.111247142959    -0.683708157423     0.472181614208
    H           -2.134038291343    -1.978111299819     0.522505870313
    H           -3.131429604516    -0.512576247006     0.566090289638
    H           -2.050757694323    -0.918620385979     1.911826826235
    C            1.346497797264    -0.086563830100     0.040933684610
    C            1.481471782450     1.370028664940     0.469994989327
    C            1.566660392299    -0.311681434668    -1.446996745733
    H            2.071422080688    -0.657232321303     0.605228692230
    H            1.236524276348     1.477384491473     1.521695602627
    H            2.514200440940     1.677569462122     0.336342488406
    H            0.845982843714     2.026454282496    -0.105113007185
    H            2.569247136881     0.002455261200    -1.719929315177
    H            1.464780878684    -1.364071515378    -1.688897019205
    H            0.856515206614     0.253505078380    -2.036071534812

  Mulliken Charges: (a.u.)
   Center  Symbol    Alpha    Beta     Spin     Total
       1     O     4.28699  4.28699  0.00000 -0.57398
       2     C     2.61478  2.61478  0.00000  0.77045
       3     C     3.28066  3.28066  0.00000 -0.56132
       4     O     4.32026  4.32026  0.00000 -0.64051
       5     H     0.40093  0.40093  0.00000  0.19813
       6     H     0.39790  0.39790  0.00000  0.20419
       7     H     0.40154  0.40154  0.00000  0.19692
       8     C     2.91417  2.91417  0.00000  0.17165
       9     C     3.25872  3.25872  0.00000 -0.51744
      10     C     3.25430  3.25430  0.00000 -0.50861
      11     H     0.40964  0.40964  0.00000  0.18073
      12     H     0.41533  0.41533  0.00000  0.16934
      13     H     0.41921  0.41921  0.00000  0.16159
      14     H     0.39389  0.39389  0.00000  0.21223
      15     H     0.41885  0.41885  0.00000  0.16230
      16     H     0.41389  0.41389  0.00000  0.17222
      17     H     0.39895  0.39895  0.00000  0.20210

   Total alpha = 28.00000, Total beta = 28.00000, Total charge = -0.00000
