                              Psi4 1.0.54 Driver

  ==> Input File <==

--------------------------------------------------------------------------
set {
	reference rhf
	basis cc-pvtz
}

set_num_threads( 4 )
memory 2 gb

molecule MOL {
0 1

O	 -0.694481	 1.313155	 -0.204815
C	 -0.862519	 0.151932	 -0.046791
C	 -2.171428	 -0.477048	 0.339095
O	 0.085519	 -0.757083	 -0.192238
H	 -2.467997	 -1.191667	 -0.417688
H	 -2.923379	 0.287970	 0.444097
H	 -2.053854	 -1.015120	 1.270901
C	 0.145148	 -1.837954	 0.731150
C	 -0.775662	 -2.970693	 0.327532
H	 -0.094083	 -1.475406	 1.718643
H	 1.176761	 -2.156107	 0.713658
H	 -0.653835	 -3.800225	 1.014908
H	 -1.809979	 -2.656297	 0.354469
H	 -0.539596	 -3.318429	 -0.670940

	symmetry c1
}
set optking {
	frozen_dihedral = ("
		8 4 2 1
	")
}

ee,wfn = optimize('scf', return_wfn=True)
oeprop( wfn, 'DIPOLE', 'QUADRUPOLE', 'MULLIKEN_CHARGES')
f=open( 'psi4out.xyz', 'w' )
f.write( "14  " )
f.write( str(ee) + "\n" )
f.write( MOL.save_string_xyz() )
f.close()
--------------------------------------------------------------------------

    Molecular point group: c1
  Charge       = 0
  Multiplicity = 1
  Basis Set: CC-PVTZ
  Basis Set:
  @DF-RHF Final Energy:  -305.95645213550870
    Total Energy =                       -305.9564521355088687
    Molecular point group: c1
  Basis Set: CC-PVTZ
  Basis Set:
  Basis Set: CC-PVTZ
  Basis Set:
  @DF-RHF Final Energy:  -305.96859656634751
    Total Energy =                       -305.9685965663473439
  Basis Set: CC-PVTZ
  Basis Set:
  Basis Set: CC-PVTZ
  Basis Set:
  @DF-RHF Final Energy:  -305.96987451254972
    Total Energy =                       -305.9698745125495520
  Basis Set: CC-PVTZ
  Basis Set:
  Basis Set: CC-PVTZ
  Basis Set:
  @DF-RHF Final Energy:  -305.97031248770452
    Total Energy =                       -305.9703124877048026
  Basis Set: CC-PVTZ
  Basis Set:
  @DF-RHF Final Energy:  -305.97236465997116
    Total Energy =                       -305.9723646599712765
  @DF-RHF Final Energy:  -305.97259341626784
    Total Energy =                       -305.9725934162678413
  @DF-RHF Final Energy:  -305.97270418833966
    Total Energy =                       -305.9727041883396055
  Basis Set: CC-PVTZ
  Basis Set:
  @DF-RHF Final Energy:  -305.97276107316469
    Total Energy =                       -305.9727610731644631
  Basis Set: CC-PVTZ
  Basis Set:
  Basis Set: CC-PVTZ
  Basis Set:
  @DF-RHF Final Energy:  -305.97277649469095
    Total Energy =                       -305.9727764946911748
  Basis Set: CC-PVTZ
  Basis Set:
  Basis Set: CC-PVTZ
  Basis Set:
  @DF-RHF Final Energy:  -305.97277918562258
    Total Energy =                       -305.9727791856224712
  Basis Set: CC-PVTZ
  Basis Set:
  Charge       = 0
  Multiplicity = 1
  Basis Set: CC-PVTZ
  Basis Set:

    Orbital Energies (a.u.)
    -----------------------

    Doubly Occupied:

       1A    -20.585687     2A    -20.533367     3A    -11.369697
       4A    -11.298404     5A    -11.239564     6A    -11.229559
       7A     -1.462311     8A     -1.368010     9A     -1.050272
      10A     -1.017148    11A     -0.892919    12A     -0.778991
      13A     -0.700960    14A     -0.689529    15A     -0.657014
      16A     -0.622217    17A     -0.594812    18A     -0.585029
      19A     -0.562940    20A     -0.543754    21A     -0.527829
      22A     -0.490666    23A     -0.451667    24A     -0.438775

  @DF-RHF Final Energy:  -305.97278015837821

   => Energetics <=

    Nuclear Repulsion Energy =            247.3102962847746369
    One-Electron Energy =                -907.1839177278311581
    Two-Electron Energy =                 353.9008412846783358
    DFT Exchange-Correlation Energy =       0.0000000000000000
    Empirical Dispersion Energy =           0.0000000000000000
    PCM Polarization Energy =               0.0000000000000000
    EFP Energy =                            0.0000000000000000
    Total Energy =                       -305.9727801583782139
    Molecular point group: c1
  Basis Set: CC-PVTZ
  Basis Set:

  -Total Gradient:
     Atom            X                  Y                   Z
    ------   -----------------  -----------------  -----------------
       1        0.000497955944     0.000377545332     0.002805249153
       2        0.000185110886     0.000231798371    -0.003196211710
       3        0.000013692535    -0.000002017403     0.000096317845
       4       -0.002193914386    -0.001876313892    -0.001149803040
       5        0.000001165319    -0.000004258528    -0.000040068695
       6        0.000020892151    -0.000002993248    -0.000003864482
       7       -0.000018972637    -0.000025697489    -0.000038497087
       8        0.001464463114     0.001307729612     0.001522911557
       9        0.000021931956    -0.000029755313     0.000009784988
      10        0.000007869571     0.000008920627     0.000008811897
      11        0.000004738906     0.000005952839    -0.000010560643
      12       -0.000001640095    -0.000007327007    -0.000011781417
      13        0.000008008055     0.000025379683     0.000003181816
      14       -0.000011301319    -0.000008963583     0.000004529816

  **** Optimization is complete! (in 11 steps) ****
    Final optimized geometry and variables:
    Molecular point group: c1

    Geometry (in Angstrom), charge = 0, multiplicity = 1:

    O            0.167165194515     2.063029668696    -0.403719496038
    C           -0.180446799034     0.957884900223    -0.192785141886
    C           -1.625458377238     0.588656328707     0.039760601258
    O            0.710083447168    -0.036720823189    -0.220651925630
    H           -1.959157076125    -0.059722108137    -0.761103691201
    H           -2.214059778516     1.490942820152     0.043876080232
    H           -1.768611696369     0.062529343737     0.973178216393
    C            0.705785734399    -1.109395936651     0.704042859256
    C            0.242473273395    -2.401974154254     0.064246952246
    H            0.107250070015    -0.863566269278     1.570819320862
    H            1.729184322456    -1.203430348669     1.036710124821
    H            0.345678711962    -3.219077436529     0.769274712827
    H           -0.794751950540    -2.347816027743    -0.241385077425
    H            0.843740849250    -2.623971155532    -0.808000304765

  Mulliken Charges: (a.u.)
   Center  Symbol    Alpha    Beta     Spin     Total
       1     O     4.17454  4.17454  0.00000 -0.34908
       2     C     2.81341  2.81341  0.00000  0.37318
       3     C     3.16504  3.16504  0.00000 -0.33007
       4     O     4.14610  4.14610  0.00000 -0.29220
       5     H     0.44332  0.44332  0.00000  0.11336
       6     H     0.42677  0.42677  0.00000  0.14646
       7     H     0.44970  0.44970  0.00000  0.10060
       8     C     2.99677  2.99677  0.00000  0.00647
       9     C     3.13745  3.13745  0.00000 -0.27490
      10     H     0.45799  0.45799  0.00000  0.08402
      11     H     0.43774  0.43774  0.00000  0.12452
      12     H     0.45166  0.45166  0.00000  0.09669
      13     H     0.45398  0.45398  0.00000  0.09204
      14     H     0.44554  0.44554  0.00000  0.10892

   Total alpha = 24.00000, Total beta = 24.00000, Total charge = -0.00000

*** Psi4 exiting successfully. Buy a developer a beer!
