  ==> Input File <==

--------------------------------------------------------------------------
set {
	reference rhf
	basis 6-31G*
}

set_num_threads( 1 )
memory 2 gb

molecule MOL {
0 1

O	 -1.309579	 0.572776	 2.620489
C	 -0.570638	 1.247219	 1.969699
C	 0.695672	 0.660036	 1.371383
C	 -0.869630	 2.701465	 1.681344
C	 0.379448	 -0.143569	 0.099626
H	 1.136544	 0.003750	 2.113828
H	 1.411715	 1.445228	 1.146034
C	 1.631333	 -0.777471	 -0.511575
H	 -0.349139	 -0.905247	 0.353382
H	 -0.089168	 0.506584	 -0.637562
C	 2.915987	 -0.544314	 0.291766
H	 1.766672	 -0.399098	 -1.523130
H	 1.471257	 -1.849544	 -0.605828
C	 3.373361	 0.914346	 0.347591
H	 3.708709	 -1.142521	 -0.150311
H	 2.780642	 -0.921148	 1.303579
H	 3.506512	 1.320010	 -0.651625
H	 4.322697	 0.999599	 0.867103
H	 2.660624	 1.545032	 0.868198
H	 -0.129004	 3.330229	 2.168575
H	 -1.854174	 2.956770	 2.047783
H	 -0.808833	 2.902473	 0.615650

	symmetry c1
}
set optking {
	frozen_dihedral = ("
		6 3 2 1,
		6 3 5 8,
		12 8 11 15
	")
}

ee = energy('scf')
oeprop('DIPOLE', 'QUADRUPOLE', 'MULLIKEN_CHARGES')
f=open( 'psi4out.xyz', 'w' )
f.write( "22  " )
f.write( str(ee) + "\n" )
f.write( MOL.save_string_xyz() )
f.close()
--------------------------------------------------------------------------

    Molecular point group: c1

    Geometry (in Angstrom), charge = 0, multiplicity = 1:

       Center              X                  Y                   Z               Mass
    ------------   -----------------  -----------------  -----------------  -----------------
           O         -2.093139118158    -0.020739668340     1.631131377866    15.994914619560
           C         -1.354198118158     0.653703331660     0.980341377866    12.000000000000
           C         -0.087888118158     0.066520331660     0.382025377866    12.000000000000
           C         -1.653190118158     2.107949331660     0.691986377866    12.000000000000
           C         -0.404112118158    -0.737084668340    -0.889731622134    12.000000000000
           H          0.352983881842    -0.589765668340     1.124470377866     1.007825032070
           H          0.628154881842     0.851712331660     0.156676377866     1.007825032070
           C          0.847772881842    -1.370986668340    -1.500932622134    12.000000000000
           H         -1.132699118158    -1.498762668340    -0.635975622134     1.007825032070
           H         -0.872728118158    -0.086931668340    -1.626919622134     1.007825032070
           C          2.132426881842    -1.137829668340    -0.697591622134    12.000000000000
           H          0.983111881842    -0.992613668340    -2.512487622134     1.007825032070
           H          0.687696881842    -2.443059668340    -1.595185622134     1.007825032070
           C          2.589800881842     0.320830331660    -0.641766622134    12.000000000000
           H          2.925148881842    -1.736036668340    -1.139668622134     1.007825032070
           H          1.997081881842    -1.514663668340     0.314221377866     1.007825032070
           H          2.722951881842     0.726494331660    -1.640982622134     1.007825032070
           H          3.539136881842     0.406083331660    -0.122254622134     1.007825032070
           H          1.877063881842     0.951516331660    -0.121159622134     1.007825032070
           H         -0.912564118158     2.736713331660     1.179217377866     1.007825032070
           H         -2.637734118158     2.363254331660     1.058425377866     1.007825032070
           H         -1.592393118158     2.308957331660    -0.373707622134     1.007825032070

  Charge       = 0
  Multiplicity = 1
  Basis Set: 6-31G*
  Basis Set:

    Orbital Energies (a.u.)
    -----------------------

    Doubly Occupied:

       1A    -20.544164     2A    -11.320899     3A    -11.228101
       4A    -11.227033     5A    -11.222861     6A    -11.221462
       7A    -11.221375     8A    -11.212027     9A     -1.390207
      10A     -1.104578    11A     -1.035978    12A     -0.997409
      13A     -0.953336    14A     -0.858677    15A     -0.782629
      16A     -0.741600    17A     -0.669764    18A     -0.656892
      19A     -0.623454    20A     -0.603373    21A     -0.602342
      22A     -0.584921    23A     -0.570805    24A     -0.547412
      25A     -0.541107    26A     -0.520451    27A     -0.503044
      28A     -0.485958    29A     -0.469954    30A     -0.452906
      31A     -0.443841    32A     -0.392489

  @DF-RHF Final Energy:  -348.05827859863956

   => Energetics <=

    Nuclear Repulsion Energy =            388.1993663669692864
    One-Electron Energy =               -1241.0532275659479637
    Two-Electron Energy =                 504.7955826003374113
    DFT Exchange-Correlation Energy =       0.0000000000000000
    Empirical Dispersion Energy =           0.0000000000000000
    PCM Polarization Energy =               0.0000000000000000
    EFP Energy =                            0.0000000000000000
    Total Energy =                       -348.0582785986412091

  Mulliken Charges: (a.u.)
   Center  Symbol    Alpha    Beta     Spin     Total
       1     O     4.26373  4.26373  0.00000 -0.52746
       2     C     2.72984  2.72984  0.00000  0.54032
       3     C     3.21220  3.21220  0.00000 -0.42440
       4     C     3.29052  3.29052  0.00000 -0.58104
       5     C     3.16278  3.16278  0.00000 -0.32557
       6     H     0.39959  0.39959  0.00000  0.20082
       7     H     0.41952  0.41952  0.00000  0.16095
       8     C     3.15639  3.15639  0.00000 -0.31278
       9     H     0.40228  0.40228  0.00000  0.19543
      10     H     0.41838  0.41838  0.00000  0.16324
      11     C     3.16290  3.16290  0.00000 -0.32579
      12     H     0.41965  0.41965  0.00000  0.16070
      13     H     0.41502  0.41502  0.00000  0.16996
      14     C     3.24126  3.24126  0.00000 -0.48252
      15     H     0.41483  0.41483  0.00000  0.17034
      16     H     0.41882  0.41882  0.00000  0.16235
      17     H     0.42086  0.42086  0.00000  0.15828
      18     H     0.41718  0.41718  0.00000  0.16563
      19     H     0.41896  0.41896  0.00000  0.16207
      20     H     0.40811  0.40811  0.00000  0.18378
      21     H     0.39704  0.39704  0.00000  0.20593
      22     H     0.41013  0.41013  0.00000  0.17973

   Total alpha = 32.00000, Total beta = 32.00000, Total charge =  0.00000
