  ==> Input File <==

--------------------------------------------------------------------------
set {
	reference rhf
	basis 6-31G*
}

set_num_threads( 1 )
memory 2 gb

molecule MOL {
0 1

H	 -3.420663	 1.227371	 -1.044276
O	 -3.452007	 0.283848	 -0.965577
C	 -3.181085	 -0.079926	 0.364119
C	 -1.765924	 0.277073	 0.805136
H	 -3.327791	 -1.152017	 0.410903
H	 -3.905698	 0.375695	 1.036898
C	 -1.534759	 1.781140	 0.956345
H	 -1.551507	 -0.224423	 1.749323
H	 -1.067087	 -0.133880	 0.078524
C	 -0.118558	 2.127178	 1.420901
H	 -2.259231	 2.184515	 1.657158
H	 -1.730207	 2.267300	 0.001965
C	 0.107032	 3.634708	 1.564247
H	 0.073691	 1.630928	 2.369160
H	 0.603775	 1.722897	 0.712808
C	 1.537454	 4.036321	 1.942074
H	 -0.584520	 4.032942	 2.305098
H	 -0.148789	 4.115770	 0.622466
C	 1.977930	 3.583906	 3.335526
H	 1.616924	 5.119321	 1.886524
H	 2.229238	 3.643670	 1.199468
H	 1.296792	 3.951666	 4.098377
H	 2.968592	 3.962294	 3.568443
H	 2.015549	 2.502801	 3.418948

	symmetry c1
}
set optking {
	frozen_dihedral = ("
		20 16 13 17,
		17 13 10 7,
		13 10 7 11,
		11 7 4 3,
		1 2 3 5
	")
}

ee = energy('scf')
oeprop('DIPOLE', 'QUADRUPOLE', 'MULLIKEN_CHARGES')
f=open( 'psi4out.xyz', 'w' )
f.write( "24  " )
f.write( str(ee) + "\n" )
f.write( MOL.save_string_xyz() )
f.close()
--------------------------------------------------------------------------

    Molecular point group: c1

    Geometry (in Angstrom), charge = 0, multiplicity = 1:

       Center              X                  Y                   Z               Mass
    ------------   -----------------  -----------------  -----------------  -----------------
           H         -2.575015556468    -0.704830199590    -2.193740962889     1.007825032070
           O         -2.606359556468    -1.648353199590    -2.115041962889    15.994914619560
           C         -2.335437556468    -2.012127199590    -0.785345962889    12.000000000000
           C         -0.920276556468    -1.655128199590    -0.344328962889    12.000000000000
           H         -2.482143556468    -3.084218199590    -0.738561962889     1.007825032070
           H         -3.060050556468    -1.556506199590    -0.112566962889     1.007825032070
           C         -0.689111556468    -0.151061199590    -0.193119962889    12.000000000000
           H         -0.705859556468    -2.156624199590     0.599858037111     1.007825032070
           H         -0.221439556468    -2.066081199590    -1.070940962889     1.007825032070
           C          0.727089443532     0.194976800410     0.271436037111    12.000000000000
           H         -1.413583556468     0.252313800410     0.507693037111     1.007825032070
           H         -0.884559556468     0.335098800410    -1.147499962889     1.007825032070
           C          0.952679443532     1.702506800410     0.414782037111    12.000000000000
           H          0.919338443532    -0.301273199590     1.219695037111     1.007825032070
           H          1.449422443532    -0.209304199590    -0.436656962889     1.007825032070
           C          2.383101443532     2.104119800410     0.792609037111    12.000000000000
           H          0.261127443532     2.100740800410     1.155633037111     1.007825032070
           H          0.696858443532     2.183568800410    -0.526998962889     1.007825032070
           C          2.823577443532     1.651704800410     2.186061037111    12.000000000000
           H          2.462571443532     3.187119800410     0.737059037111     1.007825032070
           H          3.074885443532     1.711468800410     0.050003037111     1.007825032070
           H          2.142439443532     2.019464800410     2.948912037111     1.007825032070
           H          3.814239443532     2.030092800410     2.418978037111     1.007825032070
           H          2.861196443532     0.570599800410     2.269483037111     1.007825032070

  Charge       = 0
  Multiplicity = 1
  Basis Set: 6-31G*
  Basis Set:

    Orbital Energies (a.u.)
    -----------------------

    Doubly Occupied:

       1A    -20.552183     2A    -11.266803     3A    -11.222069
       4A    -11.218173     5A    -11.217519     6A    -11.216447
       7A    -11.216383     8A    -11.210082     9A     -1.358895
      10A     -1.093872    11A     -1.051564    12A     -0.988127
      13A     -0.919434    14A     -0.854048    15A     -0.799523
      16A     -0.781339    17A     -0.691020    18A     -0.655509
      19A     -0.624146    20A     -0.615093    21A     -0.600186
      22A     -0.588174    23A     -0.563167    24A     -0.537533
      25A     -0.528184    26A     -0.509650    27A     -0.492305
      28A     -0.487539    29A     -0.476032    30A     -0.463585
      31A     -0.458836    32A     -0.444285    33A     -0.423750

  @DF-RHF Final Energy:  -349.24681263280223

   => Energetics <=

    Nuclear Repulsion Energy =            384.1489927260760737
    One-Electron Energy =               -1234.5406420406011421
    Two-Electron Energy =                 501.1448366817232341
    DFT Exchange-Correlation Energy =       0.0000000000000000
    Empirical Dispersion Energy =           0.0000000000000000
    PCM Polarization Energy =               0.0000000000000000
    EFP Energy =                            0.0000000000000000
    Total Energy =                       -349.2468126328017775

  Mulliken Charges: (a.u.)
   Center  Symbol    Alpha    Beta     Spin     Total
       1     H     0.28005  0.28005  0.00000  0.43991
       2     O     4.37127  4.37127  0.00000 -0.74253
       3     C     2.99575  2.99575  0.00000  0.00851
       4     C     3.16513  3.16513  0.00000 -0.33026
       5     H     0.41426  0.41426  0.00000  0.17148
       6     H     0.43197  0.43197  0.00000  0.13606
       7     C     3.15975  3.15975  0.00000 -0.31951
       8     H     0.42322  0.42322  0.00000  0.15355
       9     H     0.41434  0.41434  0.00000  0.17132
      10     C     3.15274  3.15274  0.00000 -0.30548
      11     H     0.42212  0.42212  0.00000  0.15575
      12     H     0.42935  0.42935  0.00000  0.14130
      13     C     3.15275  3.15275  0.00000 -0.30550
      14     H     0.42037  0.42037  0.00000  0.15927
      15     H     0.42167  0.42167  0.00000  0.15666
      16     C     3.15262  3.15262  0.00000 -0.30524
      17     H     0.42429  0.42429  0.00000  0.15142
      18     H     0.42248  0.42248  0.00000  0.15505
      19     C     3.24137  3.24137  0.00000 -0.48274
      20     H     0.42065  0.42065  0.00000  0.15870
      21     H     0.42280  0.42280  0.00000  0.15441
      22     H     0.42229  0.42229  0.00000  0.15542
      23     H     0.41874  0.41874  0.00000  0.16251
      24     H     0.42003  0.42003  0.00000  0.15993

   Total alpha = 33.00000, Total beta = 33.00000, Total charge =  0.00000
