                              Psi4 1.0.54 Driver

  ==> Input File <==

--------------------------------------------------------------------------
set {
	reference rhf
	basis cc-pvtz
}

set_num_threads( 4 )
memory 2 gb

molecule MOL {
0 1

O	 -2.374409	 1.338660	 -0.336961
C	 -2.104891	 0.204655	 -0.107126
C	 -0.881910	 -0.448129	 -0.720509
C	 -2.949910	 -0.638219	 0.818225
C	 0.407760	 0.123484	 -0.118136
H	 -0.904258	 -0.250889	 -1.784796
H	 -0.914111	 -1.522215	 -0.571618
C	 1.659886	 -0.504112	 -0.727078
H	 0.407938	 1.195339	 -0.270956
H	 0.413899	 -0.039668	 0.956872
C	 2.976112	 -0.012882	 -0.121976
H	 1.666511	 -0.319166	 -1.798400
H	 1.604523	 -1.582364	 -0.604971
C	 3.288626	 1.458232	 -0.384727
H	 3.782669	 -0.617573	 -0.524619
H	 2.968294	 -0.194914	 0.949536
H	 3.297154	 1.670107	 -1.448976
H	 4.263301	 1.719342	 0.011000
H	 2.563471	 2.117027	 0.077248
H	 -3.440322	 -1.417144	 0.243099
H	 -3.694377	 -0.025850	 1.303346
H	 -2.331085	 -1.129829	 1.560495

	symmetry c1
}
set optking {
	frozen_dihedral = ("
		6 3 2 1
	")
}

ee,wfn = optimize('scf', return_wfn=True)
oeprop( wfn, 'DIPOLE', 'QUADRUPOLE', 'MULLIKEN_CHARGES')
f=open( 'psi4out.xyz', 'w' )
f.write( "22  " )
f.write( str(ee) + "\n" )
f.write( MOL.save_string_xyz() )
f.close()
--------------------------------------------------------------------------

    Molecular point group: c1
  Charge       = 0
  Multiplicity = 1
  Basis Set: CC-PVTZ
  Basis Set:
  @DF-RHF Final Energy:  -348.22337098124569
    Total Energy =                       -348.2233709812455800
    Molecular point group: c1
  Basis Set: CC-PVTZ
  Basis Set:
  Basis Set: CC-PVTZ
  Basis Set:
  @DF-RHF Final Energy:  -348.22335717366309
    Total Energy =                       -348.2233571736632030
  Basis Set: CC-PVTZ
  Basis Set:
  Basis Set: CC-PVTZ
  Basis Set:
  @DF-RHF Final Energy:  -348.22334826186551
    Total Energy =                       -348.2233482618656240
  Basis Set: CC-PVTZ
  Basis Set:
  Basis Set: CC-PVTZ
  Basis Set:
  @DF-RHF Final Energy:  -348.22341296443932
    Total Energy =                       -348.2234129644391487
  Basis Set: CC-PVTZ
  Basis Set:
  Basis Set: CC-PVTZ
  Basis Set:
  @DF-RHF Final Energy:  -348.22337338985204
    Total Energy =                       -348.2233733898518722
  Basis Set: CC-PVTZ
  Basis Set:
  Basis Set: CC-PVTZ
  Basis Set:
  @DF-RHF Final Energy:  -348.22343000168246
    Total Energy =                       -348.2234300016823454
  Basis Set: CC-PVTZ
  Basis Set:
  Basis Set: CC-PVTZ
  Basis Set:
  @DF-RHF Final Energy:  -348.22342890161576
    Total Energy =                       -348.2234289016157618
  Basis Set: CC-PVTZ
  Basis Set:
  Charge       = 0
  Multiplicity = 1
  Basis Set: CC-PVTZ
  Basis Set:

    Orbital Energies (a.u.)
    -----------------------

    Doubly Occupied:

       1A    -20.536758     2A    -11.319717     3A    -11.227837
       4A    -11.227298     5A    -11.224978     6A    -11.219214
       7A    -11.217804     8A    -11.208181     9A     -1.397210
      10A     -1.095667    11A     -1.044693    12A     -1.001228
      13A     -0.937889    14A     -0.857160    15A     -0.785738
      16A     -0.733949    17A     -0.663727    18A     -0.646365
      19A     -0.625822    20A     -0.623353    21A     -0.597962
      22A     -0.583249    23A     -0.564536    24A     -0.543847
      25A     -0.534146    26A     -0.517551    27A     -0.500034
      28A     -0.488516    29A     -0.470307    30A     -0.463516
      31A     -0.460624    32A     -0.398733

  @DF-RHF Final Energy:  -348.22343079210873

   => Energetics <=

    Nuclear Repulsion Energy =            373.5256504507109412
    One-Electron Energy =               -1212.0629395097635097
    Two-Electron Energy =                 490.3138582669437255
    DFT Exchange-Correlation Energy =       0.0000000000000000
    Empirical Dispersion Energy =           0.0000000000000000
    PCM Polarization Energy =               0.0000000000000000
    EFP Energy =                            0.0000000000000000
    Total Energy =                       -348.2234307921088430
    Molecular point group: c1
  Basis Set: CC-PVTZ
  Basis Set:

  -Total Gradient:
     Atom            X                  Y                   Z
    ------   -----------------  -----------------  -----------------
       1        0.000110993421     0.000051035476     0.000121208838
       2       -0.000186781794    -0.000105870233    -0.000190084870
       3        0.000176145753     0.000215211384     0.000111175194
       4        0.000022847818     0.000004832852     0.000029050038
       5       -0.000002024419    -0.000002137278    -0.000002452507
       6       -0.000096104474    -0.000148071598    -0.000027136247
       7       -0.000001632515     0.000007799057    -0.000008175062
       8       -0.000005552323    -0.000004353445    -0.000003773615
       9       -0.000005540438    -0.000016025261     0.000000146246
      10       -0.000005560713     0.000003710004    -0.000004219787
      11       -0.000015025766    -0.000000552526    -0.000003456630
      12        0.000001869985    -0.000000205798    -0.000001354796
      13       -0.000003559874    -0.000000559817    -0.000000497800
      14        0.000005957851     0.000010826172     0.000000920247
      15        0.000000566148    -0.000004936799    -0.000004186566
      16        0.000001947041     0.000000330796     0.000005943795
      17        0.000000698222    -0.000003248986     0.000006630385
      18       -0.000003115261     0.000003553955    -0.000002176003
      19        0.000000645669    -0.000000231785    -0.000001575684
      20       -0.000000381285     0.000011828809    -0.000002918167
      21        0.000008793698    -0.000008145987    -0.000023201188
      22       -0.000005186748    -0.000014788994     0.000000134180

  **** Optimization is complete! (in 8 steps) ****
    Final optimized geometry and variables:
    Molecular point group: c1

    Geometry (in Angstrom), charge = 0, multiplicity = 1:

    O           -2.372815274427     1.139379241602    -0.138513807262
    C           -2.110397406661     0.006319125491     0.103450452638
    C           -0.887343080489    -0.655982722334    -0.503806462131
    C           -2.961739225647    -0.823977926253     1.032471507627
    C            0.405052563993    -0.085953792315     0.090310126717
    H           -0.912397945692    -0.464578004517    -1.570450461544
    H           -0.924333072797    -1.729604457937    -0.357070497484
    C            1.653978113055    -0.709448279706    -0.528657675294
    H            0.400402019321     0.985953671152    -0.055791750023
    H            0.415611531998    -0.255341567928     1.164695737805
    C            2.972536456623    -0.225045456677     0.076761072411
    H            1.657615197933    -0.514010636759    -1.598313325359
    H            1.598867576785    -1.788953643698    -0.417183828426
    C            3.284397984541     1.248592705551    -0.172256733601
    H            3.777663405809    -0.826015201638    -0.334348179243
    H            2.967870270464    -0.417572853407     1.146444696202
    H            3.291664326918     1.470574126213    -1.234474234165
    H            4.259493790161     1.506192146164     0.224775386085
    H            2.559409819336     1.902515827111     0.296688536327
    H           -3.392452677440    -1.655113826967     0.483506973145
    H           -3.749259695380    -0.220574934646     1.456915567765
    H           -2.350122250546    -1.246334413641     1.822808715228

  Mulliken Charges: (a.u.)
   Center  Symbol    Alpha    Beta     Spin     Total
       1     O     4.17759  4.17759  0.00000 -0.35517
       2     C     2.85852  2.85852  0.00000  0.28297
       3     C     3.09997  3.09997  0.00000 -0.19993
       4     C     3.15418  3.15418  0.00000 -0.30835
       5     C     3.10004  3.10004  0.00000 -0.20008
       6     H     0.44043  0.44043  0.00000  0.11913
       7     H     0.44816  0.44816  0.00000  0.10369
       8     C     3.09679  3.09679  0.00000 -0.19358
       9     H     0.43719  0.43719  0.00000  0.12561
      10     H     0.45338  0.45338  0.00000  0.09323
      11     C     3.09072  3.09072  0.00000 -0.18144
      12     H     0.45168  0.45168  0.00000  0.09663
      13     H     0.44920  0.44920  0.00000  0.10160
      14     C     3.15181  3.15181  0.00000 -0.30363
      15     H     0.44791  0.44791  0.00000  0.10418
      16     H     0.45466  0.45466  0.00000  0.09068
      17     H     0.45409  0.45409  0.00000  0.09183
      18     H     0.44644  0.44644  0.00000  0.10713
      19     H     0.45187  0.45187  0.00000  0.09626
      20     H     0.44855  0.44855  0.00000  0.10291
      21     H     0.43631  0.43631  0.00000  0.12737
      22     H     0.45051  0.45051  0.00000  0.09898

   Total alpha = 32.00000, Total beta = 32.00000, Total charge =  0.00000

*** Psi4 exiting successfully. Buy a developer a beer!
