  ==> Input File <==

--------------------------------------------------------------------------
set {
	reference rhf
	basis 6-31G*
}

set_num_threads( 1 )
memory 2 gb

molecule MOL {
0 1

H	 -3.420663	 1.227371	 -1.044276
O	 -3.452007	 0.283848	 -0.965577
C	 -3.181085	 -0.079926	 0.364119
C	 -1.765924	 0.277073	 0.805136
H	 -3.327791	 -1.152017	 0.410903
H	 -3.905698	 0.375695	 1.036898
C	 -1.713167	 1.415463	 1.824843
H	 -1.289297	 -0.611118	 1.220955
H	 -1.189218	 0.544457	 -0.078683
C	 -0.290498	 1.750501	 2.277548
H	 -2.319157	 1.151091	 2.686001
H	 -2.171542	 2.302121	 1.389960
C	 -0.245281	 2.894835	 3.293688
H	 0.164839	 0.858782	 2.701724
H	 0.311993	 2.017889	 1.410304
C	 1.165141	 3.326895	 3.711049
H	 -0.810183	 2.611000	 4.180266
H	 -0.758697	 3.755910	 2.870875
C	 1.949709	 2.269536	 4.490055
H	 1.083891	 4.221490	 4.323737
H	 1.729138	 3.616153	 2.826493
H	 1.403693	 1.951654	 5.374338
H	 2.906843	 2.663542	 4.817912
H	 2.149943	 1.387952	 3.890156

	symmetry c1
}
set optking {
	frozen_dihedral = ("
		20 16 13 17,
		17 13 10 7,
		13 10 7 11,
		11 7 4 3,
		1 2 3 5
	")
}

ee = energy('scf')
oeprop('DIPOLE', 'QUADRUPOLE', 'MULLIKEN_CHARGES')
f=open( 'psi4out.xyz', 'w' )
f.write( "24  " )
f.write( str(ee) + "\n" )
f.write( MOL.save_string_xyz() )
f.close()
--------------------------------------------------------------------------

    Molecular point group: c1

    Geometry (in Angstrom), charge = 0, multiplicity = 1:

       Center              X                  Y                   Z               Mass
    ------------   -----------------  -----------------  -----------------  -----------------
           H         -2.441473422738    -0.270433972209    -2.973898492365     1.007825032070
           O         -2.472817422738    -1.213956972209    -2.895199492365    15.994914619560
           C         -2.201895422738    -1.577730972209    -1.565503492365    12.000000000000
           C         -0.786734422738    -1.220731972209    -1.124486492365    12.000000000000
           H         -2.348601422738    -2.649821972209    -1.518719492365     1.007825032070
           H         -2.926508422738    -1.122109972209    -0.892724492365     1.007825032070
           C         -0.733977422738    -0.082341972209    -0.104779492365    12.000000000000
           H         -0.310107422738    -2.108922972209    -0.708667492365     1.007825032070
           H         -0.210028422738    -0.953347972209    -2.008305492365     1.007825032070
           C          0.688691577262     0.252696027791     0.347925507635    12.000000000000
           H         -1.339967422738    -0.346713972209     0.756378507635     1.007825032070
           H         -1.192352422738     0.804316027791    -0.539662492365     1.007825032070
           C          0.733908577262     1.397030027791     1.364065507635    12.000000000000
           H          1.144028577262    -0.639022972209     0.772101507635     1.007825032070
           H          1.291182577262     0.520084027791    -0.519318492365     1.007825032070
           C          2.144330577262     1.829090027791     1.781426507635    12.000000000000
           H          0.169006577262     1.113195027791     2.250643507635     1.007825032070
           H          0.220492577262     2.258105027791     0.941252507635     1.007825032070
           C          2.928898577262     0.771731027791     2.560432507635    12.000000000000
           H          2.063080577262     2.723685027791     2.394114507635     1.007825032070
           H          2.708327577262     2.118348027791     0.896870507635     1.007825032070
           H          2.382882577262     0.453849027791     3.444715507635     1.007825032070
           H          3.886032577262     1.165737027791     2.888289507635     1.007825032070
           H          3.129132577262    -0.109852972209     1.960533507635     1.007825032070

  Charge       = 0
  Multiplicity = 1
  Basis Set: 6-31G*
  Basis Set:

    Orbital Energies (a.u.)
    -----------------------

    Doubly Occupied:

       1A    -20.551059     2A    -11.265520     3A    -11.220369
       4A    -11.217112     5A    -11.216782     6A    -11.215742
       7A    -11.214343     8A    -11.209623     9A     -1.358026
      10A     -1.093357    11A     -1.051587    12A     -0.987111
      13A     -0.916592    14A     -0.852026    15A     -0.803275
      16A     -0.780407    17A     -0.687603    18A     -0.657646
      19A     -0.623397    20A     -0.615427    21A     -0.597202
      22A     -0.585870    23A     -0.559648    24A     -0.537222
      25A     -0.533551    26A     -0.507083    27A     -0.493015
      28A     -0.485527    29A     -0.475357    30A     -0.462916
      31A     -0.457440    32A     -0.441514    33A     -0.422374

  @DF-RHF Final Energy:  -349.24139520286758

   => Energetics <=

    Nuclear Repulsion Energy =            381.6401290017108749
    One-Electron Energy =               -1229.5714027668773269
    Two-Electron Energy =                 498.6898785622984178
    DFT Exchange-Correlation Energy =       0.0000000000000000
    Empirical Dispersion Energy =           0.0000000000000000
    PCM Polarization Energy =               0.0000000000000000
    EFP Energy =                            0.0000000000000000
    Total Energy =                       -349.2413952028680342

  Mulliken Charges: (a.u.)
   Center  Symbol    Alpha    Beta     Spin     Total
       1     H     0.28394  0.28394  0.00000  0.43213
       2     O     4.36962  4.36962  0.00000 -0.73924
       3     C     2.99494  2.99494  0.00000  0.01012
       4     C     3.17495  3.17495  0.00000 -0.34990
       5     H     0.41444  0.41444  0.00000  0.17112
       6     H     0.42890  0.42890  0.00000  0.14220
       7     C     3.15684  3.15684  0.00000 -0.31368
       8     H     0.41916  0.41916  0.00000  0.16168
       9     H     0.41213  0.41213  0.00000  0.17575
      10     C     3.15388  3.15388  0.00000 -0.30776
      11     H     0.42128  0.42128  0.00000  0.15743
      12     H     0.42801  0.42801  0.00000  0.14397
      13     C     3.15246  3.15246  0.00000 -0.30493
      14     H     0.42037  0.42037  0.00000  0.15925
      15     H     0.42324  0.42324  0.00000  0.15351
      16     C     3.15243  3.15243  0.00000 -0.30486
      17     H     0.42413  0.42413  0.00000  0.15174
      18     H     0.42284  0.42284  0.00000  0.15432
      19     C     3.24132  3.24132  0.00000 -0.48264
      20     H     0.42081  0.42081  0.00000  0.15839
      21     H     0.42320  0.42320  0.00000  0.15360
      22     H     0.42226  0.42226  0.00000  0.15547
      23     H     0.41891  0.41891  0.00000  0.16219
      24     H     0.41993  0.41993  0.00000  0.16013

   Total alpha = 33.00000, Total beta = 33.00000, Total charge =  0.00000
