                              Psi4 1.0.54 Driver

  ==> Input File <==

--------------------------------------------------------------------------
set {
	reference rhf
	basis cc-pvtz
}

set_num_threads( 4 )
memory 2 gb

molecule MOL {
0 1

O	 1.436442	 0.531889	 0.993571
C	 0.860843	 0.273204	 -0.013120
C	 -0.623368	 -0.117453	 -0.005652
C	 1.600805	 0.320767	 -1.335322
C	 -0.892588	 -1.253841	 -1.002900
C	 -1.473463	 1.100646	 -0.372896
C	 -0.981836	 -0.579025	 1.418506
H	 -0.609333	 -0.970024	 -2.010649
H	 -1.950451	 -1.487353	 -1.013175
H	 -0.360848	 -2.161259	 -0.746463
H	 -1.232203	 1.461623	 -1.364827
H	 -2.524364	 0.834451	 -0.354500
H	 -1.312381	 1.914833	 0.318657
H	 -2.035706	 -0.826342	 1.468082
H	 -0.425078	 -1.458934	 1.716857
H	 -0.788494	 0.205047	 2.140903
H	 1.351866	 1.242287	 -1.849709
H	 2.661959	 0.308961	 -1.139667
H	 1.336231	 -0.499072	 -1.988848

	symmetry c1
}
set optking {
	frozen_dihedral = ("
		1 2 3 5
	")
}

ee,wfn = optimize('scf', return_wfn=True)
oeprop( wfn, 'DIPOLE', 'QUADRUPOLE', 'MULLIKEN_CHARGES')
f=open( 'psi4out.xyz', 'w' )
f.write( "19  " )
f.write( str(ee) + "\n" )
f.write( MOL.save_string_xyz() )
f.close()
--------------------------------------------------------------------------

    Molecular point group: c1
  Charge       = 0
  Multiplicity = 1
  Basis Set: CC-PVTZ
  Basis Set:
  @DF-RHF Final Energy:  -309.17119824666253
    Total Energy =                       -309.1711982466629820
    Molecular point group: c1
  Basis Set: CC-PVTZ
  Basis Set:
  Basis Set: CC-PVTZ
  Basis Set:
  @DF-RHF Final Energy:  -309.17177870799782
    Total Energy =                       -309.1717787079978734
  Basis Set: CC-PVTZ
  Basis Set:
  Basis Set: CC-PVTZ
  Basis Set:
  @DF-RHF Final Energy:  -309.17181523120911
    Total Energy =                       -309.1718152312090524
  Basis Set: CC-PVTZ
  Basis Set:
  Basis Set: CC-PVTZ
  Basis Set:
  @DF-RHF Final Energy:  -309.17312067823929
    Total Energy =                       -309.1731206782392292
  Basis Set: CC-PVTZ
  Basis Set:
  @DF-RHF Final Energy:  -309.17146212402412
    Total Energy =                       -309.1714621240242877
  @DF-RHF Final Energy:  -309.17343898398616
    Total Energy =                       -309.1734389839861024
  @DF-RHF Final Energy:  -309.17399756846584
    Total Energy =                       -309.1739975684663477
  @DF-RHF Final Energy:  -309.17422238755796
    Total Energy =                       -309.1742223875580748
  Basis Set: CC-PVTZ
  Basis Set:
  @DF-RHF Final Energy:  -309.17425531028834
    Total Energy =                       -309.1742553102883448
  Basis Set: CC-PVTZ
  Basis Set:
  Basis Set: CC-PVTZ
  Basis Set:
  @DF-RHF Final Energy:  -309.17426245330387
    Total Energy =                       -309.1742624533034700
  Basis Set: CC-PVTZ
  Basis Set:
  Basis Set: CC-PVTZ
  Basis Set:
  @DF-RHF Final Energy:  -309.17426756767759
    Total Energy =                       -309.1742675676775889
  Basis Set: CC-PVTZ
  Basis Set:
  Charge       = 0
  Multiplicity = 1
  Basis Set: CC-PVTZ
  Basis Set:

    Orbital Energies (a.u.)
    -----------------------

    Doubly Occupied:

       1A    -20.537281     2A    -11.317832     3A    -11.245695
       4A    -11.225292     5A    -11.222233     6A    -11.221705
       7A    -11.206734     8A     -1.398396     9A     -1.110850
      10A     -1.003311    11A     -0.947505    12A     -0.936143
      13A     -0.835686    14A     -0.705471    15A     -0.666768
      16A     -0.634134    17A     -0.621906    18A     -0.598367
      19A     -0.592347    20A     -0.566517    21A     -0.546640
      22A     -0.545787    23A     -0.524844    24A     -0.514573
      25A     -0.502240    26A     -0.473047    27A     -0.467616
      28A     -0.394632

  @DF-RHF Final Energy:  -309.17426785757522

   => Energetics <=

    Nuclear Repulsion Energy =            326.9275915709026208
    One-Electron Energy =               -1067.0766130139468260
    Two-Electron Energy =                 430.9747535854688749
    DFT Exchange-Correlation Energy =       0.0000000000000000
    Empirical Dispersion Energy =           0.0000000000000000
    PCM Polarization Energy =               0.0000000000000000
    EFP Energy =                            0.0000000000000000
    Total Energy =                       -309.1742678575752734
    Molecular point group: c1
  Basis Set: CC-PVTZ
  Basis Set:

  -Total Gradient:
     Atom            X                  Y                   Z
    ------   -----------------  -----------------  -----------------
       1       -0.000080611701     0.000351242657    -0.000047796642
       2        0.000124661347    -0.000388647069     0.000015585207
       3        0.000042691697    -0.000122241741     0.000234451290
       4        0.000016254717    -0.000018565087    -0.000003501752
       5       -0.000056956903     0.000170936997    -0.000187155571
       6       -0.000013259224     0.000021419322    -0.000010828849
       7       -0.000006879737     0.000007477345    -0.000020692937
       8        0.000006811452     0.000009936017     0.000013592767
       9       -0.000001064742    -0.000004180671    -0.000002973165
      10        0.000004364429    -0.000006260287    -0.000001787558
      11       -0.000007513013    -0.000009824573     0.000022469852
      12        0.000012430527     0.000012376175    -0.000004037569
      13       -0.000014292312    -0.000005870190    -0.000001071820
      14        0.000000904232    -0.000000429737    -0.000003422049
      15        0.000006566430    -0.000001910496    -0.000002533133
      16        0.000001252242     0.000002724264    -0.000002623840
      17       -0.000000277639    -0.000004479192     0.000011048965
      18       -0.000034935177    -0.000012499229     0.000006482378
      19       -0.000000146624    -0.000001204504    -0.000015205574

  **** Optimization is complete! (in 12 steps) ****
    Final optimized geometry and variables:
    Molecular point group: c1

    Geometry (in Angstrom), charge = 0, multiplicity = 1:

    O            1.428907442228     0.502276463265     1.065151348688
    C            0.876182851559     0.214964988986     0.053355187936
    C           -0.611728147741    -0.162725817359     0.039589831220
    C            1.639656287274     0.241270687810    -1.255509656828
    C           -0.880487092268    -1.329097604903    -0.921751876158
    C           -1.396723222923     1.079482135774    -0.420444679311
    C           -1.053701003850    -0.548436191730     1.452947403889
    H           -0.646437350187    -1.079118673212    -1.948597864356
    H           -1.928899277135    -1.599269634612    -0.882832418858
    H           -0.305585069920    -2.207442917537    -0.648919928218
    H           -1.127587953729     1.384068155970    -1.424777709672
    H           -2.458679723328     0.863676700538    -0.417249409254
    H           -1.222601934622     1.916165295527     0.245188377456
    H           -2.109776811872    -0.793947189132     1.453984030108
    H           -0.505514458847    -1.410676750436     1.812414577277
    H           -0.886710533154     0.259133188242     2.150404326343
    H            1.071953479481     0.702784346490    -2.052275265778
    H            2.565670946390     0.774640460638    -1.106458808641
    H            1.865037716908    -0.774012154234    -1.561838175606

  Mulliken Charges: (a.u.)
   Center  Symbol    Alpha    Beta     Spin     Total
       1     O     4.17623  4.17623  0.00000 -0.35245
       2     C     2.85214  2.85214  0.00000  0.29572
       3     C     3.00830  3.00830  0.00000 -0.01660
       4     C     3.16385  3.16385  0.00000 -0.32771
       5     C     3.16445  3.16445  0.00000 -0.32890
       6     C     3.15795  3.15795  0.00000 -0.31590
       7     C     3.15056  3.15056  0.00000 -0.30111
       8     H     0.44576  0.44576  0.00000  0.10848
       9     H     0.44275  0.44275  0.00000  0.11450
      10     H     0.44327  0.44327  0.00000  0.11345
      11     H     0.44635  0.44635  0.00000  0.10730
      12     H     0.44570  0.44570  0.00000  0.10859
      13     H     0.44110  0.44110  0.00000  0.11779
      14     H     0.45189  0.45189  0.00000  0.09623
      15     H     0.44735  0.44735  0.00000  0.10530
      16     H     0.43832  0.43832  0.00000  0.12335
      17     H     0.44660  0.44660  0.00000  0.10681
      18     H     0.43178  0.43178  0.00000  0.13645
      19     H     0.44565  0.44565  0.00000  0.10870

   Total alpha = 28.00000, Total beta = 28.00000, Total charge = -0.00000

*** Psi4 exiting successfully. Buy a developer a beer!
