  ==> Input File <==

--------------------------------------------------------------------------
set {
	reference rhf
	basis 6-31G*
}

set_num_threads( 4 )
memory 2 gb

molecule MOL {
0 1

H	 1.991797	 3.029220	 -2.575491
N	 1.230767	 2.379061	 -2.616378
C	 0.929306	 1.853611	 -1.292539
H	 1.514341	 1.639912	 -3.231256
C	 -0.290631	 0.939832	 -1.342697
H	 0.718488	 2.697760	 -0.643057
H	 1.767503	 1.314886	 -0.843541
C	 -0.679275	 0.379305	 0.025956
H	 -1.119485	 1.497426	 -1.769222
H	 -0.089652	 0.115172	 -2.025982
C	 -1.903357	 -0.536963	 -0.023547
H	 -0.877381	 1.203019	 0.710134
H	 0.161394	 -0.170195	 0.446875
C	 -3.225172	 0.228290	 0.028445
H	 -1.867824	 -1.134999	 -0.931459
H	 -1.860449	 -1.239604	 0.805977
H	 -3.313397	 0.915643	 -0.808262
H	 -4.073500	 -0.448134	 -0.008893
H	 -3.306061	 0.809945	 0.942516

	symmetry c1
}
set optking {
	frozen_dihedral = ("
		12 8 11 15
	")
}

ee = optimize('scf')
oeprop('DIPOLE', 'QUADRUPOLE', 'MULLIKEN_CHARGES')
f=open( 'psi4out.xyz', 'w' )
f.write( "19  " )
f.write( str(ee) + "\n" )
f.write( MOL.save_string_xyz() )
f.close()
--------------------------------------------------------------------------

    Molecular point group: c1
  Charge       = 0
  Multiplicity = 1
  Basis Set: 6-31G*
  Basis Set:
  @DF-RHF Final Energy:  -251.34900297643458
    Total Energy =                       -251.3490029764348037
    Molecular point group: c1
  Basis Set: 6-31G*
  Basis Set:
  Basis Set: 6-31G*
  Basis Set:
  @DF-RHF Final Energy:  -251.34914107797073
    Total Energy =                       -251.3491410779707280
  Basis Set: 6-31G*
  Basis Set:
  Basis Set: 6-31G*
  Basis Set:
  @DF-RHF Final Energy:  -251.34919513490013
    Total Energy =                       -251.3491951349002420
  Basis Set: 6-31G*
  Basis Set:
  Charge       = 0
  Multiplicity = 1
  Basis Set: 6-31G*
  Basis Set:

    Orbital Energies (a.u.)
    -----------------------

    Doubly Occupied:

       1A    -15.532527     2A    -11.239678     3A    -11.213973
       4A    -11.212763     5A    -11.209314     6A    -11.206236
       7A     -1.176613     8A     -1.071997     9A     -0.995435
      10A     -0.901514    11A     -0.819292    12A     -0.781927
      13A     -0.663843    14A     -0.637886    15A     -0.607490
      16A     -0.595966    17A     -0.584939    18A     -0.535915
      19A     -0.516479    20A     -0.510595    21A     -0.484965
      22A     -0.462353    23A     -0.455131    24A     -0.449304
      25A     -0.381086

  @DF-RHF Final Energy:  -251.34919591903065

   => Energetics <=

    Nuclear Repulsion Energy =            248.2918399401644365
    One-Electron Energy =                -830.7876308503091423
    Two-Electron Energy =                 331.1465949911141138
    DFT Exchange-Correlation Energy =       0.0000000000000000
    Empirical Dispersion Energy =           0.0000000000000000
    PCM Polarization Energy =               0.0000000000000000
    EFP Energy =                            0.0000000000000000
    Total Energy =                       -251.3491959190305920
    Molecular point group: c1
  Basis Set: 6-31G*
  Basis Set:

  -Total Gradient:
     Atom            X                  Y                   Z
    ------   -----------------  -----------------  -----------------
       1       -0.000007206178     0.000015121621    -0.000001388318
       2       -0.000041338586     0.000018710578     0.000027670847
       3        0.000025352886    -0.000030538148     0.000031044117
       4       -0.000008702921    -0.000007281876     0.000016037437
       5       -0.000035128560    -0.000067091589    -0.000053515279
       6        0.000024590064     0.000013304792     0.000007336269
       7        0.000020094960     0.000008607597    -0.000006552866
       8        0.000892453360    -0.001309699714     0.002240801220
       9       -0.000011061619    -0.000043662629    -0.000034207193
      10        0.000032501391     0.000002807519    -0.000028781414
      11        0.001417038565    -0.002091651825     0.001162114395
      12       -0.001023590099     0.001452973846    -0.001987695531
      13       -0.000060449092    -0.000044066377    -0.000059813821
      14        0.000054238227     0.000081057649     0.000006227806
      15       -0.001299169132     0.001943925628    -0.001331459911
      16        0.000034729001     0.000062867640     0.000006743655
      17       -0.000019306722     0.000003218526     0.000001300292
      18        0.000027551899    -0.000027167067    -0.000008260561
      19       -0.000022597445     0.000018563828     0.000012398858

  **** Optimization is complete! (in 4 steps) ****
    Final optimized geometry and variables:
    Molecular point group: c1

    Geometry (in Angstrom), charge = 0, multiplicity = 1:

    H            2.603633672905     2.157880527878    -1.677686270711
    N            1.856655225066     1.491826367717    -1.721858106134
    C            1.553762383791     0.967400152017    -0.397899050517
    H            2.161145968906     0.755374130554    -2.329943612747
    C            0.352860506342     0.029102341739    -0.454197617247
    H            1.320351921819     1.810680473810     0.245028497412
    H            2.398561615174     0.448113003493     0.061676924276
    C           -0.029194460077    -0.537195072373     0.916667707861
    H           -0.480016086144     0.570013147331    -0.892578084240
    H            0.576438870025    -0.794597618975    -1.131527276026
    C           -1.276091717379    -1.434243078699     0.882061184416
    H           -0.206224164376     0.293491241994     1.597791180010
    H            0.813136927176    -1.097307338655     1.315314446316
    C           -2.590410454945    -0.650756348261     0.921043166522
    H           -1.259523101219    -2.037739397191    -0.022724347815
    H           -1.253517220354    -2.123856940188     1.721143616387
    H           -2.668535116822     0.043254941960     0.089909535423
    H           -3.444187233970    -1.319712820746     0.870046998940
    H           -2.674723789293    -0.076715241014     1.839557113966

  Mulliken Charges: (a.u.)
   Center  Symbol    Alpha    Beta     Spin     Total
       1     H     0.33249  0.33249  0.00000  0.33501
       2     N     3.92191  3.92191  0.00000 -0.84383
       3     C     3.06012  3.06012  0.00000 -0.12025
       4     H     0.33535  0.33535  0.00000  0.32930
       5     C     3.15337  3.15337  0.00000 -0.30674
       6     H     0.42085  0.42085  0.00000  0.15829
       7     H     0.43485  0.43485  0.00000  0.13030
       8     C     3.15744  3.15744  0.00000 -0.31488
       9     H     0.41214  0.41214  0.00000  0.17573
      10     H     0.42760  0.42760  0.00000  0.14479
      11     C     3.15310  3.15310  0.00000 -0.30620
      12     H     0.42332  0.42332  0.00000  0.15336
      13     H     0.42212  0.42212  0.00000  0.15576
      14     C     3.24064  3.24064  0.00000 -0.48127
      15     H     0.42248  0.42248  0.00000  0.15504
      16     H     0.42067  0.42067  0.00000  0.15865
      17     H     0.41947  0.41947  0.00000  0.16106
      18     H     0.41997  0.41997  0.00000  0.16006
      19     H     0.42210  0.42210  0.00000  0.15580

   Total alpha = 25.00000, Total beta = 25.00000, Total charge =  0.00000
