                              Psi4 1.0.54 Driver

  ==> Input File <==

--------------------------------------------------------------------------
set {
	reference rhf
	basis cc-pvtz
}

set_num_threads( 4 )
memory 2 gb

molecule MOL {
0 1

H	 5.269878	 0.195679	 1.068175
C	 4.673900	 -0.208485	 0.258034
C	 3.190199	 -0.204714	 0.610086
H	 4.865136	 0.391893	 -0.624684
H	 5.027838	 -1.214511	 0.056939
C	 2.319208	 -0.778154	 -0.505491
H	 2.876954	 0.809861	 0.827925
H	 3.035335	 -0.782733	 1.518235
C	 1.416358	 0.253252	 -1.174781
H	 2.949197	 -1.236325	 -1.257836
H	 1.692318	 -1.565053	 -0.096123
C	 2.141208	 1.248210	 -2.065362
H	 0.691421	 -0.248730	 -1.810585
H	 0.833506	 0.796895	 -0.437045
C	 1.401879	 2.517416	 -2.442032
O	 3.238062	 1.037671	 -2.472620
C	 0.142492	 2.272462	 -3.280067
H	 2.098016	 3.139401	 -2.988263
H	 1.130825	 3.040427	 -1.528695
C	 -0.524073	 3.572264	 -3.722644
H	 0.405857	 1.687531	 -4.157046
H	 -0.572181	 1.681749	 -2.715885
C	 -1.774914	 3.342764	 -4.563984
H	 0.188595	 4.164550	 -4.288660
H	 -0.781092	 4.159665	 -2.845447
H	 -1.543521	 2.784248	 -5.464649
H	 -2.522205	 2.783105	 -4.011354
H	 -2.221866	 4.283212	 -4.864157

	symmetry c1
}
set optking {
	frozen_dihedral = ("
		10 6 3 2
	")
}

ee,wfn = optimize('scf', return_wfn=True)
oeprop( wfn, 'DIPOLE', 'QUADRUPOLE', 'MULLIKEN_CHARGES')
f=open( 'psi4out.xyz', 'w' )
f.write( "28  " )
f.write( str(ee) + "\n" )
f.write( MOL.save_string_xyz() )
f.close()
--------------------------------------------------------------------------

    Molecular point group: c1
  Charge       = 0
  Multiplicity = 1
  Basis Set: CC-PVTZ
  Basis Set:
  @DF-RHF Final Energy:  -426.31337646670818
    Total Energy =                       -426.3133764667081778
    Molecular point group: c1
  Basis Set: CC-PVTZ
  Basis Set:
  Basis Set: CC-PVTZ
  Basis Set:
  @DF-RHF Final Energy:  -426.31392589713971
    Total Energy =                       -426.3139258971397112
  Basis Set: CC-PVTZ
  Basis Set:
  Basis Set: CC-PVTZ
  Basis Set:
  @DF-RHF Final Energy:  -426.31393046195865
    Total Energy =                       -426.3139304619594441
  Basis Set: CC-PVTZ
  Basis Set:
  Basis Set: CC-PVTZ
  Basis Set:
  @DF-RHF Final Energy:  -426.31400664262821
    Total Energy =                       -426.3140066426284420
  Basis Set: CC-PVTZ
  Basis Set:
  @DF-RHF Final Energy:  -426.31405096539947
    Total Energy =                       -426.3140509653992467
  Basis Set: CC-PVTZ
  Basis Set:
  @DF-RHF Final Energy:  -426.31405775976191
    Total Energy =                       -426.3140577597621359
  Basis Set: CC-PVTZ
  Basis Set:
  Basis Set: CC-PVTZ
  Basis Set:
  @DF-RHF Final Energy:  -426.31405327740777
    Total Energy =                       -426.3140532774077656
  Basis Set: CC-PVTZ
  Basis Set:
  Basis Set: CC-PVTZ
  Basis Set:
  @DF-RHF Final Energy:  -426.31405964330429
    Total Energy =                       -426.3140596433050860
  Basis Set: CC-PVTZ
  Basis Set:
  Charge       = 0
  Multiplicity = 1
  Basis Set: CC-PVTZ
  Basis Set:

    Orbital Energies (a.u.)
    -----------------------

    Doubly Occupied:

       1A    -20.537627     2A    -11.317213     3A    -11.230165
       4A    -11.228930     5A    -11.227329     6A    -11.224053
       7A    -11.215469     8A    -11.214430     9A    -11.211709
      10A    -11.195120    11A     -1.397497    12A     -1.096201
      13A     -1.075613    14A     -1.022538    15A     -0.989659
      16A     -0.907749    17A     -0.874504    18A     -0.809606
      19A     -0.797779    20A     -0.724577    21A     -0.669624
      22A     -0.652155    23A     -0.632382    24A     -0.625910
      25A     -0.603134    26A     -0.590812    27A     -0.578397
      28A     -0.566418    29A     -0.547557    30A     -0.530642
      31A     -0.523932    32A     -0.506661    33A     -0.502743
      34A     -0.485364    35A     -0.478651    36A     -0.476072
      37A     -0.467627    38A     -0.460293    39A     -0.454129
      40A     -0.394855

  @DF-RHF Final Energy:  -426.31405995135742

   => Energetics <=

    Nuclear Repulsion Energy =            537.3099542437562377
    One-Electron Energy =               -1643.1577660364653184
    Two-Electron Energy =                 679.5337518413516591
    DFT Exchange-Correlation Energy =       0.0000000000000000
    Empirical Dispersion Energy =           0.0000000000000000
    PCM Polarization Energy =               0.0000000000000000
    EFP Energy =                            0.0000000000000000
    Total Energy =                       -426.3140599513574216
    Molecular point group: c1
  Basis Set: CC-PVTZ
  Basis Set:

  -Total Gradient:
     Atom            X                  Y                   Z
    ------   -----------------  -----------------  -----------------
       1       -0.000003480921    -0.000002077044     0.000005196980
       2       -0.000054806737     0.000681535464    -0.000328418090
       3        0.000044199480    -0.001140630524     0.000513899190
       4       -0.000005755952    -0.000005631490     0.000008129280
       5        0.000000508023    -0.000001604766    -0.000000455488
       6        0.000084465113     0.001344258938    -0.000737795276
       7       -0.000000146298     0.000006022461     0.000001785405
       8        0.000002875547     0.000004577759    -0.000000633425
       9       -0.000004197769    -0.000015619983    -0.000022124306
      10       -0.000076175088    -0.000866041781     0.000497106778
      11        0.000001197927    -0.000000142521     0.000000229912
      12       -0.000010583981     0.000009475639     0.000022329355
      13       -0.000004929640     0.000004461941     0.000010982935
      14       -0.000004611280     0.000006607218     0.000004557758
      15       -0.000007119479    -0.000011476686    -0.000015622276
      16        0.000026117487    -0.000011230110     0.000031197684
      17        0.000010678993     0.000004074814     0.000007418853
      18        0.000003229909    -0.000004288546     0.000001834161
      19        0.000003654533     0.000004787825     0.000005379073
      20       -0.000006677176     0.000001128583    -0.000003455862
      21       -0.000002484885     0.000001245472    -0.000010788158
      22       -0.000003913362    -0.000003934903     0.000001147945
      23        0.000005989811    -0.000005429958     0.000006302608
      24        0.000005594931    -0.000001331830    -0.000001006958
      25        0.000001110307     0.000000305546     0.000006056094
      26        0.000000478442    -0.000001071007    -0.000003861108
      27       -0.000004233523    -0.000001792858     0.000001424132
      28       -0.000000984414     0.000003822348    -0.000000817199

  **** Optimization is complete! (in 9 steps) ****
    Final optimized geometry and variables:
    Molecular point group: c1

    Geometry (in Angstrom), charge = 0, multiplicity = 1:

    H            3.694472041762    -1.152779370038     3.023630185781
    C            3.107961168119    -1.560864171429     2.207506996985
    C            1.617686736893    -1.517270333639     2.535723232303
    H            3.327095744258    -0.996623542404     1.311795033535
    H            3.436261661354    -2.582700222423     2.046357491197
    C            0.706405562078    -2.081737090802     1.423841683474
    H            1.335245123477    -0.491431000129     2.755299275638
    H            1.445802544145    -2.070861774144     3.452608130589
    C           -0.201154873299    -1.053453250083     0.753550677473
    H            1.306423018744    -2.573847404799     0.669138898671
    H            0.062514100758    -2.846669327400     1.843917023189
    C            0.506613555385    -0.027833801206    -0.113189636378
    H           -0.910418115963    -1.560321613055     0.103569255568
    H           -0.802321158083    -0.533945185426     1.493813502427
    C           -0.262596697038     1.226143231122    -0.481527257476
    O            1.613006108060    -0.202358209903    -0.511973729439
    C           -1.501796511598     0.959056549680    -1.342650952474
    H            0.423842972484     1.875458356248    -1.007823941510
    H           -0.562096258688     1.727486348436     0.434995551884
    C           -2.197827565696     2.246533759631    -1.775600996395
    H           -1.208737082060     0.395628693443    -2.224233498875
    H           -2.207994575217     0.339885400459    -0.798730108344
    C           -3.431454335028     1.995145361669    -2.635791297533
    H           -1.494591481903     2.865800373706    -2.324267508033
    H           -2.481560773813     2.814186265371    -0.893662716121
    H           -3.173659494675     1.456897892227    -3.541603367403
    H           -4.169488671297     1.406764839328    -2.100849633232
    H           -3.900718420707     2.927303650807    -2.927627181118

  Mulliken Charges: (a.u.)
   Center  Symbol    Alpha    Beta     Spin     Total
       1     H     0.45408  0.45408  0.00000  0.09183
       2     C     3.14611  3.14611  0.00000 -0.29222
       3     C     3.09323  3.09323  0.00000 -0.18646
       4     H     0.44032  0.44032  0.00000  0.11937
       5     H     0.45862  0.45862  0.00000  0.08276
       6     C     3.09426  3.09426  0.00000 -0.18852
       7     H     0.45741  0.45741  0.00000  0.08518
       8     H     0.44794  0.44794  0.00000  0.10412
       9     C     3.13093  3.13093  0.00000 -0.26185
      10     H     0.44561  0.44561  0.00000  0.10879
      11     H     0.44236  0.44236  0.00000  0.11528
      12     C     2.86341  2.86341  0.00000  0.27318
      13     H     0.43527  0.43527  0.00000  0.12947
      14     H     0.44120  0.44120  0.00000  0.11761
      15     C     3.09138  3.09138  0.00000 -0.18276
      16     O     4.17846  4.17846  0.00000 -0.35691
      17     C     3.10109  3.10109  0.00000 -0.20217
      18     H     0.43797  0.43797  0.00000  0.12405
      19     H     0.44924  0.44924  0.00000  0.10152
      20     C     3.08723  3.08723  0.00000 -0.17445
      21     H     0.44559  0.44559  0.00000  0.10882
      22     H     0.45036  0.45036  0.00000  0.09928
      23     C     3.14919  3.14919  0.00000 -0.29837
      24     H     0.44977  0.44977  0.00000  0.10046
      25     H     0.45363  0.45363  0.00000  0.09275
      26     H     0.45341  0.45341  0.00000  0.09317
      27     H     0.45518  0.45518  0.00000  0.08964
      28     H     0.44677  0.44677  0.00000  0.10646

   Total alpha = 40.00000, Total beta = 40.00000, Total charge =  0.00000

*** Psi4 exiting successfully. Buy a developer a beer!
