  ==> Input File <==

--------------------------------------------------------------------------
set {
	reference rhf
	basis 6-31G*
}

set_num_threads( 4 )
memory 2 gb

molecule MOL {
0 1

H	 2.652209	 0.763231	 0.000000
O	 2.263154	 -0.100023	 0.000000
C	 0.912879	 -0.015685	 0.000000
C	 0.323975	 0.815011	 -0.944308
C	 0.124250	 -0.719347	 0.895550
H	 0.953561	 1.351697	 -1.629434
C	 -1.051625	 0.934089	 -0.983748
H	 0.581818	 -1.363541	 1.627783
C	 -1.256069	 -0.590338	 0.844648
H	 -1.502878	 1.578684	 -1.716928
C	 -1.852986	 0.233855	 -0.091330
H	 -1.861097	 -1.140097	 1.543501
H	 -2.922503	 0.331560	 -0.128087

	symmetry c1
}
set optking {
	frozen_dihedral = ("
		4 3 2 1
	")
}

ee = optimize('scf')
oeprop('DIPOLE', 'QUADRUPOLE', 'MULLIKEN_CHARGES')
f=open( 'psi4out.xyz', 'w' )
f.write( "13  " )
f.write( str(ee) + "\n" )
f.write( MOL.save_string_xyz() )
f.close()
--------------------------------------------------------------------------

    Molecular point group: c1
  Charge       = 0
  Multiplicity = 1
  Basis Set: 6-31G*
  Basis Set:
  @DF-RHF Final Energy:  -305.55346138175275
    Total Energy =                       -305.5534613817526974
    Molecular point group: c1
  Basis Set: 6-31G*
  Basis Set:
  Basis Set: 6-31G*
  Basis Set:
  @DF-RHF Final Energy:  -305.55496375215159
    Total Energy =                       -305.5549637521515365
  Basis Set: 6-31G*
  Basis Set:
  Basis Set: 6-31G*
  Basis Set:
  @DF-RHF Final Energy:  -305.55506962600612
    Total Energy =                       -305.5550696260061159
  Basis Set: 6-31G*
  Basis Set:
  Basis Set: 6-31G*
  Basis Set:
  @DF-RHF Final Energy:  -305.55508163207168
    Total Energy =                       -305.5550816320715626
  Basis Set: 6-31G*
  Basis Set:
  Charge       = 0
  Multiplicity = 1
  Basis Set: 6-31G*
  Basis Set:

    Orbital Energies (a.u.)
    -----------------------

    Doubly Occupied:

       1A    -20.582298     2A    -11.292554     3A    -11.235829
       4A    -11.234377     5A    -11.227874     6A    -11.225160
       7A    -11.223828     8A     -1.398670     9A     -1.147426
      10A     -1.018152    11A     -1.003751    12A     -0.839922
      13A     -0.822502    14A     -0.733655    15A     -0.681592
      16A     -0.647104    17A     -0.620664    18A     -0.592728
      19A     -0.588381    20A     -0.534286    21A     -0.513469
      22A     -0.491364    23A     -0.472591    24A     -0.337116
      25A     -0.317241

  @DF-RHF Final Energy:  -305.55508413285742

   => Energetics <=

    Nuclear Repulsion Energy =            272.8484571816923676
    One-Electron Energy =                -955.2420148429633855
    Two-Electron Energy =                 376.8384735284134308
    DFT Exchange-Correlation Energy =       0.0000000000000000
    Empirical Dispersion Energy =           0.0000000000000000
    PCM Polarization Energy =               0.0000000000000000
    EFP Energy =                            0.0000000000000000
    Total Energy =                       -305.5550841328575302
    Molecular point group: c1
  Basis Set: 6-31G*
  Basis Set:

  -Total Gradient:
     Atom            X                  Y                   Z
    ------   -----------------  -----------------  -----------------
       1       -0.000095603837     0.000083329889     0.002414196771
       2        0.000078425725    -0.000852424481    -0.003578168994
       3       -0.000013471376     0.002028565655     0.002381349139
       4       -0.000043771019    -0.001359046137    -0.001172797448
       5        0.000159247135     0.000009401698    -0.000000702508
       6       -0.000061605991    -0.000008695884     0.000026344435
       7        0.000031868806     0.000034870592     0.000022149177
       8        0.000071112746     0.000009370412    -0.000014005691
       9       -0.000119352718     0.000091193594    -0.000030750495
      10       -0.000054566485    -0.000007923451    -0.000007629628
      11        0.000018996322    -0.000078227416     0.000041699897
      12        0.000027269379     0.000005583799    -0.000017444125
      13        0.000001451308     0.000044001729    -0.000064240531

  **** Optimization is complete! (in 5 steps) ****
    Final optimized geometry and variables:
    Molecular point group: c1

    Geometry (in Angstrom), charge = 0, multiplicity = 1:

    H            2.695271443469     0.611008900937     0.065145162220
    O            2.259508630616    -0.229879871084     0.079163548847
    C            0.906419833293    -0.065635794200     0.034965606274
    C            0.308849524404     0.747465919956    -0.915408660352
    C            0.128597819492    -0.784305887361     0.927482688478
    H            0.921077471815     1.281679547075    -1.620878647453
    C           -1.071597465318     0.858555641623    -0.952904604071
    H            0.613626096526    -1.415837226043     1.648460824464
    C           -1.250979844245    -0.677444883313     0.872919813196
    H           -1.531616774754     1.494664341867    -1.688072431676
    C           -1.858062034454     0.146702363760    -0.061973368243
    H           -1.852354272066    -1.236681368249     1.567308311648
    H           -2.929085412789     0.230472831149    -0.098167574250

  Mulliken Charges: (a.u.)
   Center  Symbol    Alpha    Beta     Spin     Total
       1     H     0.27234  0.27234  0.00000  0.45532
       2     O     4.38366  4.38366  0.00000 -0.76732
       3     C     2.80891  2.80891  0.00000  0.38217
       4     C     3.13058  3.13058  0.00000 -0.26117
       5     C     3.11924  3.11924  0.00000 -0.23848
       6     H     0.39986  0.39986  0.00000  0.20028
       7     C     3.09403  3.09403  0.00000 -0.18805
       8     H     0.39208  0.39208  0.00000  0.21585
       9     C     3.09443  3.09443  0.00000 -0.18886
      10     H     0.39826  0.39826  0.00000  0.20349
      11     C     3.10865  3.10865  0.00000 -0.21729
      12     H     0.39800  0.39800  0.00000  0.20400
      13     H     0.39997  0.39997  0.00000  0.20006

   Total alpha = 25.00000, Total beta = 25.00000, Total charge = -0.00000
