  ==> Input File <==

--------------------------------------------------------------------------
set {
	reference rhf
	basis 6-31G*
}

set_num_threads( 4 )
memory 2 gb

molecule MOL {
0 1

H	 2.176868	 -0.646004	 -0.217325
O	 1.337496	 -0.537251	 0.205931
C	 0.702312	 0.627605	 -0.264544
C	 -0.714990	 0.596302	 0.266387
H	 0.682322	 0.642550	 -1.350929
H	 1.215941	 1.520383	 0.085680
O	 -1.405996	 -0.526611	 -0.195820
H	 -1.257453	 1.468809	 -0.075599
H	 -0.688972	 0.618407	 1.353696
H	 -1.561030	 -0.408310	 -1.124250

	symmetry c1
}
set optking {
	frozen_dihedral = ("
		10 7 4 3
	")
}

ee = optimize('scf')
oeprop('DIPOLE', 'QUADRUPOLE', 'MULLIKEN_CHARGES')
f=open( 'psi4out.xyz', 'w' )
f.write( "10  " )
f.write( str(ee) + "\n" )
f.write( MOL.save_string_xyz() )
f.close()
--------------------------------------------------------------------------

    Molecular point group: c1
  Charge       = 0
  Multiplicity = 1
  Basis Set: 6-31G*
  Basis Set:
  @DF-RHF Final Energy:  -228.91630536572470
    Total Energy =                       -228.9163053657246678
    Molecular point group: c1
  Basis Set: 6-31G*
  Basis Set:
  Basis Set: 6-31G*
  Basis Set:
  @DF-RHF Final Energy:  -228.91849930471454
    Total Energy =                       -228.9184993047146008
  Basis Set: 6-31G*
  Basis Set:
  Basis Set: 6-31G*
  Basis Set:
  @DF-RHF Final Energy:  -228.91874606409880
    Total Energy =                       -228.9187460640987979
  Basis Set: 6-31G*
  Basis Set:
  Basis Set: 6-31G*
  Basis Set:
  @DF-RHF Final Energy:  -228.91876241980657
    Total Energy =                       -228.9187624198064555
  Basis Set: 6-31G*
  Basis Set:
  Charge       = 0
  Multiplicity = 1
  Basis Set: 6-31G*
  Basis Set:

    Orbital Energies (a.u.)
    -----------------------

    Doubly Occupied:

       1A    -20.557185     2A    -20.553364     3A    -11.275189
       4A    -11.270360     5A     -1.374175     6A     -1.353274
       7A     -1.002054     8A     -0.843826     9A     -0.720425
      10A     -0.675917    11A     -0.655754    12A     -0.596816
      13A     -0.570433    14A     -0.535636    15A     -0.481199
      16A     -0.444368    17A     -0.435602

  @DF-RHF Final Energy:  -228.91876328319748

   => Energetics <=

    Nuclear Repulsion Energy =            133.2897235241116221
    One-Electron Energy =                -577.7258190023940188
    Two-Electron Energy =                 215.5173321950850038
    DFT Exchange-Correlation Energy =       0.0000000000000000
    Empirical Dispersion Energy =           0.0000000000000000
    PCM Polarization Energy =               0.0000000000000000
    EFP Energy =                            0.0000000000000000
    Total Energy =                       -228.9187632831973644
    Molecular point group: c1
  Basis Set: 6-31G*
  Basis Set:

  -Total Gradient:
     Atom            X                  Y                   Z
    ------   -----------------  -----------------  -----------------
       1       -0.000012394976     0.000005687967    -0.000012589710
       2       -0.000018629956     0.000041193503     0.000049001377
       3        0.000085239320    -0.000235583699     0.000297872083
       4       -0.000314357882     0.000427190775    -0.000489848719
       5        0.000004994638     0.000001223303    -0.000002516119
       6        0.000025931130    -0.000033102712     0.000026440434
       7        0.000820712774    -0.000557507548    -0.000053893867
       8        0.000019828127    -0.000016306784    -0.000003914973
       9        0.000006664231     0.000000468832     0.000027122472
      10       -0.000617987404     0.000366736366     0.000162327023

  **** Optimization is complete! (in 5 steps) ****
    Final optimized geometry and variables:
    Molecular point group: c1

    Geometry (in Angstrom), charge = 0, multiplicity = 1:

    H            2.271222597077    -0.577503758085    -0.113530396941
    O            1.399845193328    -0.537063153152     0.253602099259
    C            0.721313440215     0.572994449568    -0.258734054871
    C           -0.699561030924     0.568246752512     0.269347070775
    H            0.706090297535     0.553911363514    -1.349202370239
    H            1.203424807991     1.501727891159     0.045642027169
    O           -1.459955122268    -0.512743538892    -0.188150497325
    H           -1.172861970419     1.516213356871     0.016256046985
    H           -0.671953996865     0.486397985317     1.347335408212
    H           -1.640935753224    -0.408116290045    -1.111632497110

  Mulliken Charges: (a.u.)
   Center  Symbol    Alpha    Beta     Spin     Total
       1     H     0.27980  0.27980  0.00000  0.44041
       2     O     4.36210  4.36210  0.00000 -0.72420
       3     C     3.00470  3.00470  0.00000 -0.00939
       4     C     3.00067  3.00067  0.00000 -0.00135
       5     H     0.43682  0.43682  0.00000  0.12636
       6     H     0.43157  0.43157  0.00000  0.13687
       7     O     4.36232  4.36232  0.00000 -0.72464
       8     H     0.43171  0.43171  0.00000  0.13657
       9     H     0.40676  0.40676  0.00000  0.18648
      10     H     0.28355  0.28355  0.00000  0.43290

   Total alpha = 17.00000, Total beta = 17.00000, Total charge =  0.00000
