                              Psi4 1.0.54 Driver

  ==> Input File <==

--------------------------------------------------------------------------
set {
	reference rhf
	basis cc-pvtz
}

set_num_threads( 4 )
memory 2 gb

molecule MOL {
0 1

O	 -0.694481	 1.313155	 -0.204815
C	 -0.862519	 0.151932	 -0.046791
C	 -2.171428	 -0.477048	 0.339095
O	 0.085519	 -0.757083	 -0.192238
H	 -2.467997	 -1.191667	 -0.417688
H	 -2.923379	 0.287970	 0.444097
H	 -2.053854	 -1.015120	 1.270901
C	 1.392036	 -0.330828	 -0.560749
C	 2.191639	 0.126757	 0.641395
H	 1.315425	 0.452961	 -1.298055
H	 1.844768	 -1.198896	 -1.015990
H	 3.199584	 0.379605	 0.332256
H	 1.744901	 1.002276	 1.092254
H	 2.250494	 -0.659992	 1.383793

	symmetry c1
}
set optking {
	frozen_dihedral = ("
		10 8 4 2
	")
}

ee,wfn = optimize('scf', return_wfn=True)
oeprop( wfn, 'DIPOLE', 'QUADRUPOLE', 'MULLIKEN_CHARGES')
f=open( 'psi4out.xyz', 'w' )
f.write( "14  " )
f.write( str(ee) + "\n" )
f.write( MOL.save_string_xyz() )
f.close()
--------------------------------------------------------------------------

    Molecular point group: c1
  Charge       = 0
  Multiplicity = 1
  Basis Set: CC-PVTZ
  Basis Set:
  @DF-RHF Final Energy:  -305.99115905224846
    Total Energy =                       -305.9911590522486904
    Molecular point group: c1
  Basis Set: CC-PVTZ
  Basis Set:
  Basis Set: CC-PVTZ
  Basis Set:
  @DF-RHF Final Energy:  -305.99116089754551
    Total Energy =                       -305.9911608975456261
  Basis Set: CC-PVTZ
  Basis Set:
  Basis Set: CC-PVTZ
  Basis Set:
  @DF-RHF Final Energy:  -305.99114796387903
    Total Energy =                       -305.9911479638792571
  Basis Set: CC-PVTZ
  Basis Set:
  Charge       = 0
  Multiplicity = 1
  Basis Set: CC-PVTZ
  Basis Set:

    Orbital Energies (a.u.)
    -----------------------

    Doubly Occupied:

       1A    -20.594425     2A    -20.533093     3A    -11.367979
       4A    -11.283279     5A    -11.231621     6A    -11.216810
       7A     -1.470640     8A     -1.365773     9A     -1.055997
      10A     -0.999439    11A     -0.884000    12A     -0.766732
      13A     -0.701274    14A     -0.685680    15A     -0.660844
      16A     -0.611739    17A     -0.587595    18A     -0.571168
      19A     -0.559978    20A     -0.529891    21A     -0.518855
      22A     -0.494794    23A     -0.454685    24A     -0.442167

  @DF-RHF Final Energy:  -305.99116266548555

   => Energetics <=

    Nuclear Repulsion Energy =            249.2671812293862672
    One-Electron Energy =                -911.3397763174183410
    Two-Electron Energy =                 356.0814324225466976
    DFT Exchange-Correlation Energy =       0.0000000000000000
    Empirical Dispersion Energy =           0.0000000000000000
    PCM Polarization Energy =               0.0000000000000000
    EFP Energy =                            0.0000000000000000
    Total Energy =                       -305.9911626654854331
    Molecular point group: c1
  Basis Set: CC-PVTZ
  Basis Set:

  -Total Gradient:
     Atom            X                  Y                   Z
    ------   -----------------  -----------------  -----------------
       1        0.000034448383    -0.000013837119    -0.000026651690
       2        0.000090072136     0.000015694273     0.000287598465
       3       -0.000013395055     0.000003666893    -0.000014166571
       4       -0.000120784168    -0.000127168817    -0.000428450238
       5       -0.000003756274    -0.000003003231    -0.000008422136
       6       -0.000002606524     0.000000688274     0.000001728554
       7        0.000004753861    -0.000001734573     0.000008327797
       8        0.000012930292     0.000285412439     0.000395968398
       9        0.000006149999     0.000046184527    -0.000002274118
      10        0.000007343283    -0.000184394679    -0.000211715770
      11       -0.000033129370     0.000006552574     0.000004602157
      12        0.000006424768     0.000000593906     0.000016381926
      13        0.000007178155    -0.000019638690    -0.000020825154
      14        0.000004370514    -0.000009015776    -0.000002101624

  **** Optimization is complete! (in 4 steps) ****
    Final optimized geometry and variables:
    Molecular point group: c1

    Geometry (in Angstrom), charge = 0, multiplicity = 1:

    O           -0.697415250806     1.303911616616    -0.213482735908
    C           -0.861243701353     0.143042916111    -0.048522591549
    C           -2.167783449609    -0.488475603561     0.340945682522
    O            0.089950558612    -0.763239063511    -0.190025965616
    H           -2.461831188930    -1.208233164771    -0.411941900598
    H           -2.922461825513     0.274384055065     0.441797851609
    H           -2.048226260851    -1.021016779354     1.275665330963
    C            1.396106828444    -0.332792279914    -0.555203684211
    C            2.195401793211     0.124716969273     0.647219821146
    H            1.318618119926     0.449992875968    -1.293692901542
    H            1.850446232763    -1.199862071237    -1.010676776647
    H            3.203189197579     0.377720177239     0.337789815472
    H            1.748882984006     0.999623691052     1.098940377053
    H            2.254917723113    -0.662949649809     1.388642089933

  Mulliken Charges: (a.u.)
   Center  Symbol    Alpha    Beta     Spin     Total
       1     O     4.19918  4.19918  0.00000 -0.39835
       2     C     2.80182  2.80182  0.00000  0.39637
       3     C     3.13838  3.13838  0.00000 -0.27676
       4     O     4.15725  4.15725  0.00000 -0.31450
       5     H     0.44556  0.44556  0.00000  0.10888
       6     H     0.43828  0.43828  0.00000  0.12344
       7     H     0.44601  0.44601  0.00000  0.10797
       8     C     2.98547  2.98547  0.00000  0.02905
       9     C     3.14874  3.14874  0.00000 -0.29748
      10     H     0.44912  0.44912  0.00000  0.10176
      11     H     0.44464  0.44464  0.00000  0.11072
      12     H     0.45137  0.45137  0.00000  0.09727
      13     H     0.44176  0.44176  0.00000  0.11649
      14     H     0.45243  0.45243  0.00000  0.09514

   Total alpha = 24.00000, Total beta = 24.00000, Total charge = -0.00000

*** Psi4 exiting successfully. Buy a developer a beer!
