  ==> Input File <==

--------------------------------------------------------------------------
set {
	reference rhf
	basis 6-31G*
}

set_num_threads( 4 )
memory 2 gb

molecule MOL {
0 1

H	 2.523244	 -0.320214	 -1.431116
O	 1.696503	 0.134608	 -1.358143
C	 1.371306	 0.310141	 -0.002193
C	 0.031547	 1.023609	 0.088541
H	 2.130841	 0.909113	 0.497035
H	 1.330000	 -0.649784	 0.507651
C	 -1.134819	 0.293262	 -0.585751
H	 0.143333	 2.004656	 -0.364602
H	 -0.193980	 1.185992	 1.141151
C	 -1.917817	 -0.639439	 0.339494
H	 -0.758119	 -0.268455	 -1.433105
H	 -1.813832	 1.041889	 -0.986690
H	 -2.777680	 -1.057197	 -0.174994
H	 -1.310268	 -1.471279	 0.680599
H	 -2.283753	 -0.111424	 1.216626

	symmetry c1
}
set optking {
	frozen_dihedral = ("
		8 4 7 11
	")
}

ee = optimize('scf')
oeprop('DIPOLE', 'QUADRUPOLE', 'MULLIKEN_CHARGES')
f=open( 'psi4out.xyz', 'w' )
f.write( "15  " )
f.write( str(ee) + "\n" )
f.write( MOL.save_string_xyz() )
f.close()
--------------------------------------------------------------------------

    Molecular point group: c1
  Charge       = 0
  Multiplicity = 1
  Basis Set: 6-31G*
  Basis Set:
  @DF-RHF Final Energy:  -232.14156867322862
    Total Energy =                       -232.1415686732287327
    Molecular point group: c1
  Basis Set: 6-31G*
  Basis Set:
  Basis Set: 6-31G*
  Basis Set:
  @DF-RHF Final Energy:  -232.14215837837364
    Total Energy =                       -232.1421583783737219
  Basis Set: 6-31G*
  Basis Set:
  Basis Set: 6-31G*
  Basis Set:
  @DF-RHF Final Energy:  -232.14222712633540
    Total Energy =                       -232.1422271263356265
  Basis Set: 6-31G*
  Basis Set:
  Basis Set: 6-31G*
  Basis Set:
  @DF-RHF Final Energy:  -232.14223124554931
    Total Energy =                       -232.1422312455492829
  Basis Set: 6-31G*
  Basis Set:
  Basis Set: 6-31G*
  Basis Set:
  @DF-RHF Final Energy:  -232.14223492743500
    Total Energy =                       -232.1422349274349131
  Basis Set: 6-31G*
  Basis Set:
  Charge       = 0
  Multiplicity = 1
  Basis Set: 6-31G*
  Basis Set:

    Orbital Energies (a.u.)
    -----------------------

    Doubly Occupied:

       1A    -20.553348     2A    -11.268510     3A    -11.212049
       4A    -11.208794     5A    -11.206029     6A     -1.360120
       7A     -1.063768     8A     -0.971451     9A     -0.863244
      10A     -0.780902    11A     -0.703492    12A     -0.649155
      13A     -0.603944    14A     -0.577427    15A     -0.561152
      16A     -0.534408    17A     -0.504659    18A     -0.474730
      19A     -0.468306    20A     -0.454043    21A     -0.429838

  @DF-RHF Final Energy:  -232.14223524962384

   => Energetics <=

    Nuclear Repulsion Energy =            190.1832033663930304
    One-Electron Energy =                -691.7521393688639364
    Two-Electron Energy =                 269.4267007528469549
    DFT Exchange-Correlation Energy =       0.0000000000000000
    Empirical Dispersion Energy =           0.0000000000000000
    PCM Polarization Energy =               0.0000000000000000
    EFP Energy =                            0.0000000000000000
    Total Energy =                       -232.1422352496239228
    Molecular point group: c1
  Basis Set: 6-31G*
  Basis Set:

  -Total Gradient:
     Atom            X                  Y                   Z
    ------   -----------------  -----------------  -----------------
       1        0.000002255114     0.000002194287    -0.000002191547
       2        0.000004132035     0.000011732744     0.000010438508
       3       -0.000019022567    -0.000027085358    -0.000014280518
       4        0.002543656418    -0.002104676436    -0.002226695583
       5       -0.000002462241     0.000000221205    -0.000008516097
       6        0.000005802031    -0.000004745993     0.000014772985
       7       -0.001025570876     0.003329253493    -0.001771663143
       8       -0.001966660466     0.001253623197     0.002124460558
       9       -0.000001782085    -0.000002902653    -0.000000488760
      10       -0.000005778790     0.000003218501     0.000007434731
      11        0.000459889940    -0.002464817574     0.001860800108
      12        0.000005915727     0.000000025725     0.000008110028
      13        0.000001494130     0.000000824148    -0.000002111579
      14        0.000001491001     0.000002954942    -0.000002976531
      15       -0.000003359368     0.000000179771     0.000002906845

  **** Optimization is complete! (in 6 steps) ****
    Final optimized geometry and variables:
    Molecular point group: c1

    Geometry (in Angstrom), charge = 0, multiplicity = 1:

    H            2.466682654424    -0.531837160644    -1.100631979727
    O            1.673469357740    -0.020397361385    -1.029483523603
    C            1.280483983342     0.058203879712     0.317595176095
    C           -0.033513579673     0.816844627440     0.395751087074
    H            2.037074179426     0.576428659094     0.903752343498
    H            1.166436820989    -0.939034045431     0.740241324723
    C           -1.215177885064     0.092507648426    -0.270068140172
    H            0.105988111888     1.797822587789    -0.047898610714
    H           -0.259318121181     0.994770203185     1.445839622485
    C           -1.953135155317    -0.852499284385     0.681649359514
    H           -0.848557207111    -0.478297732085    -1.116301045526
    H           -1.918189860511     0.822490029849    -0.659339603974
    H           -2.755600779585    -1.375070950545     0.169815329888
    H           -1.286008384626    -1.604612889616     1.094256942122
    H           -2.390582909827    -0.308900228587     1.514597458762

  Mulliken Charges: (a.u.)
   Center  Symbol    Alpha    Beta     Spin     Total
       1     H     0.28070  0.28070  0.00000  0.43861
       2     O     4.36919  4.36919  0.00000 -0.73839
       3     C     2.99875  2.99875  0.00000  0.00250
       4     C     3.16109  3.16109  0.00000 -0.32218
       5     H     0.42899  0.42899  0.00000  0.14202
       6     H     0.43224  0.43224  0.00000  0.13552
       7     C     3.15830  3.15830  0.00000 -0.31661
       8     H     0.41223  0.41223  0.00000  0.17554
       9     H     0.42373  0.42373  0.00000  0.15255
      10     C     3.24099  3.24099  0.00000 -0.48199
      11     H     0.40693  0.40693  0.00000  0.18614
      12     H     0.42002  0.42002  0.00000  0.15995
      13     H     0.41949  0.41949  0.00000  0.16103
      14     H     0.42417  0.42417  0.00000  0.15165
      15     H     0.42317  0.42317  0.00000  0.15366

   Total alpha = 21.00000, Total beta = 21.00000, Total charge = -0.00000
