                              Psi4 1.0.54 Driver

  ==> Input File <==

--------------------------------------------------------------------------
set {
	reference rhf
	basis cc-pvtz
}

set_num_threads( 4 )
memory 2 gb

molecule MOL {
0 1

H	 3.889604	 0.356866	 -0.089510
N	 3.091268	 -0.241216	 -0.065538
C	 1.860978	 0.530248	 0.016256
H	 3.192566	 -0.835836	 0.730398
C	 0.644130	 -0.381765	 -0.031064
H	 1.835721	 1.204666	 -0.833114
H	 1.808789	 1.151975	 0.911067
C	 -0.678115	 0.376691	 0.025731
H	 0.693998	 -0.977147	 -0.936845
H	 0.693309	 -1.082142	 0.800523
C	 -0.505415	 1.893057	 0.029271
H	 -1.225586	 0.078546	 0.916988
H	 -1.298019	 0.090667	 -0.820898
C	 -1.829203	 2.647543	 0.092588
H	 0.114044	 2.180845	 0.874103
H	 0.038077	 2.194014	 -0.862251
H	 -2.381425	 2.394287	 0.991560
H	 -1.670863	 3.719893	 0.093622
H	 -2.458110	 2.407173	 -0.758314

	symmetry c1
}
set optking {
	frozen_dihedral = ("
		12 8 5 9
	")
}

ee,wfn = optimize('scf', return_wfn=True)
oeprop( wfn, 'DIPOLE', 'QUADRUPOLE', 'MULLIKEN_CHARGES')
f=open( 'psi4out.xyz', 'w' )
f.write( "19  " )
f.write( str(ee) + "\n" )
f.write( MOL.save_string_xyz() )
f.close()
--------------------------------------------------------------------------

    Molecular point group: c1
  Charge       = 0
  Multiplicity = 1
  Basis Set: CC-PVTZ
  Basis Set:
  @DF-RHF Final Energy:  -251.43315103677438
    Total Energy =                       -251.4331510367742339
    Molecular point group: c1
  Basis Set: CC-PVTZ
  Basis Set:
  Basis Set: CC-PVTZ
  Basis Set:
  @DF-RHF Final Energy:  -251.43119565185646
    Total Energy =                       -251.4311956518562283
  Basis Set: CC-PVTZ
  Basis Set:
  Basis Set: CC-PVTZ
  Basis Set:
  @DF-RHF Final Energy:  -251.43743413313058
    Total Energy =                       -251.4374341331305800
  Basis Set: CC-PVTZ
  Basis Set:
  Basis Set: CC-PVTZ
  Basis Set:
  @DF-RHF Final Energy:  -251.43805845300022
    Total Energy =                       -251.4380584529998259
  Basis Set: CC-PVTZ
  Basis Set:
  Basis Set: CC-PVTZ
  Basis Set:
  @DF-RHF Final Energy:  -251.43813808665251
    Total Energy =                       -251.4381380866525433
  Basis Set: CC-PVTZ
  Basis Set:
  Basis Set: CC-PVTZ
  Basis Set:
  @DF-RHF Final Energy:  -251.43814534067494
    Total Energy =                       -251.4381453406749074
  Basis Set: CC-PVTZ
  Basis Set:
  Basis Set: CC-PVTZ
  Basis Set:
  @DF-RHF Final Energy:  -251.43815954880932
    Total Energy =                       -251.4381595488092671
  Basis Set: CC-PVTZ
  Basis Set:
  Charge       = 0
  Multiplicity = 1
  Basis Set: CC-PVTZ
  Basis Set:

    Orbital Energies (a.u.)
    -----------------------

    Doubly Occupied:

       1A    -15.526012     2A    -11.237496     3A    -11.212633
       4A    -11.211061     5A    -11.208232     6A    -11.205853
       7A     -1.177915     8A     -1.070558     9A     -0.995357
      10A     -0.900416    11A     -0.836644    12A     -0.768131
      13A     -0.663577    14A     -0.642229    15A     -0.617531
      16A     -0.587540    17A     -0.573151    18A     -0.549044
      19A     -0.525008    20A     -0.503415    21A     -0.492014
      22A     -0.459909    23A     -0.452685    24A     -0.445382
      25A     -0.383052

  @DF-RHF Final Energy:  -251.43815967462183

   => Energetics <=

    Nuclear Repulsion Energy =            249.6024133604028066
    One-Electron Energy =                -833.5914559283160088
    Two-Electron Energy =                 332.5508828932913730
    DFT Exchange-Correlation Energy =       0.0000000000000000
    Empirical Dispersion Energy =           0.0000000000000000
    PCM Polarization Energy =               0.0000000000000000
    EFP Energy =                            0.0000000000000000
    Total Energy =                       -251.4381596746218293
    Molecular point group: c1
  Basis Set: CC-PVTZ
  Basis Set:

  -Total Gradient:
     Atom            X                  Y                   Z
    ------   -----------------  -----------------  -----------------
       1        0.000004980972     0.000006004272     0.000001858002
       2       -0.000008298475    -0.000007781762    -0.000003656293
       3       -0.000008371697     0.000031871736    -0.000006626912
       4        0.000004222298    -0.000006118848     0.000005439565
       5        0.001029163444     0.001990577587    -0.001791427188
       6        0.000011245175    -0.000005749870     0.000008206711
       7        0.000008708465     0.000002498126    -0.000002952206
       8        0.001180009504     0.001747762804     0.001873090505
       9       -0.001065920775    -0.001951627220     0.001199434646
      10       -0.000014301414    -0.000003813277     0.000003530794
      11        0.000013380476     0.000006377886     0.000022341789
      12       -0.001142116895    -0.001806451179    -0.001303588446
      13        0.000004051121    -0.000017943487    -0.000002591399
      14       -0.000010525161     0.000005660943    -0.000004804031
      15        0.000000111440     0.000008120221    -0.000005800723
      16       -0.000005587201    -0.000003028889     0.000009933101
      17        0.000003516484     0.000003167860    -0.000006621591
      18       -0.000003091097    -0.000000558221    -0.000001955174
      19       -0.000001176665     0.000001031317     0.000006188848

  **** Optimization is complete! (in 8 steps) ****
    Final optimized geometry and variables:
    Molecular point group: c1

    Geometry (in Angstrom), charge = 0, multiplicity = 1:

    H            3.513585943601    -0.698960176199    -0.116721148604
    N            2.656745261308    -1.210215203517    -0.129957727899
    C            1.514868059590    -0.319655047962     0.014719926636
    H            2.694206288673    -1.867138525440     0.621407731446
    C            0.222241340887    -1.123195437757    -0.064985083476
    H            1.558676974979     0.400379994060    -0.793131389654
    H            1.541787433328     0.246881250377     0.944497432480
    C           -1.112358763548    -0.340670722470     0.034373409859
    H            0.242796487767    -1.700366222014    -0.981347155127
    H            0.247864119716    -1.860837846113     0.732921621875
    C           -1.045891327824     1.186906574055     0.008342540372
    H           -1.640710719793    -0.650456819027     0.930542735627
    H           -1.749848331143    -0.655205172210    -0.786242608519
    C           -2.431015545887     1.821051442626     0.090580134397
    H           -0.441652062723     1.552066129629     0.831822022359
    H           -0.558829593984     1.520617978934    -0.902316832691
    H           -2.937687138872     1.537299989275     1.007095275606
    H           -2.368874493452     2.903091645166     0.068708827024
    H           -3.054928451965     1.508622398556    -0.740193352932

  Mulliken Charges: (a.u.)
   Center  Symbol    Alpha    Beta     Spin     Total
       1     H     0.43041  0.43041  0.00000  0.13917
       2     N     3.69016  3.69016  0.00000 -0.38031
       3     C     3.02855  3.02855  0.00000 -0.05711
       4     H     0.43104  0.43104  0.00000  0.13791
       5     C     3.09089  3.09089  0.00000 -0.18178
       6     H     0.45417  0.45417  0.00000  0.09166
       7     H     0.46513  0.46513  0.00000  0.06974
       8     C     3.09676  3.09676  0.00000 -0.19352
       9     H     0.44614  0.44614  0.00000  0.10772
      10     H     0.45796  0.45796  0.00000  0.08408
      11     C     3.09152  3.09152  0.00000 -0.18305
      12     H     0.45253  0.45253  0.00000  0.09494
      13     H     0.45131  0.45131  0.00000  0.09738
      14     C     3.15001  3.15001  0.00000 -0.30002
      15     H     0.45273  0.45273  0.00000  0.09454
      16     H     0.45225  0.45225  0.00000  0.09550
      17     H     0.45529  0.45529  0.00000  0.08941
      18     H     0.44838  0.44838  0.00000  0.10325
      19     H     0.45477  0.45477  0.00000  0.09045

   Total alpha = 25.00000, Total beta = 25.00000, Total charge =  0.00000

*** Psi4 exiting successfully. Buy a developer a beer!
