  ==> Input File <==

--------------------------------------------------------------------------
set {
	reference rhf
	basis 6-31G*
}

set_num_threads( 4 )
memory 2 gb

molecule MOL {
0 1

H	 -1.748661	 -2.220942	 -0.005015
C	 -1.343207	 -1.225221	 -0.013879
N	 -0.055091	 -1.100174	 -0.261126
C	 -2.150779	 -0.125890	 0.222726
C	 0.449969	 0.122615	 -0.277109
H	 -3.200618	 -0.238980	 0.422496
N	 -1.660212	 1.097703	 0.209594
C	 -0.371804	 1.219904	 -0.038265
C	 1.928147	 0.267347	 -0.541394
H	 0.029131	 2.217482	 -0.051283
C	 2.731267	 0.506354	 0.741527
H	 2.278392	 -0.639647	 -1.022594
H	 2.093353	 1.083966	 -1.237106
H	 3.791211	 0.578437	 0.519441
H	 2.584604	 -0.309353	 1.439804
H	 2.426387	 1.427631	 1.227950

	symmetry c1
}
set optking {
	frozen_dihedral = ("
		12 9 5 3
	")
}

ee = optimize('scf')
oeprop('DIPOLE', 'QUADRUPOLE', 'MULLIKEN_CHARGES')
f=open( 'psi4out.xyz', 'w' )
f.write( "16  " )
f.write( str(ee) + "\n" )
f.write( MOL.save_string_xyz() )
f.close()
--------------------------------------------------------------------------

    Molecular point group: c1
  Charge       = 0
  Multiplicity = 1
  Basis Set: 6-31G*
  Basis Set:
  @DF-RHF Final Energy:  -340.75771697530826
    Total Energy =                       -340.7577169753079716
    Molecular point group: c1
  Basis Set: 6-31G*
  Basis Set:
  Basis Set: 6-31G*
  Basis Set:
  @DF-RHF Final Energy:  -340.75777100679051
    Total Energy =                       -340.7577710067908470
  Basis Set: 6-31G*
  Basis Set:
  Basis Set: 6-31G*
  Basis Set:
  @DF-RHF Final Energy:  -340.75776575212876
    Total Energy =                       -340.7577657521287620
  Basis Set: 6-31G*
  Basis Set:
  Basis Set: 6-31G*
  Basis Set:
  @DF-RHF Final Energy:  -340.75780314139928
    Total Energy =                       -340.7578031413992790
  Basis Set: 6-31G*
  Basis Set:
  Basis Set: 6-31G*
  Basis Set:
  @DF-RHF Final Energy:  -340.75780673268582
    Total Energy =                       -340.7578067326860491
  Basis Set: 6-31G*
  Basis Set:
  Basis Set: 6-31G*
  Basis Set:
  @DF-RHF Final Energy:  -340.75780821742609
    Total Energy =                       -340.7578082174259180
  Basis Set: 6-31G*
  Basis Set:
  Charge       = 0
  Multiplicity = 1
  Basis Set: 6-31G*
  Basis Set:

    Orbital Energies (a.u.)
    -----------------------

    Doubly Occupied:

       1A    -15.586876     2A    -15.582295     3A    -11.281536
       4A    -11.275207     5A    -11.272898     6A    -11.271423
       7A    -11.232614     8A    -11.221771     9A     -1.313222
      10A     -1.221832    11A     -1.085185    12A     -1.014693
      13A     -0.903437    14A     -0.895087    15A     -0.829439
      16A     -0.715062    17A     -0.710714    18A     -0.658175
      19A     -0.610617    20A     -0.605817    21A     -0.582839
      22A     -0.562039    23A     -0.521967    24A     -0.508760
      25A     -0.503419    26A     -0.483242    27A     -0.429446
      28A     -0.395040    29A     -0.344819

  @DF-RHF Final Energy:  -340.75780826494929

   => Energetics <=

    Nuclear Repulsion Energy =            349.6585227689613475
    One-Electron Energy =               -1153.5937215682736223
    Two-Electron Energy =                 463.1773905343627007
    DFT Exchange-Correlation Energy =       0.0000000000000000
    Empirical Dispersion Energy =           0.0000000000000000
    PCM Polarization Energy =               0.0000000000000000
    EFP Energy =                            0.0000000000000000
    Total Energy =                       -340.7578082649495741
    Molecular point group: c1
  Basis Set: 6-31G*
  Basis Set:

  -Total Gradient:
     Atom            X                  Y                   Z
    ------   -----------------  -----------------  -----------------
       1        0.000007583520    -0.000001039974     0.000028058667
       2       -0.000023172570     0.000010971544    -0.000057247668
       3       -0.000145100462     0.000064683559    -0.000861448179
       4        0.000001732008    -0.000003023104    -0.000035212056
       5        0.000279760459    -0.000211137703     0.001413537151
       6        0.000005492905     0.000002656636     0.000030318110
       7        0.000008589643     0.000009477559    -0.000019359635
       8       -0.000008327802    -0.000001242495     0.000074990041
       9       -0.000331916331     0.000532276616    -0.001499242376
      10       -0.000006347997    -0.000000053926    -0.000011628623
      11        0.000007147354     0.000004552206     0.000010793358
      12        0.000197010164    -0.000413848221     0.000924569550
      13        0.000005121529     0.000002634433    -0.000003099215
      14       -0.000001126080     0.000001208928     0.000003399561
      15        0.000001606318     0.000001499402    -0.000004081348
      16        0.000001947340     0.000000384537     0.000005652663

  **** Optimization is complete! (in 7 steps) ****
    Final optimized geometry and variables:
    Molecular point group: c1

    Geometry (in Angstrom), charge = 0, multiplicity = 1:

    H           -1.747257643896    -2.321356499872    -0.013368529693
    C           -1.341122731106    -1.326074127055    -0.025328641848
    N           -0.048988468984    -1.205157095633    -0.275606634872
    C           -2.143812086084    -0.227442770616     0.208396631736
    C            0.457776151377     0.013012965165    -0.292432759306
    H           -3.193615852557    -0.335915453399     0.410266356303
    N           -1.649987970334     0.998781727800     0.188131499314
    C           -0.365160262841     1.116071877513    -0.060070449632
    C            1.935516913191     0.168918480141    -0.556182109890
    H            0.038552105354     2.113027371967    -0.083266888878
    C            2.740776429845     0.404245859551     0.728127432699
    H            2.282247304807    -0.737051245188    -1.037018774823
    H            2.099338019367     0.992816249463    -1.244786225283
    H            3.798470546444     0.494564811272     0.502982818842
    H            2.612264788898    -0.422787566750     1.418229275961
    H            2.428111090840     1.313224146282     1.232484765364

  Mulliken Charges: (a.u.)
   Center  Symbol    Alpha    Beta     Spin     Total
       1     H     0.39380  0.39380  0.00000  0.21240
       2     C     2.99121  2.99121  0.00000  0.01758
       3     N     3.75461  3.75461  0.00000 -0.50923
       4     C     2.99830  2.99830  0.00000  0.00341
       5     C     2.87532  2.87532  0.00000  0.24935
       6     H     0.39422  0.39422  0.00000  0.21156
       7     N     3.72971  3.72971  0.00000 -0.45942
       8     C     2.99346  2.99346  0.00000  0.01308
       9     C     3.17383  3.17383  0.00000 -0.34766
      10     H     0.39532  0.39532  0.00000  0.20936
      11     C     3.24263  3.24263  0.00000 -0.48526
      12     H     0.39952  0.39952  0.00000  0.20097
      13     H     0.41283  0.41283  0.00000  0.17434
      14     H     0.41537  0.41537  0.00000  0.16927
      15     H     0.41118  0.41118  0.00000  0.17764
      16     H     0.41869  0.41869  0.00000  0.16262

   Total alpha = 29.00000, Total beta = 29.00000, Total charge =  0.00000
