  ==> Input File <==

--------------------------------------------------------------------------
set {
	reference rhf
	basis cc-pvtz
}

set_num_threads( 4 )
memory 2 gb

molecule MOL {
0 1

H	 -1.260095	 -0.663420	 -1.118868
O	 -1.432053	 -0.565244	 -0.200812
C	 -0.727158	 0.534527	 0.310686
C	 0.680222	 0.664433	 -0.252229
H	 -1.306802	 1.408001	 0.044211
H	 -0.690821	 0.490158	 1.397609
C	 1.605391	 -0.489360	 0.123098
H	 0.615089	 0.745647	 -1.332226
H	 1.101414	 1.597893	 0.110950
H	 1.247627	 -1.432485	 -0.275204
H	 2.601435	 -0.332816	 -0.273062
H	 1.691776	 -0.589902	 1.200774

	symmetry c1
}
set optking {
	frozen_dihedral = ("
		1 2 3 4
	")
}

ee = optimize('scf')
oeprop('DIPOLE', 'QUADRUPOLE', 'MULLIKEN_CHARGES')
f=open( 'psi4out.xyz', 'w' )
f.write( "12  " )
f.write( str(ee) + "\n" )
f.write( MOL.save_string_xyz() )
f.close()
--------------------------------------------------------------------------

    Molecular point group: c1
  Charge       = 0
  Multiplicity = 1
  Basis Set: CC-PVTZ
  Basis Set:
  @DF-RHF Final Energy:  -193.18871325845294
    Total Energy =                       -193.1887132584528217
    Molecular point group: c1
  Basis Set: CC-PVTZ
  Basis Set:
  Basis Set: CC-PVTZ
  Basis Set:
  @DF-RHF Final Energy:  -193.18979705873346
    Total Energy =                       -193.1897970587334044
  Basis Set: CC-PVTZ
  Basis Set:
  Basis Set: CC-PVTZ
  Basis Set:
  @DF-RHF Final Energy:  -193.19017116654516
    Total Energy =                       -193.1901711665452694
  Basis Set: CC-PVTZ
  Basis Set:
  Basis Set: CC-PVTZ
  Basis Set:
  @DF-RHF Final Energy:  -193.19017520475074
    Total Energy =                       -193.1901752047505170
  Basis Set: CC-PVTZ
  Basis Set:
  Basis Set: CC-PVTZ
  Basis Set:
  @DF-RHF Final Energy:  -193.19017804353552
    Total Energy =                       -193.1901780435355249
  Basis Set: CC-PVTZ
  Basis Set:
  Charge       = 0
  Multiplicity = 1
  Basis Set: CC-PVTZ
  Basis Set:

    Orbital Energies (a.u.)
    -----------------------

    Doubly Occupied:

       1A    -20.545759     2A    -11.265829     3A    -11.222295
       4A    -11.210574     5A     -1.364047     6A     -1.052493
       7A     -0.925025     8A     -0.819228     9A     -0.669876
      10A     -0.640936    11A     -0.638293    12A     -0.570356
      13A     -0.541032    14A     -0.516200    15A     -0.488846
      16A     -0.468159    17A     -0.433877

  @DF-RHF Final Energy:  -193.19017815127970

   => Energetics <=

    Nuclear Repulsion Energy =            133.2652010205078739
    One-Electron Energy =                -526.1651098496334953
    Two-Electron Energy =                 199.7097306778459824
    DFT Exchange-Correlation Energy =       0.0000000000000000
    Empirical Dispersion Energy =           0.0000000000000000
    PCM Polarization Energy =               0.0000000000000000
    EFP Energy =                            0.0000000000000000
    Total Energy =                       -193.1901781512796106
    Molecular point group: c1
  Basis Set: CC-PVTZ
  Basis Set:

  -Total Gradient:
     Atom            X                  Y                   Z
    ------   -----------------  -----------------  -----------------
       1        0.001564019132    -0.001179089619     0.000469767911
       2       -0.002123705289     0.001731407420    -0.001008722211
       3        0.000988148357    -0.001279333730     0.001496923584
       4       -0.000440522852     0.000709413104    -0.000959080566
       5        0.000010823118     0.000002867672     0.000002020738
       6        0.000003842803     0.000008634303     0.000003769176
       7       -0.000003216803     0.000003374854    -0.000004121631
       8        0.000001494873    -0.000001860861     0.000001376389
       9        0.000007399791     0.000004955909    -0.000000956012
      10       -0.000002268549    -0.000004188329    -0.000002657906
      11       -0.000007213368     0.000001519854     0.000000345727
      12        0.000001198783     0.000002299424     0.000001334801

  **** Optimization is complete! (in 6 steps) ****
    Final optimized geometry and variables:
    Molecular point group: c1

    Geometry (in Angstrom), charge = 0, multiplicity = 1:

    H           -1.233518314703    -0.704132776755    -1.089424086434
    O           -1.419630523845    -0.588431778050    -0.175431312821
    C           -0.729492697520     0.529239371028     0.318336770797
    C            0.683562667642     0.660407483981    -0.228444091829
    H           -1.286661300990     1.435907467770     0.095876181496
    H           -0.706360817229     0.419291482395     1.395462709286
    C            1.600918030851    -0.499329129853     0.146726052617
    H            0.634340903129     0.758190900225    -1.311560597006
    H            1.101251436213     1.592996348106     0.138956918642
    H            1.207659734329    -1.444410883376    -0.206303795940
    H            2.588409425117    -0.366738377647    -0.279569695462
    H            1.710469815252    -0.571759719389     1.223405906916

  Mulliken Charges: (a.u.)
   Center  Symbol    Alpha    Beta     Spin     Total
       1     H     0.39399  0.39399  0.00000  0.21203
       2     O     4.20516  4.20516  0.00000 -0.41031
       3     C     2.96329  2.96329  0.00000  0.07342
       4     C     3.09972  3.09972  0.00000 -0.19945
       5     H     0.46501  0.46501  0.00000  0.06998
       6     H     0.46336  0.46336  0.00000  0.07327
       7     C     3.14341  3.14341  0.00000 -0.28683
       8     H     0.45876  0.45876  0.00000  0.08248
       9     H     0.45191  0.45191  0.00000  0.09619
      10     H     0.45151  0.45151  0.00000  0.09698
      11     H     0.44954  0.44954  0.00000  0.10092
      12     H     0.45434  0.45434  0.00000  0.09131

   Total alpha = 17.00000, Total beta = 17.00000, Total charge =  0.00000
