  ==> Input File <==

--------------------------------------------------------------------------
set {
	reference rhf
	basis 6-31G*
}

set_num_threads( 1 )
memory 2 gb

molecule MOL {
0 1

H	 -3.420663	 1.227371	 -1.044276
O	 -3.452007	 0.283848	 -0.965577
C	 -3.181085	 -0.079926	 0.364119
C	 -1.765924	 0.277073	 0.805136
H	 -3.327791	 -1.152017	 0.410903
H	 -3.905698	 0.375695	 1.036898
C	 -0.677594	 -0.417312	 -0.014550
H	 -1.637766	 1.358238	 0.744969
H	 -1.659588	 0.017670	 1.857098
C	 0.738335	 -0.034840	 0.421385
H	 -0.814977	 -0.178223	 -1.064632
H	 -0.802730	 -1.495410	 0.071702
C	 1.743934	 -1.174579	 0.237403
H	 1.058480	 0.837793	 -0.142918
H	 0.726076	 0.266188	 1.468207
C	 3.158821	 -0.869629	 0.742633
H	 1.790418	 -1.446570	 -0.815951
H	 1.372997	 -2.053524	 0.760544
C	 3.886042	 0.232649	 -0.029725
H	 3.748513	 -1.781404	 0.685890
H	 3.114573	 -0.602999	 1.796745
H	 3.934490	 -0.001010	 -1.090006
H	 4.904333	 0.347297	 0.329128
H	 3.394801	 1.194353	 0.075022

	symmetry c1
}
set optking {
	frozen_dihedral = ("
		20 16 13 17,
		17 13 10 7,
		11 7 4 3,
		1 2 3 5,
		7 4 3 2
	")
}

ee = energy('scf')
oeprop('DIPOLE', 'QUADRUPOLE', 'MULLIKEN_CHARGES')
f=open( 'psi4out.xyz', 'w' )
f.write( "24  " )
f.write( str(ee) + "\n" )
f.write( MOL.save_string_xyz() )
f.close()
--------------------------------------------------------------------------

    Molecular point group: c1

    Geometry (in Angstrom), charge = 0, multiplicity = 1:

       Center              X                  Y                   Z               Mass
    ------------   -----------------  -----------------  -----------------  -----------------
           H         -3.422020039455     1.428622504244    -1.216438757236     1.007825032070
           O         -3.453364039455     0.485099504244    -1.137739757236    15.994914619560
           C         -3.182442039455     0.121325504244     0.191956242764    12.000000000000
           C         -1.767281039455     0.478324504244     0.632973242764    12.000000000000
           H         -3.329148039455    -0.950765495756     0.238740242764     1.007825032070
           H         -3.907055039455     0.576946504244     0.864735242764     1.007825032070
           C         -0.678951039455    -0.216060495756    -0.186712757236    12.000000000000
           H         -1.639123039455     1.559489504244     0.572806242764     1.007825032070
           H         -1.660945039455     0.218921504244     1.684935242764     1.007825032070
           C          0.736977960545     0.166411504244     0.249222242764    12.000000000000
           H         -0.816334039455     0.023028504244    -1.236794757236     1.007825032070
           H         -0.804087039455    -1.294158495756    -0.100460757236     1.007825032070
           C          1.742576960545    -0.973327495756     0.065240242764    12.000000000000
           H          1.057122960545     1.039044504244    -0.315080757236     1.007825032070
           H          0.724718960545     0.467439504244     1.296044242764     1.007825032070
           C          3.157463960545    -0.668377495756     0.570470242764    12.000000000000
           H          1.789060960545    -1.245318495756    -0.988113757236     1.007825032070
           H          1.371639960545    -1.852272495756     0.588381242764     1.007825032070
           C          3.884684960545     0.433900504244    -0.201887757236    12.000000000000
           H          3.747155960545    -1.580152495756     0.513727242764     1.007825032070
           H          3.113215960545    -0.401747495756     1.624582242764     1.007825032070
           H          3.933132960545     0.200241504244    -1.262168757236     1.007825032070
           H          4.902975960545     0.548548504244     0.156965242764     1.007825032070
           H          3.393443960545     1.395604504244    -0.097140757236     1.007825032070

  Charge       = 0
  Multiplicity = 1
  Basis Set: 6-31G*
  Basis Set:

    Orbital Energies (a.u.)
    -----------------------

    Doubly Occupied:

       1A    -20.553435     2A    -11.267433     3A    -11.217686
       4A    -11.213970     5A    -11.212232     6A    -11.211345
       7A    -11.210134     8A    -11.207230     9A     -1.360025
      10A     -1.088678    11A     -1.048133    12A     -0.985420
      13A     -0.914948    14A     -0.850569    15A     -0.800759
      16A     -0.776673    17A     -0.678991    18A     -0.653963
      19A     -0.623252    20A     -0.621214    21A     -0.595016
      22A     -0.579318    23A     -0.567537    24A     -0.533497
      25A     -0.520904    26A     -0.511633    27A     -0.493638
      28A     -0.477471    29A     -0.466727    30A     -0.459841
      31A     -0.454243    32A     -0.446130    33A     -0.419360

  @DF-RHF Final Energy:  -349.24448864266463

   => Energetics <=

    Nuclear Repulsion Energy =            384.3221905567339149
    One-Electron Energy =               -1235.0904655491958692
    Two-Electron Energy =                 501.5237863497977742
    DFT Exchange-Correlation Energy =       0.0000000000000000
    Empirical Dispersion Energy =           0.0000000000000000
    PCM Polarization Energy =               0.0000000000000000
    EFP Energy =                            0.0000000000000000
    Total Energy =                       -349.2444886426642370

  Mulliken Charges: (a.u.)
   Center  Symbol    Alpha    Beta     Spin     Total
       1     H     0.28341  0.28341  0.00000  0.43318
       2     O     4.36835  4.36835  0.00000 -0.73670
       3     C     2.99640  2.99640  0.00000  0.00720
       4     C     3.17038  3.17038  0.00000 -0.34076
       5     H     0.41628  0.41628  0.00000  0.16744
       6     H     0.42832  0.42832  0.00000  0.14337
       7     C     3.15308  3.15308  0.00000 -0.30616
       8     H     0.42801  0.42801  0.00000  0.14399
       9     H     0.42216  0.42216  0.00000  0.15567
      10     C     3.15491  3.15491  0.00000 -0.30981
      11     H     0.41054  0.41054  0.00000  0.17893
      12     H     0.42271  0.42271  0.00000  0.15458
      13     C     3.15371  3.15371  0.00000 -0.30743
      14     H     0.42047  0.42047  0.00000  0.15906
      15     H     0.42489  0.42489  0.00000  0.15021
      16     C     3.15254  3.15254  0.00000 -0.30508
      17     H     0.42313  0.42313  0.00000  0.15375
      18     H     0.42237  0.42237  0.00000  0.15526
      19     C     3.24102  3.24102  0.00000 -0.48204
      20     H     0.42123  0.42123  0.00000  0.15754
      21     H     0.42387  0.42387  0.00000  0.15225
      22     H     0.42209  0.42209  0.00000  0.15583
      23     H     0.41962  0.41962  0.00000  0.16076
      24     H     0.42052  0.42052  0.00000  0.15895

   Total alpha = 33.00000, Total beta = 33.00000, Total charge =  0.00000
