  ==> Input File <==

--------------------------------------------------------------------------
set {
	reference rhf
	basis 6-31G*
}

set_num_threads( 1 )
memory 2 gb

molecule MOL {
0 1

H	 2.827476	 0.327536	 1.226021
O	 3.534580	 0.175767	 0.616069
C	 3.473745	 -1.144566	 0.139547
C	 2.328709	 -1.378027	 -0.839797
H	 4.419886	 -1.322797	 -0.355151
H	 3.405950	 -1.846591	 0.969814
C	 0.938194	 -1.197714	 -0.225937
H	 2.448331	 -0.697440	 -1.678760
H	 2.421300	 -2.388250	 -1.235072
C	 -0.189405	 -1.491702	 -1.219370
H	 0.840162	 -0.180776	 0.143648
H	 0.834997	 -1.856292	 0.636597
C	 -1.603027	 -1.408954	 -0.631861
H	 -0.109970	 -0.808934	 -2.063386
H	 -0.042627	 -2.491053	 -1.623666
C	 -2.037799	 -0.007733	 -0.193645
H	 -2.305480	 -1.771942	 -1.379267
H	 -1.681721	 -2.091737	 0.212800
C	 -3.489788	 0.042957	 0.286558
H	 -1.911155	 0.683948	 -1.025299
H	 -1.391724	 0.352483	 0.603309
C	 -4.216917	 1.317354	 -0.141063
H	 -4.025645	 -0.823308	 -0.095450
H	 -3.513059	 -0.038752	 1.371301
H	 -4.239342	 1.411634	 -1.223113
H	 -5.243387	 1.322503	 0.212445
H	 -3.726170	 2.201406	 0.256408

	symmetry c1
}
set optking {
	frozen_dihedral = ("
		14 10 7 4,
		14 10 13 16,
		10 7 4 8,
		8 4 3 2,
		10 13 16 20,
		4 3 2 1
	")
}

ee = energy('scf')
oeprop('DIPOLE', 'QUADRUPOLE', 'MULLIKEN_CHARGES')
f=open( 'psi4out.xyz', 'w' )
f.write( "27  " )
f.write( str(ee) + "\n" )
f.write( MOL.save_string_xyz() )
f.close()
--------------------------------------------------------------------------

    Molecular point group: c1

    Geometry (in Angstrom), charge = 0, multiplicity = 1:

       Center              X                  Y                   Z               Mass
    ------------   -----------------  -----------------  -----------------  -----------------
           H          2.920443085651     0.869324014535     1.449934521678     1.007825032070
           O          3.627547085651     0.717555014535     0.839982521678    15.994914619560
           C          3.566712085651    -0.602777985465     0.363460521678    12.000000000000
           C          2.421676085651    -0.836238985465    -0.615883478322    12.000000000000
           H          4.512853085651    -0.781008985465    -0.131237478322     1.007825032070
           H          3.498917085651    -1.304802985465     1.193727521678     1.007825032070
           C          1.031161085651    -0.655925985465    -0.002023478322    12.000000000000
           H          2.541298085651    -0.155651985465    -1.454846478322     1.007825032070
           H          2.514267085651    -1.846461985465    -1.011158478322     1.007825032070
           C         -0.096437914349    -0.949913985465    -0.995456478322    12.000000000000
           H          0.933129085651     0.361012014535     0.367561521678     1.007825032070
           H          0.927964085651    -1.314503985465     0.860510521678     1.007825032070
           C         -1.510059914349    -0.867165985465    -0.407947478322    12.000000000000
           H         -0.017002914349    -0.267145985465    -1.839472478322     1.007825032070
           H          0.050340085651    -1.949264985465    -1.399752478322     1.007825032070
           C         -1.944831914349     0.534055014535     0.030268521678    12.000000000000
           H         -2.212512914349    -1.230153985465    -1.155353478322     1.007825032070
           H         -1.588753914349    -1.549948985465     0.436713521678     1.007825032070
           C         -3.396820914349     0.584745014535     0.510471521678    12.000000000000
           H         -1.818187914349     1.225736014535    -0.801385478322     1.007825032070
           H         -1.298756914349     0.894271014535     0.827222521678     1.007825032070
           C         -4.123949914349     1.859142014535     0.082850521678    12.000000000000
           H         -3.932677914349    -0.281519985465     0.128463521678     1.007825032070
           H         -3.420091914349     0.503036014535     1.595214521678     1.007825032070
           H         -4.146374914349     1.953422014535    -0.999199478322     1.007825032070
           H         -5.150419914349     1.864291014535     0.436358521678     1.007825032070
           H         -3.633202914349     2.743194014535     0.480321521678     1.007825032070

  Charge       = 0
  Multiplicity = 1
  Basis Set: 6-31G*
  Basis Set:

    Orbital Energies (a.u.)
    -----------------------

    Doubly Occupied:

       1A    -20.552281     2A    -11.267026     3A    -11.219745
       4A    -11.217024     5A    -11.215958     6A    -11.215162
       7A    -11.214868     8A    -11.213216     9A    -11.209417
      10A     -1.359024    11A     -1.095234    12A     -1.061510
      13A     -1.011205    14A     -0.948124    15A     -0.888482
      16A     -0.820668    17A     -0.801006    18A     -0.778347
      19A     -0.693679    20A     -0.649783    21A     -0.638628
      22A     -0.614762    23A     -0.596777    24A     -0.587136
      25A     -0.580297    26A     -0.554896    27A     -0.540721
      28A     -0.528799    29A     -0.509755    30A     -0.491239
      31A     -0.483081    32A     -0.477194    33A     -0.468307
      34A     -0.458546    35A     -0.451522    36A     -0.440889
      37A     -0.422610

  @DF-RHF Final Energy:  -388.27755811081744

   => Energetics <=

    Nuclear Repulsion Energy =            459.5895100831613149
    One-Electron Energy =               -1437.1804079646035461
    Two-Electron Energy =                 589.3133397706238839
    DFT Exchange-Correlation Energy =       0.0000000000000000
    Empirical Dispersion Energy =           0.0000000000000000
    PCM Polarization Energy =               0.0000000000000000
    EFP Energy =                            0.0000000000000000
    Total Energy =                       -388.2775581108184042

  Mulliken Charges: (a.u.)
   Center  Symbol    Alpha    Beta     Spin     Total
       1     H     0.27993  0.27993  0.00000  0.44015
       2     O     4.37095  4.37095  0.00000 -0.74189
       3     C     2.99737  2.99737  0.00000  0.00525
       4     C     3.16091  3.16091  0.00000 -0.32181
       5     H     0.41445  0.41445  0.00000  0.17110
       6     H     0.43206  0.43206  0.00000  0.13587
       7     C     3.16325  3.16325  0.00000 -0.32650
       8     H     0.41497  0.41497  0.00000  0.17007
       9     H     0.42434  0.42434  0.00000  0.15132
      10     C     3.15241  3.15241  0.00000 -0.30482
      11     H     0.42296  0.42296  0.00000  0.15408
      12     H     0.42548  0.42548  0.00000  0.14904
      13     C     3.15537  3.15537  0.00000 -0.31074
      14     H     0.42157  0.42157  0.00000  0.15685
      15     H     0.42161  0.42161  0.00000  0.15678
      16     C     3.15471  3.15471  0.00000 -0.30941
      17     H     0.42088  0.42088  0.00000  0.15824
      18     H     0.42394  0.42394  0.00000  0.15211
      19     C     3.15295  3.15295  0.00000 -0.30589
      20     H     0.42193  0.42193  0.00000  0.15614
      21     H     0.42170  0.42170  0.00000  0.15659
      22     C     3.24002  3.24002  0.00000 -0.48004
      23     H     0.42139  0.42139  0.00000  0.15721
      24     H     0.42155  0.42155  0.00000  0.15690
      25     H     0.42150  0.42150  0.00000  0.15700
      26     H     0.42019  0.42019  0.00000  0.15962
      27     H     0.42160  0.42160  0.00000  0.15679

   Total alpha = 37.00000, Total beta = 37.00000, Total charge = -0.00000
