                              Psi4 1.0.54 Driver

  ==> Input File <==

--------------------------------------------------------------------------
set {
	reference rhf
	basis cc-pvtz
}

set_num_threads( 4 )
memory 2 gb

molecule MOL {
0 1

H	 -3.401682	 -1.036167	 0.000000
O	 -3.113760	 -0.140926	 0.000000
C	 -1.775087	 -0.058754	 0.000000
C	 -1.038446	 -0.013536	 1.177179
C	 -1.136225	 -0.019538	 -1.228210
H	 -1.541255	 -0.044400	 2.126209
C	 0.332450	 0.070614	 1.120116
H	 -1.723000	 -0.055556	 -2.123987
C	 0.237213	 0.064768	 -1.268058
H	 0.912155	 0.106198	 2.021107
C	 0.987427	 0.110818	 -0.102937
H	 0.733894	 0.095255	 -2.220369
C	 2.457851	 0.201077	 -0.170546
O	 3.180329	 0.245425	 0.768716
H	 2.869166	 0.226325	 -1.185427

	symmetry c1
}
set optking {
	frozen_dihedral = ("
		5 3 2 1
	")
}

ee,wfn = optimize('scf', return_wfn=True)
oeprop( wfn, 'DIPOLE', 'QUADRUPOLE', 'MULLIKEN_CHARGES')
f=open( 'psi4out.xyz', 'w' )
f.write( "15  " )
f.write( str(ee) + "\n" )
f.write( MOL.save_string_xyz() )
f.close()
--------------------------------------------------------------------------

    Molecular point group: c1
  Charge       = 0
  Multiplicity = 1
  Basis Set: CC-PVTZ
  Basis Set:
  @DF-RHF Final Energy:  -418.43573357620784
    Total Energy =                       -418.4357335762074399
    Molecular point group: c1
  Basis Set: CC-PVTZ
  Basis Set:
  Basis Set: CC-PVTZ
  Basis Set:
  @DF-RHF Final Energy:  -418.43668079120363
    Total Energy =                       -418.4366807912034574
  Basis Set: CC-PVTZ
  Basis Set:
  Basis Set: CC-PVTZ
  Basis Set:
  @DF-RHF Final Energy:  -418.43662802662777
    Total Energy =                       -418.4366280266274316
  Basis Set: CC-PVTZ
  Basis Set:
  Basis Set: CC-PVTZ
  Basis Set:
  @DF-RHF Final Energy:  -418.43655894003217
    Total Energy =                       -418.4365589400320005
  Basis Set: CC-PVTZ
  Basis Set:
  Basis Set: CC-PVTZ
  Basis Set:
  @DF-RHF Final Energy:  -418.43676002219007
    Total Energy =                       -418.4367600221900148
  Basis Set: CC-PVTZ
  Basis Set:
  Charge       = 0
  Multiplicity = 1
  Basis Set: CC-PVTZ
  Basis Set:

    Orbital Energies (a.u.)
    -----------------------

    Doubly Occupied:

       1A    -20.587262     2A    -20.550963     3A    -11.326541
       4A    -11.312205     5A    -11.257997     6A    -11.251621
       7A    -11.243609     8A    -11.241526     9A    -11.240449
      10A     -1.416266    11A     -1.407072    12A     -1.175736
      13A     -1.045266    14A     -1.040707    15A     -0.890930
      16A     -0.861141    17A     -0.800525    18A     -0.755805
      19A     -0.709771    20A     -0.678259    21A     -0.650343
      22A     -0.636770    23A     -0.622525    24A     -0.609924
      25A     -0.564846    26A     -0.558609    27A     -0.540323
      28A     -0.502261    29A     -0.487370    30A     -0.425423
      31A     -0.359821    32A     -0.346554

  @DF-RHF Final Energy:  -418.43676142657557

   => Energetics <=

    Nuclear Repulsion Energy =            401.6800288240018517
    One-Electron Energy =               -1366.0367399742276575
    Two-Electron Energy =                 545.9199497236502339
    DFT Exchange-Correlation Energy =       0.0000000000000000
    Empirical Dispersion Energy =           0.0000000000000000
    PCM Polarization Energy =               0.0000000000000000
    EFP Energy =                            0.0000000000000000
    Total Energy =                       -418.4367614265755719
    Molecular point group: c1
  Basis Set: CC-PVTZ
  Basis Set:

  -Total Gradient:
     Atom            X                  Y                   Z
    ------   -----------------  -----------------  -----------------
       1       -0.000010396945    -0.000008818833     0.000036940517
       2       -0.000080148922    -0.000020430669    -0.000048342994
       3        0.000100809110     0.000057301473     0.000258643403
       4       -0.000222276946    -0.000052519274    -0.000107740207
       5        0.000172051770     0.000041471547    -0.000110657344
       6        0.000004967792     0.000008715326    -0.000000003764
       7        0.000193992899    -0.000009581787    -0.000133385263
       8       -0.000000222532     0.000006669394     0.000016131826
       9       -0.000153160241    -0.000087356805    -0.000103409564
      10       -0.000016790492     0.000005084654     0.000002028774
      11        0.000007707328     0.000029853150     0.000209575093
      12        0.000020082781     0.000015424953     0.000007433579
      13       -0.000028417394     0.000043339416    -0.000076432917
      14        0.000014064439    -0.000016052076     0.000036711020
      15       -0.000002262648    -0.000013100468     0.000012507845

  **** Optimization is complete! (in 6 steps) ****
    Final optimized geometry and variables:
    Molecular point group: c1

    Geometry (in Angstrom), charge = 0, multiplicity = 1:

    H           -3.429616920150    -1.060780726969    -0.009686048179
    O           -3.126339588568    -0.169271936529    -0.004633799306
    C           -1.765661483858    -0.118565894054    -0.056763974027
    C           -1.037779997705    -0.066058912884     1.122680329938
    C           -1.126586990136    -0.070354080655    -1.279248948503
    H           -1.559632940879    -0.088851891590     2.059098825613
    C            0.333424196711     0.025102598696     1.073864954327
    H           -1.708768229363    -0.095052990189    -2.179172297725
    C            0.251226381826     0.021422941249    -1.319085813999
    H            0.911496158550     0.066822220875     1.975517614414
    C            0.989293446712     0.067719439886    -0.150196397103
    H            0.752656793914     0.059917446407    -2.268488084077
    C            2.463946518293     0.166584788296    -0.214963113992
    O            3.181328047562     0.207687116456     0.726673860153
    H            2.876863178645     0.200467152976    -1.228760607992

  Mulliken Charges: (a.u.)
   Center  Symbol    Alpha    Beta     Spin     Total
       1     H     0.38663  0.38663  0.00000  0.22674
       2     O     4.18661  4.18661  0.00000 -0.37322
       3     C     2.86591  2.86591  0.00000  0.26817
       4     C     3.10822  3.10822  0.00000 -0.21644
       5     C     3.10922  3.10922  0.00000 -0.21844
       6     H     0.41316  0.41316  0.00000  0.17369
       7     C     3.07086  3.07086  0.00000 -0.14173
       8     H     0.41437  0.41437  0.00000  0.17127
       9     C     3.07839  3.07839  0.00000 -0.15678
      10     H     0.40670  0.40670  0.00000  0.18660
      11     C     2.99515  2.99515  0.00000  0.00970
      12     H     0.42078  0.42078  0.00000  0.15844
      13     C     2.91010  2.91010  0.00000  0.17979
      14     O     4.17482  4.17482  0.00000 -0.34964
      15     H     0.45908  0.45908  0.00000  0.08184

   Total alpha = 32.00000, Total beta = 32.00000, Total charge = -0.00000

*** Psi4 exiting successfully. Buy a developer a beer!
