  ==> Input File <==

--------------------------------------------------------------------------
set {
	reference rhf
	basis 6-31G*
}

set_num_threads( 1 )
memory 2 gb

molecule MOL {
0 1

O	 -1.276010	 1.052711	 -0.768302
C	 -1.204840	 0.067374	 -0.106123
C	 -2.388195	 -0.672128	 0.458071
O	 -0.067104	 -0.527208	 0.221609
H	 -2.388023	 -1.694060	 0.097175
H	 -3.300579	 -0.174919	 0.164318
H	 -2.315377	 -0.706351	 1.539059
C	 1.064333	 0.280620	 0.575432
C	 2.289959	 -0.563186	 0.273073
C	 0.967620	 0.688068	 2.037375
H	 1.052445	 1.160608	 -0.050656
H	 2.312208	 -0.844858	 -0.773547
H	 3.192822	 -0.004608	 0.497041
H	 2.289296	 -1.468364	 0.870823
H	 1.832736	 1.280571	 2.317606
H	 0.080111	 1.282801	 2.212297
H	 0.933881	 -0.190119	 2.674286

	symmetry c1
}
set optking {
	frozen_dihedral = ("
		11 8 4 2
	")
}

ee = energy('scf')
oeprop('DIPOLE', 'QUADRUPOLE', 'MULLIKEN_CHARGES')
f=open( 'psi4out.xyz', 'w' )
f.write( "17  " )
f.write( str(ee) + "\n" )
f.write( MOL.save_string_xyz() )
f.close()
--------------------------------------------------------------------------

    Molecular point group: c1

    Geometry (in Angstrom), charge = 0, multiplicity = 1:

       Center              X                  Y                   Z               Mass
    ------------   -----------------  -----------------  -----------------  -----------------
           O         -1.187656430687     1.007207880131    -1.157578910716    15.994914619560
           C         -1.116486430687     0.021870880131    -0.495399910716    12.000000000000
           C         -2.299841430687    -0.717631119869     0.068794089284    12.000000000000
           O          0.021249569313    -0.572711119869    -0.167667910716    15.994914619560
           H         -2.299669430687    -1.739563119869    -0.292101910716     1.007825032070
           H         -3.212225430687    -0.220422119869    -0.224958910716     1.007825032070
           H         -2.227023430687    -0.751854119869     1.149782089284     1.007825032070
           C          1.152686569313     0.235116880131     0.186155089284    12.000000000000
           C          2.378312569313    -0.608689119869    -0.116203910716    12.000000000000
           C          1.055973569313     0.642564880131     1.648098089284    12.000000000000
           H          1.140798569313     1.115104880131    -0.439932910716     1.007825032070
           H          2.400561569313    -0.890361119869    -1.162823910716     1.007825032070
           H          3.281175569313    -0.050111119869     0.107764089284     1.007825032070
           H          2.377649569313    -1.513867119869     0.481546089284     1.007825032070
           H          1.921089569313     1.235067880131     1.928329089284     1.007825032070
           H          0.168464569313     1.237297880131     1.823020089284     1.007825032070
           H          1.022234569313    -0.235622119869     2.285009089284     1.007825032070

  Charge       = 0
  Multiplicity = 1
  Basis Set: 6-31G*
  Basis Set:

    Orbital Energies (a.u.)
    -----------------------

    Doubly Occupied:

       1A    -20.591635     2A    -20.545795     3A    -11.374454
       4A    -11.293811     5A    -11.231782     6A    -11.224144
       7A    -11.219881     8A     -1.462923     9A     -1.361913
      10A     -1.079225    11A     -1.006598    12A     -0.952406
      13A     -0.848883    14A     -0.766457    15A     -0.693365
      16A     -0.665744    17A     -0.661687    18A     -0.620167
      19A     -0.587140    20A     -0.578640    21A     -0.564184
      22A     -0.552418    23A     -0.539687    24A     -0.522235
      25A     -0.502045    26A     -0.485439    27A     -0.446747
      28A     -0.433732

  @DF-RHF Final Energy:  -344.90688896405123

   => Energetics <=

    Nuclear Repulsion Energy =            322.8703549948115210
    One-Electron Energy =               -1109.9283359547428063
    Two-Electron Energy =                 442.1510919958810746
    DFT Exchange-Correlation Energy =       0.0000000000000000
    Empirical Dispersion Energy =           0.0000000000000000
    PCM Polarization Energy =               0.0000000000000000
    EFP Energy =                            0.0000000000000000
    Total Energy =                       -344.9068889640501538

  Mulliken Charges: (a.u.)
   Center  Symbol    Alpha    Beta     Spin     Total
       1     O     4.27654  4.27654  0.00000 -0.55308
       2     C     2.61816  2.61816  0.00000  0.76368
       3     C     3.28285  3.28285  0.00000 -0.56571
       4     O     4.31599  4.31599  0.00000 -0.63197
       5     H     0.39978  0.39978  0.00000  0.20043
       6     H     0.39870  0.39870  0.00000  0.20260
       7     H     0.40384  0.40384  0.00000  0.19231
       8     C     2.93142  2.93142  0.00000  0.13716
       9     C     3.24281  3.24281  0.00000 -0.48561
      10     C     3.24846  3.24846  0.00000 -0.49693
      11     H     0.39809  0.39809  0.00000  0.20382
      12     H     0.40827  0.40827  0.00000  0.18345
      13     H     0.41855  0.41855  0.00000  0.16291
      14     H     0.41436  0.41436  0.00000  0.17128
      15     H     0.41501  0.41501  0.00000  0.16998
      16     H     0.41309  0.41309  0.00000  0.17383
      17     H     0.41407  0.41407  0.00000  0.17186

   Total alpha = 28.00000, Total beta = 28.00000, Total charge = -0.00000
