  ==> Input File <==

--------------------------------------------------------------------------
set {
	reference rhf
	basis cc-pvtz
}

set_num_threads( 4 )
memory 2 gb

molecule MOL {
0 1

H	 1.009371	 -1.139535	 -0.866884
O	 1.675515	 -0.612943	 -0.465627
C	 1.135873	 0.113391	 0.608264
C	 0.027642	 1.012027	 0.090274
H	 1.902972	 0.727968	 1.072615
H	 0.756163	 -0.561896	 1.370018
C	 -1.138737	 0.285728	 -0.581921
H	 0.464661	 1.708096	 -0.618252
H	 -0.340737	 1.603071	 0.925246
C	 -1.933983	 -0.631436	 0.343653
H	 -0.763151	 -0.285569	 -1.422081
H	 -1.808359	 1.035291	 -0.992333
H	 -2.789188	 -1.049673	 -0.174718
H	 -1.335629	 -1.461368	 0.700418
H	 -2.305435	 -0.092167	 1.209725

	symmetry c1
}
set optking {
	frozen_dihedral = ("
		1 2 3 4
	")
}

ee = optimize('scf')
oeprop('DIPOLE', 'QUADRUPOLE', 'MULLIKEN_CHARGES')
f=open( 'psi4out.xyz', 'w' )
f.write( "15  " )
f.write( str(ee) + "\n" )
f.write( MOL.save_string_xyz() )
f.close()
--------------------------------------------------------------------------

    Molecular point group: c1
  Charge       = 0
  Multiplicity = 1
  Basis Set: CC-PVTZ
  Basis Set:
  @DF-RHF Final Energy:  -232.23432839314972
    Total Energy =                       -232.2343283931497808
    Molecular point group: c1
  Basis Set: CC-PVTZ
  Basis Set:
  Basis Set: CC-PVTZ
  Basis Set:
  @DF-RHF Final Energy:  -232.23595810617104
    Total Energy =                       -232.2359581061712106
  Basis Set: CC-PVTZ
  Basis Set:
  Basis Set: CC-PVTZ
  Basis Set:
  @DF-RHF Final Energy:  -232.23649795283686
    Total Energy =                       -232.2364979528369986
  Basis Set: CC-PVTZ
  Basis Set:
  Basis Set: CC-PVTZ
  Basis Set:
  @DF-RHF Final Energy:  -232.23650984037857
    Total Energy =                       -232.2365098403786874
  Basis Set: CC-PVTZ
  Basis Set:
  Basis Set: CC-PVTZ
  Basis Set:
  @DF-RHF Final Energy:  -232.23651822164345
    Total Energy =                       -232.2365182216432231
  Basis Set: CC-PVTZ
  Basis Set:
  Charge       = 0
  Multiplicity = 1
  Basis Set: CC-PVTZ
  Basis Set:

    Orbital Energies (a.u.)
    -----------------------

    Doubly Occupied:

       1A    -20.545309     2A    -11.264559     3A    -11.222802
       4A    -11.216231     5A    -11.214514     6A     -1.363378
       7A     -1.073181     8A     -0.977446     9A     -0.881878
      10A     -0.789184    11A     -0.694379    12A     -0.646031
      13A     -0.619346    14A     -0.587793    15A     -0.575759
      16A     -0.547851    17A     -0.505456    18A     -0.492166
      19A     -0.479420    20A     -0.460466    21A     -0.430033

  @DF-RHF Final Energy:  -232.23651897015117

   => Energetics <=

    Nuclear Repulsion Energy =            191.5956431940776383
    One-Electron Energy =                -694.4899621666937719
    Two-Electron Energy =                 270.6578000024650237
    DFT Exchange-Correlation Energy =       0.0000000000000000
    Empirical Dispersion Energy =           0.0000000000000000
    PCM Polarization Energy =               0.0000000000000000
    EFP Energy =                            0.0000000000000000
    Total Energy =                       -232.2365189701511099
    Molecular point group: c1
  Basis Set: CC-PVTZ
  Basis Set:

  -Total Gradient:
     Atom            X                  Y                   Z
    ------   -----------------  -----------------  -----------------
       1       -0.000159156057     0.000626923350    -0.000556681500
       2        0.000038356192    -0.000977604256     0.000684791046
       3        0.000488610332     0.000745601220    -0.000223089047
       4       -0.000351707482    -0.000402506788     0.000065629423
       5        0.000002208758     0.000007329866    -0.000002544475
       6       -0.000002306877     0.000012135415     0.000006026269
       7       -0.000005576165     0.000015294354    -0.000012012031
       8       -0.000009192687     0.000026645578     0.000026389865
       9       -0.000002739982    -0.000022787510     0.000024058773
      10       -0.000021447023     0.000015449802     0.000001213607
      11        0.000007835220    -0.000032513563     0.000016599294
      12        0.000015972628    -0.000015235521    -0.000031566727
      13       -0.000005781319     0.000004235523     0.000006761803
      14       -0.000000654957     0.000000266576    -0.000011628825
      15        0.000005579423    -0.000003234046     0.000006052525

  **** Optimization is complete! (in 6 steps) ****
    Final optimized geometry and variables:
    Molecular point group: c1

    Geometry (in Angstrom), charge = 0, multiplicity = 1:

    H            1.167948401143    -1.169967821155    -0.868324532708
    O            1.783257673559    -0.618602279372    -0.421824677919
    C            1.141391755876     0.104599292805     0.594472437219
    C            0.024283283521     1.007499236906     0.088156184257
    H            1.909445649786     0.712620361092     1.052602493751
    H            0.770705662671    -0.570265525824     1.361356081507
    C           -1.157516805334     0.294891303508    -0.574537663205
    H            0.452519399144     1.710551582467    -0.618868151031
    H           -0.339946825645     1.590863204097     0.930449957086
    C           -1.951677728027    -0.622988766156     0.352168195081
    H           -0.812877998422    -0.268900855045    -1.437578535482
    H           -1.824943425845     1.051105660785    -0.974047413604
    H           -2.811427322201    -1.036721519357    -0.161758038147
    H           -1.357445874423    -1.455419861414     0.711279556467
    H           -2.314417365746    -0.081164536743     1.219325442316

  Mulliken Charges: (a.u.)
   Center  Symbol    Alpha    Beta     Spin     Total
       1     H     0.39239  0.39239  0.00000  0.21523
       2     O     4.20586  4.20586  0.00000 -0.41172
       3     C     2.97816  2.97816  0.00000  0.04368
       4     C     3.09800  3.09800  0.00000 -0.19600
       5     H     0.44755  0.44755  0.00000  0.10491
       6     H     0.46947  0.46947  0.00000  0.06106
       7     C     3.10303  3.10303  0.00000 -0.20607
       8     H     0.44597  0.44597  0.00000  0.10807
       9     H     0.45577  0.45577  0.00000  0.08847
      10     C     3.15095  3.15095  0.00000 -0.30190
      11     H     0.45640  0.45640  0.00000  0.08719
      12     H     0.44393  0.44393  0.00000  0.11214
      13     H     0.44501  0.44501  0.00000  0.10998
      14     H     0.45469  0.45469  0.00000  0.09063
      15     H     0.45283  0.45283  0.00000  0.09433

   Total alpha = 21.00000, Total beta = 21.00000, Total charge = -0.00000
