                              Psi4 1.0.54 Driver

  ==> Input File <==

--------------------------------------------------------------------------
set {
	reference rhf
	basis cc-pvtz
}

set_num_threads( 4 )
memory 2 gb

molecule MOL {
0 1

O	 0.118062	 1.193714	 -0.382436
C	 0.029490	 0.077183	 0.000078
C	 -1.232113	 -0.748027	 0.000015
O	 1.051469	 -0.605569	 0.488587
C	 -2.501422	 0.088592	 -0.000052
H	 -1.188777	 -1.400384	 -0.865133
H	 -1.188857	 -1.400312	 0.865225
H	 -2.548170	 0.725504	 -0.873205
H	 -3.371613	 -0.556398	 -0.000040
H	 -2.548215	 0.725571	 0.873047
C	 2.301849	 0.050779	 0.546880
H	 2.624863	 0.344039	 -0.440994
H	 2.992639	 -0.661323	 0.968241
H	 2.242705	 0.928467	 1.173308

	symmetry c1
}
set optking {
	frozen_dihedral = ("
		4 2 3 6
	")
}

ee,wfn = optimize('scf', return_wfn=True)
oeprop( wfn, 'DIPOLE', 'QUADRUPOLE', 'MULLIKEN_CHARGES')
f=open( 'psi4out.xyz', 'w' )
f.write( "14  " )
f.write( str(ee) + "\n" )
f.write( MOL.save_string_xyz() )
f.close()
--------------------------------------------------------------------------

    Molecular point group: c1
  Charge       = 0
  Multiplicity = 1
  Basis Set: CC-PVTZ
  Basis Set:
  @DF-RHF Final Energy:  -305.98707810033818
    Total Energy =                       -305.9870781003381808
    Molecular point group: c1
  Basis Set: CC-PVTZ
  Basis Set:
  Basis Set: CC-PVTZ
  Basis Set:
  @DF-RHF Final Energy:  -305.98710474406715
    Total Energy =                       -305.9871047440672100
  Basis Set: CC-PVTZ
  Basis Set:
  Basis Set: CC-PVTZ
  Basis Set:
  @DF-RHF Final Energy:  -305.98721458938485
    Total Energy =                       -305.9872145893850757
  Basis Set: CC-PVTZ
  Basis Set:
  Basis Set: CC-PVTZ
  Basis Set:
  @DF-RHF Final Energy:  -305.98727526627965
    Total Energy =                       -305.9872752662797666
  Basis Set: CC-PVTZ
  Basis Set:
  Charge       = 0
  Multiplicity = 1
  Basis Set: CC-PVTZ
  Basis Set:

    Orbital Energies (a.u.)
    -----------------------

    Doubly Occupied:

       1A    -20.598037     2A    -20.534168     3A    -11.365271
       4A    -11.279205     5A    -11.237019     6A    -11.215757
       7A     -1.473339     8A     -1.366477     9A     -1.065294
      10A     -0.981320    11A     -0.879182    12A     -0.771757
      13A     -0.702493    14A     -0.685820    15A     -0.675569
      16A     -0.621580    17A     -0.603888    18A     -0.549792
      19A     -0.538777    20A     -0.520509    21A     -0.516048
      22A     -0.497310    23A     -0.461392    24A     -0.441965

  @DF-RHF Final Energy:  -305.98727552686029

   => Energetics <=

    Nuclear Repulsion Energy =            247.5629148991658326
    One-Electron Energy =                -907.9364440770650617
    Two-Electron Energy =                 354.3862536510390555
    DFT Exchange-Correlation Energy =       0.0000000000000000
    Empirical Dispersion Energy =           0.0000000000000000
    PCM Polarization Energy =               0.0000000000000000
    EFP Energy =                            0.0000000000000000
    Total Energy =                       -305.9872755268601168
    Molecular point group: c1
  Basis Set: CC-PVTZ
  Basis Set:

  -Total Gradient:
     Atom            X                  Y                   Z
    ------   -----------------  -----------------  -----------------
       1        0.000009936759     0.000011286370     0.000017925162
       2        0.000132897540    -0.000258672850    -0.001130810352
       3        0.000483790657    -0.000722304858     0.000840125092
       4       -0.000235217739     0.000288477008     0.000829676941
       5        0.000003938310    -0.000003679317     0.000024871068
       6       -0.000454944414     0.000681269078    -0.000518592306
       7        0.000007736120     0.000010159509    -0.000006711874
       8       -0.000001904382    -0.000008709536     0.000009648316
       9        0.000003499136     0.000007179907    -0.000000602360
      10       -0.000005270019    -0.000002581577    -0.000012823324
      11        0.000065116088    -0.000012774507    -0.000100444487
      12        0.000021572958     0.000011542028     0.000031046432
      13       -0.000001518862     0.000006798700     0.000012581324
      14       -0.000029632154    -0.000007989959     0.000004110368

  **** Optimization is complete! (in 5 steps) ****
    Final optimized geometry and variables:
    Molecular point group: c1

    Geometry (in Angstrom), charge = 0, multiplicity = 1:

    O            0.117016529484     1.176124667492    -0.471516606895
    C            0.039054965422     0.058227579641    -0.089752786808
    C           -1.218653672790    -0.773802207707    -0.097527638985
    O            1.070952657769    -0.619783975050     0.382870620739
    C           -2.488734582604     0.063895978354    -0.137002018171
    H           -1.158454229237    -1.405946503671    -0.978702337535
    H           -1.199027214073    -1.434888666878     0.758352214436
    H           -2.498950023713     0.711044051011    -1.002515016334
    H           -3.358174693247    -0.580647574806    -0.177258831250
    H           -2.571691082113     0.688531375878     0.743691498598
    C            2.324713106457     0.033248641249     0.395682495097
    H            2.620669112532     0.310567231185    -0.605180384726
    H            3.024731587589    -0.674948889279     0.808258824059
    H            2.285218793620     0.920298624647     1.010081985010

  Mulliken Charges: (a.u.)
   Center  Symbol    Alpha    Beta     Spin     Total
       1     O     4.19813  4.19813  0.00000 -0.39627
       2     C     2.80483  2.80483  0.00000  0.39034
       3     C     3.09155  3.09155  0.00000 -0.18310
       4     O     4.14589  4.14589  0.00000 -0.29178
       5     C     3.14099  3.14099  0.00000 -0.28198
       6     H     0.44469  0.44469  0.00000  0.11063
       7     H     0.43874  0.43874  0.00000  0.12253
       8     H     0.44394  0.44394  0.00000  0.11212
       9     H     0.45019  0.45019  0.00000  0.09962
      10     H     0.45192  0.45192  0.00000  0.09617
      11     C     3.03521  3.03521  0.00000 -0.07042
      12     H     0.45449  0.45449  0.00000  0.09102
      13     H     0.44532  0.44532  0.00000  0.10936
      14     H     0.45412  0.45412  0.00000  0.09177

   Total alpha = 24.00000, Total beta = 24.00000, Total charge = -0.00000

*** Psi4 exiting successfully. Buy a developer a beer!
