                              Psi4 1.0.54 Driver

  ==> Input File <==

--------------------------------------------------------------------------
set {
	reference rhf
	basis cc-pvtz
}

set_num_threads( 4 )
memory 2 gb

molecule MOL {
0 1

H	 2.190573	 -0.629143	 -0.208718
O	 1.355408	 -0.529451	 0.208662
C	 0.700177	 0.619554	 -0.266242
C	 -0.713111	 0.588314	 0.266177
H	 0.678680	 0.627133	 -1.351786
H	 1.199747	 1.521489	 0.077736
O	 -1.421673	 -0.521378	 -0.196983
H	 -1.244794	 1.469161	 -0.069059
H	 -0.685100	 0.604721	 1.352683
H	 -1.970324	 -0.249125	 -0.911745

	symmetry c1
}
set optking {
	frozen_dihedral = ("
		10 7 4 3
	")
}

ee,wfn = optimize('scf', return_wfn=True)
oeprop( wfn, 'DIPOLE', 'QUADRUPOLE', 'MULLIKEN_CHARGES')
f=open( 'psi4out.xyz', 'w' )
f.write( "10  " )
f.write( str(ee) + "\n" )
f.write( MOL.save_string_xyz() )
f.close()
--------------------------------------------------------------------------

    Molecular point group: c1
  Charge       = 0
  Multiplicity = 1
  Basis Set: CC-PVTZ
  Basis Set:
  @DF-RHF Final Energy:  -229.02063934266425
    Total Energy =                       -229.0206393426642251
    Molecular point group: c1
  Basis Set: CC-PVTZ
  Basis Set:
  Basis Set: CC-PVTZ
  Basis Set:
  @DF-RHF Final Energy:  -229.02215946256780
    Total Energy =                       -229.0221594625677994
  Basis Set: CC-PVTZ
  Basis Set:
  Basis Set: CC-PVTZ
  Basis Set:
  @DF-RHF Final Energy:  -229.02236444891082
    Total Energy =                       -229.0223644489107642
  Basis Set: CC-PVTZ
  Basis Set:
  Basis Set: CC-PVTZ
  Basis Set:
  @DF-RHF Final Energy:  -229.02237817198790
    Total Energy =                       -229.0223781719878673
  Basis Set: CC-PVTZ
  Basis Set:
  Charge       = 0
  Multiplicity = 1
  Basis Set: CC-PVTZ
  Basis Set:

    Orbital Energies (a.u.)
    -----------------------

    Doubly Occupied:

       1A    -20.547309     2A    -20.545961     3A    -11.269420
       4A    -11.268613     5A     -1.375601     6A     -1.356244
       7A     -1.002852     8A     -0.839700     9A     -0.724718
      10A     -0.686167    11A     -0.648854    12A     -0.598595
      13A     -0.575433    14A     -0.525302    15A     -0.493276
      16A     -0.446791    17A     -0.434608

  @DF-RHF Final Energy:  -229.02237892120840

   => Energetics <=

    Nuclear Repulsion Energy =            133.2551096870656977
    One-Electron Energy =                -577.8760846581717487
    Two-Electron Energy =                 215.5985960498975942
    DFT Exchange-Correlation Energy =       0.0000000000000000
    Empirical Dispersion Energy =           0.0000000000000000
    PCM Polarization Energy =               0.0000000000000000
    EFP Energy =                            0.0000000000000000
    Total Energy =                       -229.0223789212084853
    Molecular point group: c1
  Basis Set: CC-PVTZ
  Basis Set:

  -Total Gradient:
     Atom            X                  Y                   Z
    ------   -----------------  -----------------  -----------------
       1        0.000013939692     0.000027802396    -0.000000105927
       2       -0.000047844067     0.000003383485     0.000020681493
       3        0.000157579132    -0.000373710015     0.000537483099
       4       -0.000419329581     0.000647714533    -0.000649881708
       5       -0.000009756056     0.000001858266     0.000025016511
       6       -0.000006929070    -0.000060859312     0.000003111698
       7        0.001160279907    -0.000489656045    -0.000692759882
       8        0.000016935943    -0.000025346423    -0.000006496006
       9        0.000010381469     0.000007512540     0.000005819764
      10       -0.000875257365     0.000261300572     0.000757130959

  **** Optimization is complete! (in 5 steps) ****
    Final optimized geometry and variables:
    Molecular point group: c1

    Geometry (in Angstrom), charge = 0, multiplicity = 1:

    H            2.243024724786    -0.657735655450    -0.008070458423
    O            1.385011388455    -0.550736206702     0.358071367173
    C            0.744522426827     0.548445500537    -0.220769810562
    C           -0.698995483060     0.571840661976     0.228846714088
    H            0.782956058633     0.496434598613    -1.306518927864
    H            1.219209019144     1.478277898154     0.088827683727
    O           -1.446482804854    -0.487414529231    -0.301496483684
    H           -1.134493643260     1.530444454436    -0.038932734727
    H           -0.726959170357     0.485286266403     1.307648371166
    H           -1.950222521923    -0.195557429237    -1.037008696805

  Mulliken Charges: (a.u.)
   Center  Symbol    Alpha    Beta     Spin     Total
       1     H     0.39564  0.39564  0.00000  0.20872
       2     O     4.19273  4.19273  0.00000 -0.38546
       3     C     2.95471  2.95471  0.00000  0.09058
       4     C     2.97177  2.97177  0.00000  0.05647
       5     H     0.48114  0.48114  0.00000  0.03772
       6     H     0.47894  0.47894  0.00000  0.04213
       7     O     4.19858  4.19858  0.00000 -0.39717
       8     H     0.47310  0.47310  0.00000  0.05380
       9     H     0.45884  0.45884  0.00000  0.08233
      10     H     0.39456  0.39456  0.00000  0.21088

   Total alpha = 17.00000, Total beta = 17.00000, Total charge = -0.00000

*** Psi4 exiting successfully. Buy a developer a beer!
