  ==> Input File <==

--------------------------------------------------------------------------
set {
	reference rhf
	basis cc-pvtz
}

set_num_threads( 4 )
memory 2 gb

molecule MOL {
0 1

H	 -2.635986	 -0.125199	 2.720749
C	 -1.721831	 -0.209645	 2.166399
C	 -1.475550	 -1.325854	 1.379471
C	 -0.774396	 0.785844	 2.223357
H	 -2.203378	 -2.112983	 1.322663
C	 -0.305662	 -1.438133	 0.667587
H	 -0.947061	 1.656964	 2.826701
C	 0.412645	 0.688503	 1.510706
H	 -0.105652	 -2.296307	 0.056683
C	 0.648359	 -0.427863	 0.729525
H	 1.129697	 1.480340	 1.576214
O	 1.760432	 -0.625184	 0.000000
C	 2.773565	 0.334879	 0.000000
H	 2.728295	 0.960928	 -0.884150
H	 3.706387	 -0.206610	 0.000000
H	 2.728295	 0.960928	 0.884150

	symmetry c1
}
set optking {
	frozen_dihedral = ("
		10 12 13 14
	")
}

ee = optimize('scf')
oeprop('DIPOLE', 'QUADRUPOLE', 'MULLIKEN_CHARGES')
f=open( 'psi4out.xyz', 'w' )
f.write( "16  " )
f.write( str(ee) + "\n" )
f.write( MOL.save_string_xyz() )
f.close()
--------------------------------------------------------------------------

    Molecular point group: c1
  Charge       = 0
  Multiplicity = 1
  Basis Set: CC-PVTZ
  Basis Set:
  @DF-RHF Final Energy:  -344.69821307695400
    Total Energy =                       -344.6982130769540618
    Molecular point group: c1
  Basis Set: CC-PVTZ
  Basis Set:
  Basis Set: CC-PVTZ
  Basis Set:
  @DF-RHF Final Energy:  -344.69777893164985
    Total Energy =                       -344.6977789316497365
  Basis Set: CC-PVTZ
  Basis Set:
  Basis Set: CC-PVTZ
  Basis Set:
  @DF-RHF Final Energy:  -344.70023359577351
    Total Energy =                       -344.7002335957733976
  Basis Set: CC-PVTZ
  Basis Set:
  Basis Set: CC-PVTZ
  Basis Set:
  @DF-RHF Final Energy:  -344.70072224533908
    Total Energy =                       -344.7007222453389659
  Basis Set: CC-PVTZ
  Basis Set:
  Basis Set: CC-PVTZ
  Basis Set:
  @DF-RHF Final Energy:  -344.70095152701799
    Total Energy =                       -344.7009515270183329
  Basis Set: CC-PVTZ
  Basis Set:
  Basis Set: CC-PVTZ
  Basis Set:
  @DF-RHF Final Energy:  -344.70096424479965
    Total Energy =                       -344.7009642447998772
  Basis Set: CC-PVTZ
  Basis Set:
  Basis Set: CC-PVTZ
  Basis Set:
  @DF-RHF Final Energy:  -344.70096635014301
    Total Energy =                       -344.7009663501430055
  Basis Set: CC-PVTZ
  Basis Set:
  Charge       = 0
  Multiplicity = 1
  Basis Set: CC-PVTZ
  Basis Set:

    Orbital Energies (a.u.)
    -----------------------

    Doubly Occupied:

       1A    -20.576062     2A    -11.292611     3A    -11.277551
       4A    -11.231413     5A    -11.230046     6A    -11.222260
       7A    -11.218266     8A    -11.217813     9A     -1.414874
      10A     -1.151088    11A     -1.024634    12A     -1.016966
      13A     -0.942659    14A     -0.835396    15A     -0.808499
      16A     -0.724018    17A     -0.667222    18A     -0.666584
      19A     -0.656359    20A     -0.618053    21A     -0.591573
      22A     -0.582167    23A     -0.529185    24A     -0.519842
      25A     -0.511670    26A     -0.482989    27A     -0.459272
      28A     -0.339562    29A     -0.311657

  @DF-RHF Final Energy:  -344.70096674898718

   => Energetics <=

    Nuclear Repulsion Energy =            348.5272005236779478
    One-Electron Energy =               -1158.2157508760199107
    Two-Electron Energy =                 464.9875836033547216
    DFT Exchange-Correlation Energy =       0.0000000000000000
    Empirical Dispersion Energy =           0.0000000000000000
    PCM Polarization Energy =               0.0000000000000000
    EFP Energy =                            0.0000000000000000
    Total Energy =                       -344.7009667489872413
    Molecular point group: c1
  Basis Set: CC-PVTZ
  Basis Set:

  -Total Gradient:
     Atom            X                  Y                   Z
    ------   -----------------  -----------------  -----------------
       1       -0.000004339486    -0.000005656908     0.000001452833
       2        0.000038571849     0.000048224240     0.000022058266
       3       -0.000006939301    -0.000016068174    -0.000048015858
       4       -0.000060411970    -0.000001471282     0.000014010729
       5        0.000001095034     0.000008272786     0.000011826170
       6        0.000012350188     0.000007442980    -0.000026985239
       7        0.000000264253    -0.000001383149     0.000001238747
       8        0.000021768866    -0.000039730875    -0.000059029155
       9        0.000005700311     0.000000606868    -0.000002632806
      10        0.000877808010    -0.002136240276     0.001681021168
      11        0.000004436253    -0.000003565784    -0.000003298862
      12       -0.000967063935     0.002672907475    -0.002931787412
      13       -0.001356335670     0.001084588257     0.003582364063
      14        0.001496720861    -0.001610710423    -0.002239839062
      15       -0.000044626551    -0.000013047500     0.000015890955
      16       -0.000018998717     0.000005831764    -0.000018274535

  **** Optimization is complete! (in 8 steps) ****
    Final optimized geometry and variables:
    Molecular point group: c1

    Geometry (in Angstrom), charge = 0, multiplicity = 1:

    H           -2.797746582201     0.015951655190     1.831453633737
    C           -1.921352848273    -0.016698281531     1.214074924366
    C           -1.645720569213    -1.134836278128     0.443480619501
    C           -1.055250602972     1.053924096167     1.171651571735
    H           -2.311243887352    -1.976969930578     0.463313631171
    C           -0.519709430825    -1.183093291070    -0.347107512855
    H           -1.258424194456     1.931988350290     1.755056447370
    C            0.078305804281     1.022542633058     0.375584145797
    H           -0.295896861461    -2.044378112293    -0.945204888643
    C            0.351738121015    -0.103288387407    -0.380896829097
    H            0.726330385193     1.875176476703     0.342014316697
    O            1.412214431764    -0.211554668167    -1.204147378651
    C            2.593183016616     0.493373576251    -0.938386606044
    H            2.651180911909     1.387808217121    -1.547742034777
    H            3.414866143610    -0.152702452170    -1.213254090795
    H            2.686332354900     0.749854631916     0.107586734033

  Mulliken Charges: (a.u.)
   Center  Symbol    Alpha    Beta     Spin     Total
       1     H     0.42431  0.42431  0.00000  0.15138
       2     C     3.09877  3.09877  0.00000 -0.19753
       3     C     3.05942  3.05942  0.00000 -0.11884
       4     C     3.06372  3.06372  0.00000 -0.12744
       5     H     0.42288  0.42288  0.00000  0.15425
       6     C     3.11006  3.11006  0.00000 -0.22012
       7     H     0.42300  0.42300  0.00000  0.15400
       8     C     3.13404  3.13404  0.00000 -0.26807
       9     H     0.41979  0.41979  0.00000  0.16043
      10     C     2.85597  2.85597  0.00000  0.28806
      11     H     0.42325  0.42325  0.00000  0.15350
      12     O     4.15887  4.15887  0.00000 -0.31774
      13     C     3.04136  3.04136  0.00000 -0.08273
      14     H     0.45673  0.45673  0.00000  0.08655
      15     H     0.44431  0.44431  0.00000  0.11138
      16     H     0.46354  0.46354  0.00000  0.07291

   Total alpha = 29.00000, Total beta = 29.00000, Total charge =  0.00000
