                              Psi4 1.0.54 Driver

  ==> Input File <==

--------------------------------------------------------------------------
set {
	reference rhf
	basis cc-pvtz
}

set_num_threads( 4 )
memory 2 gb

molecule MOL {
0 1

O	 1.299877	 -2.661084	 -0.735478
C	 0.400409	 -1.973662	 -0.391549
C	 -1.039054	 -2.399307	 -0.342253
O	 0.550743	 -0.719877	 0.000412
H	 -1.414109	 -2.294636	 0.667590
H	 -1.124200	 -3.423638	 -0.666336
H	 -1.629867	 -1.755319	 -0.980734
C	 1.863204	 -0.194033	 0.000410
H	 2.031502	 0.409177	 -0.879273
H	 2.524488	 -1.045142	 0.000793
H	 2.031291	 0.409823	 0.879686

	symmetry c1
}
set optking {
	frozen_dihedral = ("
		2 4 8 9
	")
}

ee,wfn = optimize('scf', return_wfn=True)
oeprop( wfn, 'DIPOLE', 'QUADRUPOLE', 'MULLIKEN_CHARGES')
f=open( 'psi4out.xyz', 'w' )
f.write( "11  " )
f.write( str(ee) + "\n" )
f.write( MOL.save_string_xyz() )
f.close()
--------------------------------------------------------------------------

    Molecular point group: c1
  Charge       = 0
  Multiplicity = 1
  Basis Set: CC-PVTZ
  Basis Set:
  @DF-RHF Final Energy:  -266.93577175529782
    Total Energy =                       -266.9357717552979352
    Molecular point group: c1
  Basis Set: CC-PVTZ
  Basis Set:
  Basis Set: CC-PVTZ
  Basis Set:
  @DF-RHF Final Energy:  -266.93687743508048
    Total Energy =                       -266.9368774350803051
  Basis Set: CC-PVTZ
  Basis Set:
  Basis Set: CC-PVTZ
  Basis Set:
  @DF-RHF Final Energy:  -266.93761968940743
    Total Energy =                       -266.9376196894072564
  Basis Set: CC-PVTZ
  Basis Set:
  Basis Set: CC-PVTZ
  Basis Set:
  @DF-RHF Final Energy:  -266.93743448419553
    Total Energy =                       -266.9374344841956486
  Basis Set: CC-PVTZ
  Basis Set:
  Basis Set: CC-PVTZ
  Basis Set:
  @DF-RHF Final Energy:  -266.93768214758302
    Total Energy =                       -266.9376821475831889
  Basis Set: CC-PVTZ
  Basis Set:
  Charge       = 0
  Multiplicity = 1
  Basis Set: CC-PVTZ
  Basis Set:

    Orbital Energies (a.u.)
    -----------------------

    Doubly Occupied:

       1A    -20.597978     2A    -20.534655     3A    -11.369804
       4A    -11.278899     5A    -11.232750     6A     -1.472315
       7A     -1.368068     8A     -1.037031     9A     -0.954119
      10A     -0.779302    11A     -0.699167    12A     -0.682657
      13A     -0.681044    14A     -0.597536    15A     -0.592857
      16A     -0.561683    17A     -0.529966    18A     -0.521817
      19A     -0.459497    20A     -0.445860

  @DF-RHF Final Energy:  -266.93768380282006

   => Energetics <=

    Nuclear Repulsion Energy =            183.3467033279184761
    One-Electron Energy =                -727.7747590189807170
    Two-Electron Energy =                 277.4903718882421231
    DFT Exchange-Correlation Energy =       0.0000000000000000
    Empirical Dispersion Energy =           0.0000000000000000
    PCM Polarization Energy =               0.0000000000000000
    EFP Energy =                            0.0000000000000000
    Total Energy =                       -266.9376838028201178
    Molecular point group: c1
  Basis Set: CC-PVTZ
  Basis Set:

  -Total Gradient:
     Atom            X                  Y                   Z
    ------   -----------------  -----------------  -----------------
       1        0.000068982600     0.000092543595     0.000002594120
       2        0.000031572028    -0.000272792705     0.001197889331
       3       -0.000024968950     0.000027891220    -0.000004925764
       4       -0.000235242414     0.000700947566    -0.001522698928
       5       -0.000000938615     0.000001809118    -0.000004572835
       6        0.000024755320     0.000023827338     0.000001415442
       7        0.000007657015    -0.000011209874     0.000004154070
       8        0.000610827256    -0.001628342693    -0.000266411114
       9       -0.000487229169     0.001094756297     0.000592605969
      10        0.000051032137    -0.000007123591    -0.000000099913
      11       -0.000046447207    -0.000022306272     0.000000049623

  **** Optimization is complete! (in 6 steps) ****
    Final optimized geometry and variables:
    Molecular point group: c1

    Geometry (in Angstrom), charge = 0, multiplicity = 1:

    O            0.648591846523    -1.139274570234    -0.387451425334
    C           -0.232352966716    -0.405579082901    -0.096245526926
    C           -1.685806572770    -0.783744459043    -0.062423120265
    O           -0.060384398546     0.862146259160     0.241018984281
    H           -2.080454279706    -0.620388545667     0.931987820754
    H           -1.796170743538    -1.818772919193    -0.341692640716
    H           -2.240267732958    -0.151844862791    -0.744061092990
    C            1.251994991731     1.388986454527     0.289484180147
    H            1.446861669179     1.946289867905    -0.616161303622
    H            1.980480587068     0.604743588268     0.403106203750
    H            1.286178594220     2.060848180672     1.133211975645

  Mulliken Charges: (a.u.)
   Center  Symbol    Alpha    Beta     Spin     Total
       1     O     4.19713  4.19713  0.00000 -0.39427
       2     C     2.79885  2.79885  0.00000  0.40231
       3     C     3.13931  3.13931  0.00000 -0.27861
       4     O     4.14936  4.14936  0.00000 -0.29872
       5     H     0.44579  0.44579  0.00000  0.10841
       6     H     0.43794  0.43794  0.00000  0.12411
       7     H     0.44537  0.44537  0.00000  0.10925
       8     C     3.03565  3.03565  0.00000 -0.07130
       9     H     0.45578  0.45578  0.00000  0.08845
      10     H     0.44521  0.44521  0.00000  0.10957
      11     H     0.44960  0.44960  0.00000  0.10080

   Total alpha = 20.00000, Total beta = 20.00000, Total charge =  0.00000

*** Psi4 exiting successfully. Buy a developer a beer!
