                              Psi4 1.0.54 Driver

  ==> Input File <==

--------------------------------------------------------------------------
set {
	reference rhf
	basis cc-pvtz
}

set_num_threads( 4 )
memory 2 gb

molecule MOL {
0 1

O	 -2.071633	 -1.227563	 -0.223463
C	 -1.652164	 -0.152425	 0.058082
C	 -0.327811	 0.006324	 0.778296
C	 -2.402515	 1.108629	 -0.298924
C	 0.843231	 -0.001575	 -0.211665
H	 -0.319484	 0.928173	 1.350354
H	 -0.227804	 -0.823091	 1.466705
C	 0.762384	 -1.152131	 -1.210622
H	 1.783125	 -0.064854	 0.330818
H	 0.854909	 0.943840	 -0.743095
C	 1.918281	 -1.156683	 -2.205128
H	 0.744829	 -2.095972	 -0.672680
H	 -0.178165	 -1.090091	 -1.750121
H	 2.872084	 -1.253063	 -1.697185
H	 1.942346	 -0.237607	 -2.780532
H	 1.830556	 -1.981565	 -2.902461
H	 -3.240910	 0.874416	 -0.936711
H	 -1.747554	 1.818823	 -0.790984
H	 -2.760419	 1.579708	 0.610998

	symmetry c1
}
set optking {
	frozen_dihedral = ("
		9 5 3 2
	")
}

ee,wfn = optimize('scf', return_wfn=True)
oeprop( wfn, 'DIPOLE', 'QUADRUPOLE', 'MULLIKEN_CHARGES')
f=open( 'psi4out.xyz', 'w' )
f.write( "19  " )
f.write( str(ee) + "\n" )
f.write( MOL.save_string_xyz() )
f.close()
--------------------------------------------------------------------------

    Molecular point group: c1
  Charge       = 0
  Multiplicity = 1
  Basis Set: CC-PVTZ
  Basis Set:
  @DF-RHF Final Energy:  -309.17254305770683
    Total Energy =                       -309.1725430577072302
    Molecular point group: c1
  Basis Set: CC-PVTZ
  Basis Set:
  Basis Set: CC-PVTZ
  Basis Set:
  @DF-RHF Final Energy:  -309.17428833932530
    Total Energy =                       -309.1742883393255283
  Basis Set: CC-PVTZ
  Basis Set:
  Basis Set: CC-PVTZ
  Basis Set:
  @DF-RHF Final Energy:  -309.17320985544251
    Total Energy =                       -309.1732098554424510
  Basis Set: CC-PVTZ
  Basis Set:
  Basis Set: CC-PVTZ
  Basis Set:
  @DF-RHF Final Energy:  -309.17490772538707
    Total Energy =                       -309.1749077253869018
  Basis Set: CC-PVTZ
  Basis Set:
  @DF-RHF Final Energy:  -309.17512161918233
    Total Energy =                       -309.1751216191825051
  @DF-RHF Final Energy:  -309.17538506150652
    Total Energy =                       -309.1753850615062902
  @DF-RHF Final Energy:  -309.17543236066672
    Total Energy =                       -309.1754323606664343
  @DF-RHF Final Energy:  -309.17544833844255
    Total Energy =                       -309.1754483384424930
  Basis Set: CC-PVTZ
  Basis Set:
  @DF-RHF Final Energy:  -309.17545763320078
    Total Energy =                       -309.1754576332008355
  Basis Set: CC-PVTZ
  Basis Set:
  Basis Set: CC-PVTZ
  Basis Set:
  @DF-RHF Final Energy:  -309.17546234822663
    Total Energy =                       -309.1754623482268016
  Basis Set: CC-PVTZ
  Basis Set:
  Basis Set: CC-PVTZ
  Basis Set:
  @DF-RHF Final Energy:  -309.17546398155980
    Total Energy =                       -309.1754639815599148
  Basis Set: CC-PVTZ
  Basis Set:
  Charge       = 0
  Multiplicity = 1
  Basis Set: CC-PVTZ
  Basis Set:

    Orbital Energies (a.u.)
    -----------------------

    Doubly Occupied:

       1A    -20.537670     2A    -11.319296     3A    -11.230554
       4A    -11.228322     5A    -11.226466     6A    -11.220535
       7A    -11.212647     8A     -1.397416     9A     -1.093149
      10A     -1.027713    11A     -0.984010    12A     -0.892200
      13A     -0.812718    14A     -0.730116    15A     -0.661855
      16A     -0.646146    17A     -0.623180    18A     -0.616824
      19A     -0.586390    20A     -0.574142    21A     -0.553533
      22A     -0.542409    23A     -0.512484    24A     -0.501625
      25A     -0.486027    26A     -0.473927    27A     -0.465850
      28A     -0.400102

  @DF-RHF Final Energy:  -309.17546467164811

   => Energetics <=

    Nuclear Repulsion Energy =            309.3451445712253189
    One-Electron Energy =               -1031.9266053709143307
    Two-Electron Energy =                 413.4059961280412381
    DFT Exchange-Correlation Energy =       0.0000000000000000
    Empirical Dispersion Energy =           0.0000000000000000
    PCM Polarization Energy =               0.0000000000000000
    EFP Energy =                            0.0000000000000000
    Total Energy =                       -309.1754646716477737
    Molecular point group: c1
  Basis Set: CC-PVTZ
  Basis Set:

  -Total Gradient:
     Atom            X                  Y                   Z
    ------   -----------------  -----------------  -----------------
       1       -0.000005981327     0.000014581980     0.000034532121
       2        0.000168132580    -0.002122305463     0.000041196989
       3       -0.000265892882     0.002379914210    -0.000135176664
       4        0.000023477870    -0.000027993586    -0.000078040806
       5        0.000234931862     0.002566777606     0.000361596365
       6       -0.000003855460    -0.000001755700     0.000001859769
       7        0.000000603674     0.000000168218     0.000003418691
       8        0.000010351703    -0.000002104197    -0.000002664612
       9       -0.000143105864    -0.002833821355    -0.000284123397
      10       -0.000003214724     0.000000923075     0.000001542210
      11        0.000000373899     0.000001824406    -0.000004108565
      12       -0.000001315741    -0.000001535329    -0.000001178558
      13        0.000006839905     0.000001144077     0.000000633801
      14       -0.000003541204    -0.000000512693     0.000001512072
      15        0.000000126890    -0.000001273679     0.000000392371
      16        0.000002439349     0.000000487259    -0.000001071127
      17       -0.000005228350    -0.000000960459     0.000005177246
      18        0.000001896683     0.000020845978     0.000015266717
      19       -0.000017038863     0.000005595652     0.000039235375

  **** Optimization is complete! (in 12 steps) ****
    Final optimized geometry and variables:
    Molecular point group: c1

    Geometry (in Angstrom), charge = 0, multiplicity = 1:

    O           -1.812466700280    -0.815657361060     0.920548448049
    C           -1.196611603264     0.187740937823     0.762497102600
    C            0.242617912909     0.310293124042     1.224140608348
    C           -1.824094222464     1.399104339472     0.110769314844
    C            1.268433444335     0.373457900799     0.081128108070
    H            0.339393208249     1.199077193981     1.840138193825
    H            0.441787919357    -0.551600078344     1.846750320928
    C            1.111824842509    -0.730821528720    -0.963852963926
    H            2.253877794543     0.279038071398     0.525221794180
    H            1.235067875589     1.343702380227    -0.404312844174
    C            2.216735208171    -0.701403747326    -2.014370679997
    H            1.106765480034    -1.695438863000    -0.466043627058
    H            0.148676630462    -0.644934853098    -1.457118985972
    H            3.193031906664    -0.834274704310    -1.560379939504
    H            2.227238888199     0.243883117822    -2.547185961550
    H            2.081726909364    -1.490317238319    -2.744718029706
    H           -2.810879778834     1.151379557056    -0.248943645187
    H           -1.213609623569     1.759909165561    -0.708423100419
    H           -1.895312560953     2.202310297978     0.836998018143

  Mulliken Charges: (a.u.)
   Center  Symbol    Alpha    Beta     Spin     Total
       1     O     4.17709  4.17709  0.00000 -0.35417
       2     C     2.85375  2.85375  0.00000  0.29251
       3     C     3.10752  3.10752  0.00000 -0.21504
       4     C     3.15516  3.15516  0.00000 -0.31032
       5     C     3.11615  3.11615  0.00000 -0.23229
       6     H     0.44106  0.44106  0.00000  0.11787
       7     H     0.43827  0.43827  0.00000  0.12345
       8     C     3.08342  3.08342  0.00000 -0.16684
       9     H     0.44181  0.44181  0.00000  0.11638
      10     H     0.44897  0.44897  0.00000  0.10205
      11     C     3.15050  3.15050  0.00000 -0.30100
      12     H     0.44547  0.44547  0.00000  0.10906
      13     H     0.45059  0.45059  0.00000  0.09882
      14     H     0.45427  0.45427  0.00000  0.09145
      15     H     0.45604  0.45604  0.00000  0.08792
      16     H     0.44584  0.44584  0.00000  0.10831
      17     H     0.43501  0.43501  0.00000  0.12998
      18     H     0.45056  0.45056  0.00000  0.09887
      19     H     0.44851  0.44851  0.00000  0.10298

   Total alpha = 28.00000, Total beta = 28.00000, Total charge = -0.00000

*** Psi4 exiting successfully. Buy a developer a beer!
