                              Psi4 1.0.54 Driver

  ==> Input File <==

--------------------------------------------------------------------------
set {
	reference rhf
	basis cc-pvtz
}

set_num_threads( 4 )
memory 2 gb

molecule MOL {
0 1

H	 -2.230379	 1.654729	 -2.582847
C	 -2.644970	 0.746941	 -2.123587
C	 -1.768456	 -0.471752	 -2.225579
O	 -3.709210	 0.777098	 -1.609980
C	 -0.340726	 -0.217992	 -1.732765
H	 -2.239751	 -1.281326	 -1.683541
H	 -1.739767	 -0.746065	 -3.277831
C	 -0.247837	 0.040196	 -0.230469
H	 0.268344	 -1.078072	 -1.988962
H	 0.082836	 0.623866	 -2.275041
C	 1.181757	 0.280428	 0.247371
H	 -0.669386	 -0.808272	 0.301984
H	 -0.862857	 0.896298	 0.034613
C	 2.151032	 -0.811012	 -0.202643
H	 1.515939	 1.247397	 -0.115449
H	 1.191514	 0.341223	 1.333422
C	 3.580021	 -0.656538	 0.320835
H	 2.170545	 -0.847575	 -1.289412
H	 1.766632	 -1.772905	 0.124928
C	 4.327657	 0.562694	 -0.213579
H	 4.138806	 -1.549270	 0.057813
H	 3.561991	 -0.620783	 1.406976
H	 4.355973	 0.557257	 -1.298551
H	 3.867136	 1.491650	 0.100501
H	 5.351524	 0.571613	 0.142204

	symmetry c1
}
set optking {
	frozen_dihedral = ("
		12 8 11 14
	")
}

ee,wfn = optimize('scf', return_wfn=True)
oeprop( wfn, 'DIPOLE', 'QUADRUPOLE', 'MULLIKEN_CHARGES')
f=open( 'psi4out.xyz', 'w' )
f.write( "25  " )
f.write( str(ee) + "\n" )
f.write( MOL.save_string_xyz() )
f.close()
--------------------------------------------------------------------------

    Molecular point group: c1
  Charge       = 0
  Multiplicity = 1
  Basis Set: CC-PVTZ
  Basis Set:
  @DF-RHF Final Energy:  -387.25644712442585
    Total Energy =                       -387.2564471244257902
    Molecular point group: c1
  Basis Set: CC-PVTZ
  Basis Set:
  Basis Set: CC-PVTZ
  Basis Set:
  @DF-RHF Final Energy:  -387.18098219455811
    Total Energy =                       -387.1809821945576005
  Basis Set: CC-PVTZ
  Basis Set:
  Basis Set: CC-PVTZ
  Basis Set:
  @DF-RHF Final Energy:  -387.25003793358945
    Total Energy =                       -387.2500379335897378
  Basis Set: CC-PVTZ
  Basis Set:
  Basis Set: CC-PVTZ
  Basis Set:
  @DF-RHF Final Energy:  -387.25765380312686
    Total Energy =                       -387.2576538031265727
  Basis Set: CC-PVTZ
  Basis Set:
  @DF-RHF Final Energy:  -387.25795812238908
    Total Energy =                       -387.2579581223894820
  @DF-RHF Final Energy:  -387.25791020208970
    Total Energy =                       -387.2579102020899882
  Basis Set: CC-PVTZ
  Basis Set:
  @DF-RHF Final Energy:  -387.25782850635386
    Total Energy =                       -387.2578285063547128
  Basis Set: CC-PVTZ
  Basis Set:
  Basis Set: CC-PVTZ
  Basis Set:
  @DF-RHF Final Energy:  -387.25799954287322
    Total Energy =                       -387.2579995428729944
  Basis Set: CC-PVTZ
  Basis Set:
  Basis Set: CC-PVTZ
  Basis Set:
  @DF-RHF Final Energy:  -387.25800360299746
    Total Energy =                       -387.2580036029972916
  Basis Set: CC-PVTZ
  Basis Set:
  Charge       = 0
  Multiplicity = 1
  Basis Set: CC-PVTZ
  Basis Set:

    Orbital Energies (a.u.)
    -----------------------

    Doubly Occupied:

       1A    -20.551334     2A    -11.320944     3A    -11.233760
       4A    -11.232450     5A    -11.222272     6A    -11.218262
       7A    -11.217433     8A    -11.216489     9A    -11.209722
      10A     -1.406292    11A     -1.105712    12A     -1.070400
      13A     -1.013983    14A     -0.941429    15A     -0.884320
      16A     -0.824187    17A     -0.791926    18A     -0.772116
      19A     -0.668103    20A     -0.658855    21A     -0.634612
      22A     -0.626985    23A     -0.601089    24A     -0.599128
      25A     -0.586586    26A     -0.547238    27A     -0.539518
      28A     -0.527908    29A     -0.515658    30A     -0.502477
      31A     -0.487421    32A     -0.478879    33A     -0.460935
      34A     -0.453077    35A     -0.449030    36A     -0.411526

  @DF-RHF Final Energy:  -387.25800434253040

   => Energetics <=

    Nuclear Repulsion Energy =            443.9063282010943112
    One-Electron Energy =               -1404.3645510606338576
    Two-Electron Energy =                 573.2002185170090343
    DFT Exchange-Correlation Energy =       0.0000000000000000
    Empirical Dispersion Energy =           0.0000000000000000
    PCM Polarization Energy =               0.0000000000000000
    EFP Energy =                            0.0000000000000000
    Total Energy =                       -387.2580043425305121
    Molecular point group: c1
  Basis Set: CC-PVTZ
  Basis Set:

  -Total Gradient:
     Atom            X                  Y                   Z
    ------   -----------------  -----------------  -----------------
       1       -0.000000446224     0.000050897853    -0.000079321974
       2        0.000133042387     0.000061854857     0.000062881045
       3        0.000099838022     0.000045436208     0.000003614916
       4       -0.000187109390    -0.000036573382     0.000013453516
       5       -0.000030618328     0.000009766697    -0.000078719221
       6       -0.000039337614    -0.000041916497     0.000068831883
       7        0.000061264582    -0.000082544274    -0.000046746897
       8        0.002130694194    -0.001742115473    -0.002687336452
       9       -0.000064772476     0.000002599256    -0.000035038405
      10       -0.000043474418     0.000020832744     0.000021985414
      11       -0.000729091899    -0.000791823202     0.003011105900
      12       -0.001674415617     0.001634630308     0.001579586920
      13        0.000039381266    -0.000006266524     0.000009421047
      14        0.000296799081     0.000876286850    -0.001899240284
      15        0.000000047124    -0.000021094732     0.000027083488
      16        0.000008066027     0.000009918544    -0.000005052882
      17       -0.000038384674    -0.000003662621    -0.000006529376
      18        0.000012110175     0.000007381822     0.000011050299
      19        0.000002230475    -0.000006913491    -0.000003496923
      20        0.000030108768     0.000018006825     0.000030570971
      21       -0.000028535097     0.000004285091     0.000007047393
      22       -0.000001715788     0.000015100108     0.000022367977
      23       -0.000003919261    -0.000001517034    -0.000024485348
      24        0.000038922185    -0.000019137114     0.000007866566
      25       -0.000010683505    -0.000003432824    -0.000010899577

  **** Optimization is complete! (in 10 steps) ****
    Final optimized geometry and variables:
    Molecular point group: c1

    Geometry (in Angstrom), charge = 0, multiplicity = 1:

    H           -2.637400105098     0.557115320132    -2.130170490307
    C           -2.876793018251    -0.337811903435    -1.539410296193
    C           -1.748016649926    -1.322438248268    -1.394732390504
    O           -3.959592562151    -0.474262712276    -1.085081442387
    C           -0.446862806272    -0.672329050680    -0.914817264059
    H           -2.066068359603    -2.115902054577    -0.730625235203
    H           -1.588376351304    -1.756323921703    -2.379575481611
    C           -0.522113663988    -0.174478414756     0.527374899747
    H            0.350226300379    -1.397084611812    -1.019208789070
    H           -0.193639076964     0.155122532269    -1.574103850024
    C            0.707686058437     0.594426306237     1.018305076439
    H           -0.719095782412    -1.010240770564     1.194004715426
    H           -1.384217675372     0.479030786306     0.632022678080
    C            2.037581511550    -0.143975600764     0.860502238531
    H            0.756866882624     1.542624665809     0.491283690261
    H            0.558435363545     0.838303297641     2.066138853555
    C            3.220200899868     0.533311617713     1.556074692409
    H            2.272803276525    -0.262722172092    -0.192801177384
    H            1.932065034697    -1.148075285315     1.264457587138
    C            3.605191420688     1.893293550224     0.978673521650
    H            4.079198611628    -0.127412772901     1.492024593612
    H            2.999505781375     0.640956568368     2.614665173926
    H            3.821022991904     1.819090135137    -0.082572270720
    H            2.817219061179     2.625728796224     1.105520821637
    H            4.491106950742     2.281177044189     1.468063686132

  Mulliken Charges: (a.u.)
   Center  Symbol    Alpha    Beta     Spin     Total
       1     H     0.46407  0.46407  0.00000  0.07186
       2     C     2.90607  2.90607  0.00000  0.18785
       3     C     3.08627  3.08627  0.00000 -0.17253
       4     O     4.16583  4.16583  0.00000 -0.33166
       5     C     3.12096  3.12096  0.00000 -0.24191
       6     H     0.44284  0.44284  0.00000  0.11432
       7     H     0.44026  0.44026  0.00000  0.11948
       8     C     3.09892  3.09892  0.00000 -0.19784
       9     H     0.43932  0.43932  0.00000  0.12137
      10     H     0.44897  0.44897  0.00000  0.10206
      11     C     3.10115  3.10115  0.00000 -0.20229
      12     H     0.44802  0.44802  0.00000  0.10396
      13     H     0.44276  0.44276  0.00000  0.11448
      14     C     3.09898  3.09898  0.00000 -0.19795
      15     H     0.45088  0.45088  0.00000  0.09825
      16     H     0.44583  0.44583  0.00000  0.10833
      17     C     3.08976  3.08976  0.00000 -0.17951
      18     H     0.45200  0.45200  0.00000  0.09601
      19     H     0.44834  0.44834  0.00000  0.10332
      20     C     3.15320  3.15320  0.00000 -0.30639
      21     H     0.44808  0.44808  0.00000  0.10384
      22     H     0.45369  0.45369  0.00000  0.09262
      23     H     0.45539  0.45539  0.00000  0.08923
      24     H     0.45293  0.45293  0.00000  0.09414
      25     H     0.44550  0.44550  0.00000  0.10900

   Total alpha = 36.00000, Total beta = 36.00000, Total charge =  0.00000

*** Psi4 exiting successfully. Buy a developer a beer!
