                              Psi4 1.0.54 Driver

  ==> Input File <==

--------------------------------------------------------------------------
set {
	reference rhf
	basis cc-pvtz
}

set_num_threads( 4 )
memory 2 gb

molecule MOL {
0 1

H	 -1.088256	 -1.364742	 0.152233
O	 -1.432053	 -0.565244	 -0.200812
C	 -0.727158	 0.534527	 0.310686
C	 0.680222	 0.664433	 -0.252229
H	 -1.306802	 1.408001	 0.044211
H	 -0.690821	 0.490158	 1.397609
C	 1.710092	 -0.217387	 0.447633
H	 0.653140	 0.427089	 -1.310608
H	 0.979712	 1.705558	 -0.168478
H	 1.476164	 -1.270196	 0.333629
H	 2.698906	 -0.063345	 0.032819
H	 1.760511	 0.003418	 1.509546

	symmetry c1
}
set optking {
	frozen_dihedral = ("
		8 4 3 2
	")
}

ee,wfn = optimize('scf', return_wfn=True)
oeprop( wfn, 'DIPOLE', 'QUADRUPOLE', 'MULLIKEN_CHARGES')
f=open( 'psi4out.xyz', 'w' )
f.write( "12  " )
f.write( str(ee) + "\n" )
f.write( MOL.save_string_xyz() )
f.close()
--------------------------------------------------------------------------

    Molecular point group: c1
  Charge       = 0
  Multiplicity = 1
  Basis Set: CC-PVTZ
  Basis Set:
  @DF-RHF Final Energy:  -193.18914789848560
    Total Energy =                       -193.1891478984857713
    Molecular point group: c1
  Basis Set: CC-PVTZ
  Basis Set:
  Basis Set: CC-PVTZ
  Basis Set:
  @DF-RHF Final Energy:  -193.18932145085250
    Total Energy =                       -193.1893214508526455
  Basis Set: CC-PVTZ
  Basis Set:
  Basis Set: CC-PVTZ
  Basis Set:
  @DF-RHF Final Energy:  -193.18936039359940
    Total Energy =                       -193.1893603935992587
  Basis Set: CC-PVTZ
  Basis Set:
  Charge       = 0
  Multiplicity = 1
  Basis Set: CC-PVTZ
  Basis Set:

    Orbital Energies (a.u.)
    -----------------------

    Doubly Occupied:

       1A    -20.546433     2A    -11.265769     3A    -11.216632
       4A    -11.215025     5A     -1.364012     6A     -1.051885
       7A     -0.926236     8A     -0.812431     9A     -0.698278
      10A     -0.639958    11A     -0.595668    12A     -0.589359
      13A     -0.547943    14A     -0.510385    15A     -0.490729
      16A     -0.468883    17A     -0.433431

  @DF-RHF Final Energy:  -193.18936081983674

   => Energetics <=

    Nuclear Repulsion Energy =            132.6807675878763462
    One-Electron Energy =                -524.9941351198471011
    Two-Electron Energy =                 199.1240067121340758
    DFT Exchange-Correlation Energy =       0.0000000000000000
    Empirical Dispersion Energy =           0.0000000000000000
    PCM Polarization Energy =               0.0000000000000000
    EFP Energy =                            0.0000000000000000
    Total Energy =                       -193.1893608198366792
    Molecular point group: c1
  Basis Set: CC-PVTZ
  Basis Set:

  -Total Gradient:
     Atom            X                  Y                   Z
    ------   -----------------  -----------------  -----------------
       1       -0.000011234558     0.000037175317     0.000011696813
       2       -0.001076021547     0.001694925843    -0.002310969715
       3        0.001634162297    -0.003128556085     0.003329307380
       4       -0.001258980466     0.005042181147    -0.001880535086
       5       -0.000011258883    -0.000023588264     0.000003028131
       6       -0.000008104727     0.000005634786    -0.000008990723
       7       -0.000003466190     0.000015591519     0.000001071018
       8        0.000731511360    -0.003630589736     0.000852083739
       9        0.000001753871    -0.000006612580    -0.000006928878
      10        0.000004305677     0.000013126410    -0.000001572451
      11       -0.000016984956    -0.000005823501     0.000014825723
      12        0.000014318118    -0.000013464859    -0.000003015951

  **** Optimization is complete! (in 4 steps) ****
    Final optimized geometry and variables:
    Molecular point group: c1

    Geometry (in Angstrom), charge = 0, multiplicity = 1:

    H           -1.057171826070    -1.451913390586     0.059328689243
    O           -1.430714469451    -0.663965415800    -0.290278474895
    C           -0.767120655087     0.461230556674     0.222912425519
    C            0.646883737519     0.622159185186    -0.323131947580
    H           -1.370298143027     1.308115606190    -0.075286217926
    H           -0.755995976143     0.440480370308     1.310468209934
    C            1.673760178933    -0.268238134883     0.374426773342
    H            0.625459999291     0.370308232270    -1.377682829926
    H            0.947682660475     1.660760576730    -0.232245049353
    H            1.414161295454    -1.318868159967     0.287559885142
    H            2.658356832241    -0.145740725371    -0.060881616084
    H            1.746746702670    -0.031400068516     1.430730210626

  Mulliken Charges: (a.u.)
   Center  Symbol    Alpha    Beta     Spin     Total
       1     H     0.39378  0.39378  0.00000  0.21245
       2     O     4.20389  4.20389  0.00000 -0.40778
       3     C     2.97228  2.97228  0.00000  0.05544
       4     C     3.08967  3.08967  0.00000 -0.17935
       5     H     0.45054  0.45054  0.00000  0.09892
       6     H     0.47238  0.47238  0.00000  0.05525
       7     C     3.15171  3.15171  0.00000 -0.30341
       8     H     0.44946  0.44946  0.00000  0.10109
       9     H     0.45507  0.45507  0.00000  0.08986
      10     H     0.46135  0.46135  0.00000  0.07730
      11     H     0.44556  0.44556  0.00000  0.10889
      12     H     0.45433  0.45433  0.00000  0.09134

   Total alpha = 17.00000, Total beta = 17.00000, Total charge = -0.00000

*** Psi4 exiting successfully. Buy a developer a beer!
