  ==> Input File <==

--------------------------------------------------------------------------
set {
	reference rhf
	basis 6-31G*
}

set_num_threads( 4 )
memory 2 gb

molecule MOL {
0 1

H	 3.302813	 -0.412604	 0.007183
C	 2.242278	 -0.234601	 0.005639
C	 1.374735	 -1.238217	 -0.407863
C	 1.749736	 0.993107	 0.415657
H	 1.764733	 -2.188505	 -0.724691
C	 0.012195	 -1.012966	 -0.411081
H	 2.423865	 1.767009	 0.734831
C	 0.382604	 1.217838	 0.411968
H	 -0.674983	 -1.775320	 -0.726918
C	 -0.488460	 0.219100	 0.000000
H	 -0.006335	 2.170100	 0.729570
C	 -1.949954	 0.470334	 0.000000
O	 -2.781584	 -0.381627	 0.000000
H	 -2.238022	 1.526388	 0.000000

	symmetry c1
}
set optking {
	frozen_dihedral = ("
		8 10 12 14
	")
}

ee = optimize('scf')
oeprop('DIPOLE', 'QUADRUPOLE', 'MULLIKEN_CHARGES')
f=open( 'psi4out.xyz', 'w' )
f.write( "14  " )
f.write( str(ee) + "\n" )
f.write( MOL.save_string_xyz() )
f.close()
--------------------------------------------------------------------------

    Molecular point group: c1
  Charge       = 0
  Multiplicity = 1
  Basis Set: 6-31G*
  Basis Set:
  @DF-RHF Final Energy:  -343.43142508873643
    Total Energy =                       -343.4314250887363755
    Molecular point group: c1
  Basis Set: 6-31G*
  Basis Set:
  Basis Set: 6-31G*
  Basis Set:
  @DF-RHF Final Energy:  -343.42928848119112
    Total Energy =                       -343.4292884811911790
  Basis Set: 6-31G*
  Basis Set:
  Basis Set: 6-31G*
  Basis Set:
  @DF-RHF Final Energy:  -343.43163010714579
    Total Energy =                       -343.4316301071459634
  Basis Set: 6-31G*
  Basis Set:
  Basis Set: 6-31G*
  Basis Set:
  @DF-RHF Final Energy:  -343.43167104939744
    Total Energy =                       -343.4316710493973801
  Basis Set: 6-31G*
  Basis Set:
  Charge       = 0
  Multiplicity = 1
  Basis Set: 6-31G*
  Basis Set:

    Orbital Energies (a.u.)
    -----------------------

    Doubly Occupied:

       1A    -20.562715     2A    -11.331486     3A    -11.253895
       4A    -11.250811     5A    -11.247510     6A    -11.245993
       7A    -11.245010     8A    -11.243121     9A     -1.403263
      10A     -1.170962    11A     -1.047016    12A     -1.031321
      13A     -0.889130    14A     -0.843659    15A     -0.790995
      16A     -0.720789    17A     -0.677532    18A     -0.651544
      19A     -0.619335    20A     -0.616637    21A     -0.602367
      22A     -0.552781    23A     -0.526161    24A     -0.506404
      25A     -0.501504    26A     -0.421706    27A     -0.349722
      28A     -0.346625

  @DF-RHF Final Energy:  -343.43167146663984

   => Energetics <=

    Nuclear Repulsion Energy =            323.2212448231508688
    One-Electron Energy =               -1106.0058480037041591
    Two-Electron Energy =                 439.3529317139135628
    DFT Exchange-Correlation Energy =       0.0000000000000000
    Empirical Dispersion Energy =           0.0000000000000000
    PCM Polarization Energy =               0.0000000000000000
    EFP Energy =                            0.0000000000000000
    Total Energy =                       -343.4316714666397274
    Molecular point group: c1
  Basis Set: 6-31G*
  Basis Set:

  -Total Gradient:
     Atom            X                  Y                   Z
    ------   -----------------  -----------------  -----------------
       1       -0.000000948834    -0.000005805901     0.000024866168
       2        0.000001297288     0.000006529998    -0.000073031239
       3        0.000021239144     0.000023749028    -0.000047282691
       4       -0.000018107288    -0.000009258119     0.000060686926
       5       -0.000000905987    -0.000000610961     0.000003874552
       6       -0.000017046066    -0.000028128507     0.000126952345
       7        0.000004772325     0.000001905274    -0.000010569136
       8       -0.000093591152    -0.001130643628     0.002937961258
       9        0.000001964963     0.000018354843    -0.000036719611
      10        0.000115861038     0.001677511476    -0.005549005483
      11       -0.000001849748    -0.000003959754    -0.000001698038
      12        0.000058232976    -0.000627295043     0.006423820069
      13        0.000000142352    -0.000013433617     0.000001308294
      14       -0.000071060997     0.000091084911    -0.003861163412

  **** Optimization is complete! (in 5 steps) ****
    Final optimized geometry and variables:
    Molecular point group: c1

    Geometry (in Angstrom), charge = 0, multiplicity = 1:

    H            3.301055212380    -0.417389530640     0.019467197064
    C            2.241073035783    -0.236205021453     0.012298060241
    C            1.372239791792    -1.237565239803    -0.403659172591
    C            1.749734232784     0.992464255279     0.420532934996
    H            1.760527094585    -2.189864513887    -0.716509075149
    C            0.009804952732    -1.010615457655    -0.407300417775
    H            2.423841894908     1.762714765444     0.748524133940
    C            0.383737069427     1.224273706197     0.402168141330
    H           -0.678207505180    -1.777036613048    -0.711268585639
    C           -0.487977707011     0.229061037967    -0.016837325531
    H           -0.003202816957     2.179599128397     0.713351633217
    C           -1.952188802296     0.468535357743     0.018540642070
    O           -2.774979291001    -0.390547367219    -0.025864264391
    H           -2.251154200652     1.520922116009     0.050403485217

  Mulliken Charges: (a.u.)
   Center  Symbol    Alpha    Beta     Spin     Total
       1     H     0.39424  0.39424  0.00000  0.21151
       2     C     3.09156  3.09156  0.00000 -0.18313
       3     C     3.10417  3.10417  0.00000 -0.20833
       4     C     3.10403  3.10403  0.00000 -0.20807
       5     H     0.39403  0.39403  0.00000  0.21194
       6     C     3.08800  3.08800  0.00000 -0.17601
       7     H     0.39475  0.39475  0.00000  0.21049
       8     C     3.10211  3.10211  0.00000 -0.20423
       9     H     0.37834  0.37834  0.00000  0.24332
      10     C     3.05189  3.05189  0.00000 -0.10379
      11     H     0.39283  0.39283  0.00000  0.21433
      12     C     2.83425  2.83425  0.00000  0.33150
      13     O     4.24615  4.24615  0.00000 -0.49229
      14     H     0.42363  0.42363  0.00000  0.15274

   Total alpha = 28.00000, Total beta = 28.00000, Total charge = -0.00000
