                              Psi4 1.0.54 Driver

  ==> Input File <==

--------------------------------------------------------------------------
set {
	reference rhf
	basis cc-pvtz
}

set_num_threads( 4 )
memory 2 gb

molecule MOL {
0 1

O	 -2.817697	 1.304178	 0.001046
C	 -2.664672	 0.129869	 0.003507
C	 -3.797908	 -0.860100	 -0.001145
O	 -1.481217	 -0.452708	 0.001092
H	 -4.408836	 -0.679689	 -0.875387
H	 -3.443486	 -1.878443	 -0.002770
H	 -4.412123	 -0.683688	 0.871605
C	 -0.332055	 0.384012	 -0.000250
C	 0.892252	 -0.506059	 -0.000295
H	 -0.360822	 1.020205	 -0.874146
H	 -0.359817	 1.021310	 0.872861
C	 2.188199	 0.299473	 -0.001416
H	 0.857046	 -1.152781	 -0.871031
H	 0.857910	 -1.151798	 0.871202
C	 2.654044	 0.684225	 1.400040
H	 2.970671	 -0.273240	 -0.493061
H	 2.053828	 1.201551	 -0.593172
C	 3.948413	 1.490214	 1.399295
H	 2.790363	 -0.216484	 1.991814
H	 1.872992	 1.256720	 1.892274
H	 4.758072	 0.930065	 0.943737
H	 4.250923	 1.746936	 2.407802
H	 3.833678	 2.414542	 0.843141

	symmetry c1
}
set optking {
	frozen_dihedral = ("
		16 12 9 13
	")
}

ee,wfn = optimize('scf', return_wfn=True)
oeprop( wfn, 'DIPOLE', 'QUADRUPOLE', 'MULLIKEN_CHARGES')
f=open( 'psi4out.xyz', 'w' )
f.write( "23  " )
f.write( str(ee) + "\n" )
f.write( MOL.save_string_xyz() )
f.close()
--------------------------------------------------------------------------

    Molecular point group: c1
  Charge       = 0
  Multiplicity = 1
  Basis Set: CC-PVTZ
  Basis Set:
  @DF-RHF Final Energy:  -423.13193649967059
    Total Energy =                       -423.1319364996705872
    Molecular point group: c1
  Basis Set: CC-PVTZ
  Basis Set:
  Basis Set: CC-PVTZ
  Basis Set:
  @DF-RHF Final Energy:  -423.13198243959982
    Total Energy =                       -423.1319824395998239
  Basis Set: CC-PVTZ
  Basis Set:
  Basis Set: CC-PVTZ
  Basis Set:
  @DF-RHF Final Energy:  -423.13102055224567
    Total Energy =                       -423.1310205522456727
  Basis Set: CC-PVTZ
  Basis Set:
  Basis Set: CC-PVTZ
  Basis Set:
  @DF-RHF Final Energy:  -423.13217676721740
    Total Energy =                       -423.1321767672176293
  Basis Set: CC-PVTZ
  Basis Set:
  Basis Set: CC-PVTZ
  Basis Set:
  @DF-RHF Final Energy:  -423.13219115252303
    Total Energy =                       -423.1321911525228643
  Basis Set: CC-PVTZ
  Basis Set:
  Basis Set: CC-PVTZ
  Basis Set:
  @DF-RHF Final Energy:  -423.13219759910419
    Total Energy =                       -423.1321975991040745
  Basis Set: CC-PVTZ
  Basis Set:
  Charge       = 0
  Multiplicity = 1
  Basis Set: CC-PVTZ
  Basis Set:

    Orbital Energies (a.u.)
    -----------------------

    Doubly Occupied:

       1A    -20.595988     2A    -20.529642     3A    -11.366518
       4A    -11.279473     5A    -11.230729     6A    -11.222238
       7A    -11.221332     8A    -11.219356     9A    -11.210693
      10A     -1.471290    11A     -1.364094    12A     -1.094571
      13A     -1.041994    14A     -1.003590    15A     -0.931769
      16A     -0.847768    17A     -0.796220    18A     -0.781286
      19A     -0.691158    20A     -0.688115    21A     -0.675599
      22A     -0.634013    23A     -0.617462    24A     -0.587853
      25A     -0.579820    26A     -0.573070    27A     -0.562046
      28A     -0.531079    29A     -0.528257    30A     -0.507116
      31A     -0.496177    32A     -0.477803    33A     -0.469415
      34A     -0.464526    35A     -0.451929    36A     -0.439435

  @DF-RHF Final Energy:  -423.13219800684925

   => Energetics <=

    Nuclear Repulsion Energy =            455.3870293376803033
    One-Electron Energy =               -1478.6716078712001945
    Two-Electron Energy =                 600.1523805266713225
    DFT Exchange-Correlation Energy =       0.0000000000000000
    Empirical Dispersion Energy =           0.0000000000000000
    PCM Polarization Energy =               0.0000000000000000
    EFP Energy =                            0.0000000000000000
    Total Energy =                       -423.1321980068485118
    Molecular point group: c1
  Basis Set: CC-PVTZ
  Basis Set:

  -Total Gradient:
     Atom            X                  Y                   Z
    ------   -----------------  -----------------  -----------------
       1        0.000006388197    -0.000009104396     0.000002438715
       2        0.000016523883    -0.000028105163    -0.000011097591
       3       -0.000012376580     0.000010125818     0.000007006923
       4       -0.000021899451     0.000025123652    -0.000002710161
       5        0.000009718539    -0.000001220470     0.000012409347
       6       -0.000000831284     0.000003808878     0.000000014821
       7        0.000006286945    -0.000002486765    -0.000012836580
       8        0.000016084035     0.000023898496     0.000010123017
       9       -0.001297120962     0.002332974981    -0.001907746490
      10       -0.000004857412    -0.000006125580     0.000001433978
      11       -0.000004286055    -0.000002569614    -0.000000999013
      12        0.000854786940    -0.001638273697     0.002702388905
      13        0.000944814666    -0.001712951537     0.001164170379
      14        0.000004581429     0.000008852333    -0.000006585313
      15       -0.000022161529     0.000044621959     0.000005497546
      16       -0.000493836645     0.000988158788    -0.001974809527
      17       -0.000004564450    -0.000012519557     0.000015705767
      18        0.000012345268    -0.000025321273    -0.000003126173
      19        0.000008556825     0.000035173915    -0.000013168835
      20        0.000022810148    -0.000011346599    -0.000002813347
      21       -0.000025887046     0.000018038567     0.000005150891
      22       -0.000001692894    -0.000009089436    -0.000004560989
      23       -0.000013382576    -0.000031663302     0.000014113732

  **** Optimization is complete! (in 7 steps) ****
    Final optimized geometry and variables:
    Molecular point group: c1

    Geometry (in Angstrom), charge = 0, multiplicity = 1:

    O           -2.624147777742     1.073582246467    -0.311621032039
    C           -2.491735405758    -0.103280531837    -0.321407142944
    C           -3.642255040120    -1.073283289077    -0.320049249674
    O           -1.318607667980    -0.705971963078    -0.334408806191
    H           -4.258599408641    -0.876974345501    -1.187068301187
    H           -3.305765562860    -2.097660276920    -0.331119979046
    H           -4.244469827590    -0.891267311313     0.559938928021
    C           -0.155701509236     0.111008481338    -0.338248728569
    C            1.052893170603    -0.801470254455    -0.348776406007
    H           -0.175097406674     0.746974998053    -1.212572851284
    H           -0.172637117714     0.749144338725     0.533765452938
    C            2.377431257539    -0.031362395544    -0.292253618763
    H            1.019396831499    -1.423422765499    -1.235932396562
    H            0.985916109696    -1.480929412812     0.495030780456
    C            2.832136360171     0.334136633779     1.119126697486
    H            3.149376811239    -0.618019400142    -0.779290248119
    H            2.291320849890     0.876391434400    -0.885848446838
    C            4.131748028575     1.131372805933     1.136478635922
    H            2.960307940516    -0.576926546555     1.696505720325
    H            2.056315454291     0.905102515733     1.620378554055
    H            4.937331304004     0.575710306298     0.668153092995
    H            4.435863601158     1.363204277158     2.150509490990
    H            4.023351429453     2.068640956855     0.601221989898

  Mulliken Charges: (a.u.)
   Center  Symbol    Alpha    Beta     Spin     Total
       1     O     4.20247  4.20247  0.00000 -0.40494
       2     C     2.81485  2.81485  0.00000  0.37031
       3     C     3.13958  3.13958  0.00000 -0.27916
       4     O     4.14511  4.14511  0.00000 -0.29023
       5     H     0.44211  0.44211  0.00000  0.11578
       6     H     0.44185  0.44185  0.00000  0.11630
       7     H     0.44220  0.44220  0.00000  0.11560
       8     C     2.97504  2.97504  0.00000  0.04993
       9     C     3.09091  3.09091  0.00000 -0.18181
      10     H     0.45395  0.45395  0.00000  0.09210
      11     H     0.45396  0.45396  0.00000  0.09209
      12     C     3.10656  3.10656  0.00000 -0.21313
      13     H     0.44428  0.44428  0.00000  0.11144
      14     H     0.45234  0.45234  0.00000  0.09532
      15     C     3.08269  3.08269  0.00000 -0.16537
      16     H     0.44482  0.44482  0.00000  0.11036
      17     H     0.45480  0.45480  0.00000  0.09041
      18     C     3.14976  3.14976  0.00000 -0.29952
      19     H     0.45324  0.45324  0.00000  0.09352
      20     H     0.45355  0.45355  0.00000  0.09290
      21     H     0.45459  0.45459  0.00000  0.09082
      22     H     0.44746  0.44746  0.00000  0.10509
      23     H     0.45390  0.45390  0.00000  0.09220

   Total alpha = 36.00000, Total beta = 36.00000, Total charge = -0.00000

*** Psi4 exiting successfully. Buy a developer a beer!
