  ==> Input File <==

--------------------------------------------------------------------------
set {
	reference rhf
	basis 6-31G*
}

set_num_threads( 4 )
memory 2 gb

molecule MOL {
0 1

O	 2.020469	 1.768402	 0.580349
C	 0.939796	 1.446423	 0.164204
C	 -0.134850	 2.494824	 -0.055063
N	 0.623947	 0.147590	 -0.102813
H	 -1.016071	 2.291985	 0.543592
H	 0.279826	 3.447681	 0.236747
H	 -0.438490	 2.543326	 -1.095271
C	 1.665360	 -0.855771	 0.000151
C	 -0.568074	 -0.267373	 -0.809308
H	 2.465253	 -0.618490	 -0.692587
H	 1.257730	 -1.821716	 -0.242189
H	 2.081488	 -0.891645	 1.004627
H	 -0.877040	 -1.239054	 -0.442682
H	 -1.384956	 0.417488	 -0.646202
H	 -0.396463	 -0.352296	 -1.880826

	symmetry c1
}
set optking {
	frozen_dihedral = ("
		2 4 8 10
	")
}

ee = optimize('scf')
oeprop('DIPOLE', 'QUADRUPOLE', 'MULLIKEN_CHARGES')
f=open( 'psi4out.xyz', 'w' )
f.write( "15  " )
f.write( str(ee) + "\n" )
f.write( MOL.save_string_xyz() )
f.close()
--------------------------------------------------------------------------

    Molecular point group: c1
  Charge       = 0
  Multiplicity = 1
  Basis Set: 6-31G*
  Basis Set:
  @DF-RHF Final Energy:  -286.02823615398574
    Total Energy =                       -286.0282361539858584
    Molecular point group: c1
  Basis Set: 6-31G*
  Basis Set:
  Basis Set: 6-31G*
  Basis Set:
  @DF-RHF Final Energy:  -286.02893156319783
    Total Energy =                       -286.0289315631980003
  Basis Set: 6-31G*
  Basis Set:
  Basis Set: 6-31G*
  Basis Set:
  @DF-RHF Final Energy:  -286.02892497711230
    Total Energy =                       -286.0289249771124105
  Basis Set: 6-31G*
  Basis Set:
  Basis Set: 6-31G*
  Basis Set:
  @DF-RHF Final Energy:  -286.02902883929914
    Total Energy =                       -286.0290288392990306
  Basis Set: 6-31G*
  Basis Set:
  Basis Set: 6-31G*
  Basis Set:
  @DF-RHF Final Energy:  -286.02904848146608
    Total Energy =                       -286.0290484814661340
  Basis Set: 6-31G*
  Basis Set:
  Basis Set: 6-31G*
  Basis Set:
  @DF-RHF Final Energy:  -286.02905015550238
    Total Energy =                       -286.0290501555021478
  Basis Set: 6-31G*
  Basis Set:
  Charge       = 0
  Multiplicity = 1
  Basis Set: 6-31G*
  Basis Set:

    Orbital Energies (a.u.)
    -----------------------

    Doubly Occupied:

       1A    -20.514001     2A    -15.582760     3A    -11.339010
       4A    -11.267187     5A    -11.248550     6A    -11.228246
       7A     -1.384108     8A     -1.241442     9A     -1.013476
      10A     -0.973806    11A     -0.917984    12A     -0.737146
      13A     -0.679359    14A     -0.657458    15A     -0.651081
      16A     -0.587299    17A     -0.574852    18A     -0.570509
      19A     -0.565759    20A     -0.545600    21A     -0.531010
      22A     -0.498276    23A     -0.410032    24A     -0.366173

  @DF-RHF Final Energy:  -286.02905069517840

   => Energetics <=

    Nuclear Repulsion Energy =            252.5865978243972449
    One-Electron Energy =                -889.0610495392510302
    Two-Electron Energy =                 350.4454010196756144
    DFT Exchange-Correlation Energy =       0.0000000000000000
    Empirical Dispersion Energy =           0.0000000000000000
    PCM Polarization Energy =               0.0000000000000000
    EFP Energy =                            0.0000000000000000
    Total Energy =                       -286.0290506951781708
    Molecular point group: c1
  Basis Set: 6-31G*
  Basis Set:

  -Total Gradient:
     Atom            X                  Y                   Z
    ------   -----------------  -----------------  -----------------
       1       -0.000002681687    -0.000018675671     0.000036517278
       2        0.000181197353     0.000039702995    -0.000911599092
       3        0.000010381217    -0.000000409792    -0.000016815852
       4       -0.000131187579     0.000096813238     0.001396605256
       5        0.000000114075    -0.000000360666     0.000005926722
       6        0.000002177089     0.000003497088     0.000005420156
       7       -0.000001313291    -0.000004871946     0.000009209651
       8       -0.000502152071    -0.000687979305    -0.001340342620
       9       -0.000009364928    -0.000022955456     0.000065034779
      10        0.000489076675     0.000599245262     0.000778181571
      11        0.000002071363     0.000010998692    -0.000004805335
      12       -0.000014182479    -0.000002620509    -0.000003018310
      13       -0.000022346562    -0.000003523357    -0.000005918120
      14        0.000002430561    -0.000004468083    -0.000008809897
      15       -0.000004219736    -0.000004392487    -0.000005586186

  **** Optimization is complete! (in 7 steps) ****
    Final optimized geometry and variables:
    Molecular point group: c1

    Geometry (in Angstrom), charge = 0, multiplicity = 1:

    O            1.268349544270     0.952638825914     0.613915098929
    C            0.176225343265     0.657871362861     0.206536366577
    C           -0.882175009974     1.723996955366    -0.001179371859
    N           -0.149081960724    -0.636677207690    -0.057251132568
    H           -1.766904026640     1.527403700288     0.594494832916
    H           -0.454438890889     2.668221675727     0.300158890697
    H           -1.184230146047     1.787417312564    -1.041186407189
    C            0.929624304881    -1.605843339621     0.048378082535
    C           -1.339634623968    -1.044367553880    -0.772522763494
    H            1.737586630498    -1.379188979701    -0.638303361752
    H            0.539572642461    -2.590002042913    -0.172623235781
    H            1.337507801514    -1.605200948019     1.049244565260
    H           -1.669670304086    -2.006915339473    -0.401921948761
    H           -2.145191564052    -0.344138254051    -0.617639336677
    H           -1.164918479194    -1.135341400794    -1.842918733491

  Mulliken Charges: (a.u.)
   Center  Symbol    Alpha    Beta     Spin     Total
       1     O     4.30405  4.30405  0.00000 -0.60810
       2     C     2.62632  2.62632  0.00000  0.74737
       3     C     3.29798  3.29798  0.00000 -0.59596
       4     N     3.82269  3.82269  0.00000 -0.64538
       5     H     0.40666  0.40666  0.00000  0.18669
       6     H     0.39065  0.39065  0.00000  0.21871
       7     H     0.40795  0.40795  0.00000  0.18410
       8     C     3.13665  3.13665  0.00000 -0.27331
       9     C     3.14204  3.14204  0.00000 -0.28407
      10     H     0.41007  0.41007  0.00000  0.17987
      11     H     0.41975  0.41975  0.00000  0.16049
      12     H     0.40120  0.40120  0.00000  0.19759
      13     H     0.40969  0.40969  0.00000  0.18061
      14     H     0.40774  0.40774  0.00000  0.18452
      15     H     0.41657  0.41657  0.00000  0.16687

   Total alpha = 24.00000, Total beta = 24.00000, Total charge = -0.00000
