  ==> Input File <==

--------------------------------------------------------------------------
set {
	reference rhf
	basis cc-pvtz
}

set_num_threads( 4 )
memory 2 gb

molecule MOL {
0 1

H	 -1.835082	 1.385983	 0.000069
C	 -1.300516	 0.441153	 -0.000028
O	 -0.006604	 0.654344	 -0.000106
O	 -1.828920	 -0.612308	 0.000113
C	 0.852093	 -0.482521	 -0.000161
C	 0.123626	 -1.610622	 0.690798
H	 1.769379	 -0.227366	 0.511153
H	 1.099165	 -0.733550	 -1.021877
H	 -0.120713	 -1.343948	 1.711167
H	 0.751583	 -2.493367	 0.707724
H	 -0.794317	 -1.852662	 0.170444

	symmetry c1
}
set optking {
	frozen_dihedral = ("
		7 5 3 2
	")
}

ee = optimize('scf')
oeprop('DIPOLE', 'QUADRUPOLE', 'MULLIKEN_CHARGES')
f=open( 'psi4out.xyz', 'w' )
f.write( "11  " )
f.write( str(ee) + "\n" )
f.write( MOL.save_string_xyz() )
f.close()
--------------------------------------------------------------------------

    Molecular point group: c1
  Charge       = 0
  Multiplicity = 1
  Basis Set: CC-PVTZ
  Basis Set:
  @DF-RHF Final Energy:  -266.88312335512086
    Total Energy =                       -266.8831233551211426
    Molecular point group: c1
  Basis Set: CC-PVTZ
  Basis Set:
  Basis Set: CC-PVTZ
  Basis Set:
  @DF-RHF Final Energy:  -266.91337989364951
    Total Energy =                       -266.9133798936495623
  Basis Set: CC-PVTZ
  Basis Set:
  Basis Set: CC-PVTZ
  Basis Set:
  @DF-RHF Final Energy:  -266.91236867987345
    Total Energy =                       -266.9123686798735662
  Basis Set: CC-PVTZ
  Basis Set:
  Basis Set: CC-PVTZ
  Basis Set:
  @DF-RHF Final Energy:  -266.91736234340226
    Total Energy =                       -266.9173623434024876
  Basis Set: CC-PVTZ
  Basis Set:
  @DF-RHF Final Energy:  -266.92188237082070
    Total Energy =                       -266.9218823708208674
  @DF-RHF Final Energy:  -266.92280413031290
    Total Energy =                       -266.9228041303127839
  Basis Set: CC-PVTZ
  Basis Set:
  @DF-RHF Final Energy:  -266.92288815001109
    Total Energy =                       -266.9228881500111470
  Basis Set: CC-PVTZ
  Basis Set:
  Basis Set: CC-PVTZ
  Basis Set:
  @DF-RHF Final Energy:  -266.92290339137901
    Total Energy =                       -266.9229033913787816
  Basis Set: CC-PVTZ
  Basis Set:
  Basis Set: CC-PVTZ
  Basis Set:
  @DF-RHF Final Energy:  -266.92290548083906
    Total Energy =                       -266.9229054808391197
  Basis Set: CC-PVTZ
  Basis Set:
  Charge       = 0
  Multiplicity = 1
  Basis Set: CC-PVTZ
  Basis Set:

    Orbital Energies (a.u.)
    -----------------------

    Doubly Occupied:

       1A    -20.602583     2A    -20.542586     3A    -11.370563
       4A    -11.294999     5A    -11.218987     6A     -1.473064
       7A     -1.376694     8A     -1.049980     9A     -0.918713
      10A     -0.795416    11A     -0.728977    12A     -0.687089
      13A     -0.670713    14A     -0.620114    15A     -0.579244
      16A     -0.544976    17A     -0.529790    18A     -0.504457
      19A     -0.458397    20A     -0.448795

  @DF-RHF Final Energy:  -266.92290555447795

   => Energetics <=

    Nuclear Repulsion Energy =            182.8145767317294599
    One-Electron Energy =                -726.6426919323807851
    Two-Electron Energy =                 276.9052096461733754
    DFT Exchange-Correlation Energy =       0.0000000000000000
    Empirical Dispersion Energy =           0.0000000000000000
    PCM Polarization Energy =               0.0000000000000000
    EFP Energy =                            0.0000000000000000
    Total Energy =                       -266.9229055544780067
    Molecular point group: c1
  Basis Set: CC-PVTZ
  Basis Set:

  -Total Gradient:
     Atom            X                  Y                   Z
    ------   -----------------  -----------------  -----------------
       1       -0.000003918689    -0.000004916732    -0.000000220063
       2       -0.000051715347     0.000110463630     0.005212502253
       3       -0.000339044646    -0.000439247127    -0.007050821377
       4        0.000003513268     0.000021060297    -0.000001390177
       5        0.002631916758     0.001724067569    -0.002879515785
       6       -0.000039997046     0.000013916928     0.000007851317
       7       -0.002214177102    -0.001398924005     0.004693192563
       8        0.000006912229    -0.000035320990     0.000005684158
       9       -0.000001969069    -0.000000091068     0.000009896831
      10       -0.000003894232     0.000006672119    -0.000003388119
      11        0.000012373878     0.000002319381     0.000006208399

  **** Optimization is complete! (in 10 steps) ****
    Final optimized geometry and variables:
    Molecular point group: c1

    Geometry (in Angstrom), charge = 0, multiplicity = 1:

    H           -1.230032432715     1.907863411847    -0.012330919889
    C           -0.863257829470     0.892793333636    -0.135826282094
    O            0.446892653551     0.907903966516    -0.135476683191
    O           -1.572833764328    -0.038119183868    -0.269420487130
    C            1.271660304038    -0.260650898572    -0.108779991634
    C            0.730254060594    -1.468600581977     0.636352649363
    H            2.155873873780     0.076786031132     0.409893100087
    H            1.524458239383    -0.510980759153    -1.129568507778
    H            0.394761481393    -1.194696280752     1.629154791506
    H            1.548597056246    -2.172502127526     0.743852477902
    H           -0.081944008466    -1.951022107060     0.120553995653

  Mulliken Charges: (a.u.)
   Center  Symbol    Alpha    Beta     Spin     Total
       1     H     0.44756  0.44756  0.00000  0.10489
       2     C     2.84326  2.84326  0.00000  0.31348
       3     O     4.14862  4.14862  0.00000 -0.29724
       4     O     4.19598  4.19598  0.00000 -0.39197
       5     C     2.97299  2.97299  0.00000  0.05402
       6     C     3.15431  3.15431  0.00000 -0.30862
       7     H     0.44888  0.44888  0.00000  0.10224
       8     H     0.45343  0.45343  0.00000  0.09315
       9     H     0.45000  0.45000  0.00000  0.10001
      10     H     0.45060  0.45060  0.00000  0.09880
      11     H     0.43437  0.43437  0.00000  0.13126

   Total alpha = 20.00000, Total beta = 20.00000, Total charge =  0.00000
