  ==> Input File <==

--------------------------------------------------------------------------
set {
	reference rhf
	basis 6-31G*
}

set_num_threads( 4 )
memory 2 gb

molecule MOL {
0 1

O	 -2.484891	 0.825418	 -0.763388
C	 -1.921153	 0.064240	 -0.045697
C	 -2.563498	 -1.109336	 0.643114
O	 -0.632575	 0.154573	 0.251549
H	 -2.453643	 -1.008873	 1.716793
H	 -3.609936	 -1.155278	 0.381020
H	 -2.065692	 -2.025297	 0.346532
C	 0.160891	 -1.019931	 0.106212
C	 1.589627	 -0.672828	 0.480843
H	 0.089836	 -1.367806	 -0.916050
H	 -0.238459	 -1.792301	 0.749618
C	 2.246377	 0.346236	 -0.452210
H	 2.163194	 -1.597435	 0.473358
H	 1.604769	 -0.303424	 1.502885
C	 3.691736	 0.652107	 -0.061850
H	 2.219579	 -0.032311	 -1.472055
H	 1.666466	 1.263317	 -0.447249
H	 4.134505	 1.377213	 -0.737283
H	 4.305508	 -0.243868	 -0.089969
H	 3.748266	 1.059562	 0.943567

	symmetry c1
}
set optking {
	frozen_dihedral = ("
		1 2 4 8
	")
}

ee = optimize('scf')
oeprop('DIPOLE', 'QUADRUPOLE', 'MULLIKEN_CHARGES')
f=open( 'psi4out.xyz', 'w' )
f.write( "20  " )
f.write( str(ee) + "\n" )
f.write( MOL.save_string_xyz() )
f.close()
--------------------------------------------------------------------------

    Molecular point group: c1
  Charge       = 0
  Multiplicity = 1
  Basis Set: 6-31G*
  Basis Set:
  @DF-RHF Final Energy:  -383.92163980881105
    Total Energy =                       -383.9216398088105962
    Molecular point group: c1
  Basis Set: 6-31G*
  Basis Set:
  Basis Set: 6-31G*
  Basis Set:
  @DF-RHF Final Energy:  -383.92247476266454
    Total Energy =                       -383.9224747626648195
  Basis Set: 6-31G*
  Basis Set:
  Basis Set: 6-31G*
  Basis Set:
  @DF-RHF Final Energy:  -383.92625222418667
    Total Energy =                       -383.9262522241867828
  Basis Set: 6-31G*
  Basis Set:
  Basis Set: 6-31G*
  Basis Set:
  @DF-RHF Final Energy:  -383.92654904113226
    Total Energy =                       -383.9265490411327164
  Basis Set: 6-31G*
  Basis Set:
  @DF-RHF Final Energy:  -383.92734129987690
    Total Energy =                       -383.9273412998770709
  @DF-RHF Final Energy:  -383.92753479297608
    Total Energy =                       -383.9275347929759619
  Basis Set: 6-31G*
  Basis Set:
  @DF-RHF Final Energy:  -383.92756604332180
    Total Energy =                       -383.9275660433214625
  Basis Set: 6-31G*
  Basis Set:
  Basis Set: 6-31G*
  Basis Set:
  @DF-RHF Final Energy:  -383.92758806986154
    Total Energy =                       -383.9275880698614856
  Basis Set: 6-31G*
  Basis Set:
  Basis Set: 6-31G*
  Basis Set:
  @DF-RHF Final Energy:  -383.92759944855072
    Total Energy =                       -383.9275994485509500
  Basis Set: 6-31G*
  Basis Set:
  Charge       = 0
  Multiplicity = 1
  Basis Set: 6-31G*
  Basis Set:

    Orbital Energies (a.u.)
    -----------------------

    Doubly Occupied:

       1A    -20.590690     2A    -20.549058     3A    -11.376841
       4A    -11.296894     5A    -11.240348     6A    -11.229308
       7A    -11.218469     8A    -11.211926     9A     -1.459504
      10A     -1.367088    11A     -1.084615    12A     -1.019153
      13A     -0.995569    14A     -0.885701    15A     -0.810623
      16A     -0.780443    17A     -0.697465    18A     -0.684092
      19A     -0.656413    20A     -0.635202    21A     -0.612299
      22A     -0.591788    23A     -0.580928    24A     -0.564346
      25A     -0.543427    26A     -0.525208    27A     -0.507643
      28A     -0.485126    29A     -0.476764    30A     -0.472615
      31A     -0.447524    32A     -0.435142

  @DF-RHF Final Energy:  -383.92760036833818

   => Energetics <=

    Nuclear Repulsion Energy =            384.9911732981510113
    One-Electron Energy =               -1285.7731227250874326
    Two-Electron Energy =                 516.8543490585980180
    DFT Exchange-Correlation Energy =       0.0000000000000000
    Empirical Dispersion Energy =           0.0000000000000000
    PCM Polarization Energy =               0.0000000000000000
    EFP Energy =                            0.0000000000000000
    Total Energy =                       -383.9276003683384033
    Molecular point group: c1
  Basis Set: 6-31G*
  Basis Set:

  -Total Gradient:
     Atom            X                  Y                   Z
    ------   -----------------  -----------------  -----------------
       1        0.001085281300    -0.002012275879    -0.003000362781
       2       -0.001330902020     0.003372101806     0.002823836123
       3        0.000034784907     0.000002784847     0.000000029304
       4       -0.000604863637    -0.002380874351     0.003002170224
       5        0.000006053850     0.000012574446    -0.000005612272
       6       -0.000001037264     0.000001791162     0.000003830267
       7        0.000006319728    -0.000009133772    -0.000002572438
       8        0.000839643637     0.000948403132    -0.002823686609
       9        0.000002277511     0.000033580225    -0.000014318969
      10        0.000003987088     0.000031016812    -0.000003925989
      11       -0.000004770487    -0.000030107999     0.000002117659
      12       -0.000015848442     0.000063223419     0.000018772192
      13       -0.000013343216    -0.000000342134     0.000017538960
      14       -0.000025636969     0.000007953467    -0.000003542270
      15        0.000015985706    -0.000042163807    -0.000034826029
      16       -0.000003485280     0.000006213322    -0.000004059053
      17        0.000006280196     0.000001863831     0.000029369373
      18        0.000004213571    -0.000016511518    -0.000012332025
      19        0.000011204393    -0.000003679121     0.000021031011
      20       -0.000016144573     0.000013582112    -0.000013456680

  **** Optimization is complete! (in 10 steps) ****
    Final optimized geometry and variables:
    Molecular point group: c1

    Geometry (in Angstrom), charge = 0, multiplicity = 1:

    O           -2.329775939792     1.021034198217    -0.707879302973
    C           -1.901691972645     0.152364304829    -0.030381370092
    C           -2.736369905691    -1.008640317946     0.456299964364
    O           -0.618994562387     0.167720983325     0.368055605675
    H           -2.572532757507    -1.179754640710     1.513878059672
    H           -3.777933486029    -0.792434078213     0.271346244988
    H           -2.469853100104    -1.916927286097    -0.074401303271
    C            0.192739972409    -0.983002765169     0.195371870741
    C            1.632515127276    -0.588839883099     0.470900472434
    H            0.085676554304    -1.351304384476    -0.820343452472
    H           -0.121387386152    -1.765240092043     0.878377706488
    C            2.192232307784     0.430422876772    -0.522517767383
    H            2.233338973605    -1.495949672955     0.448994836074
    H            1.692299842854    -0.195186951115     1.481816096678
    C            3.642796623098     0.803883183300    -0.220374417612
    H            2.126612098673     0.021991176654    -1.529065595631
    H            1.572663051500     1.319793425172    -0.508260527057
    H            4.018659916460     1.521643094270    -0.942321696287
    H            4.291185940230    -0.067583003165    -0.251959111723
    H            3.735316681101     1.249067147498     0.766147017777

  Mulliken Charges: (a.u.)
   Center  Symbol    Alpha    Beta     Spin     Total
       1     O     4.25315  4.25315  0.00000 -0.50630
       2     C     2.62191  2.62191  0.00000  0.75618
       3     C     3.30166  3.30166  0.00000 -0.60333
       4     O     4.31061  4.31061  0.00000 -0.62122
       5     H     0.40175  0.40175  0.00000  0.19650
       6     H     0.39082  0.39082  0.00000  0.21835
       7     H     0.40331  0.40331  0.00000  0.19337
       8     C     3.00431  3.00431  0.00000 -0.00863
       9     C     3.16163  3.16163  0.00000 -0.32327
      10     H     0.41807  0.41807  0.00000  0.16386
      11     H     0.41838  0.41838  0.00000  0.16325
      12     C     3.15643  3.15643  0.00000 -0.31286
      13     H     0.41981  0.41981  0.00000  0.16037
      14     H     0.41166  0.41166  0.00000  0.17667
      15     C     3.24101  3.24101  0.00000 -0.48203
      16     H     0.42384  0.42384  0.00000  0.15232
      17     H     0.40201  0.40201  0.00000  0.19599
      18     H     0.41626  0.41626  0.00000  0.16748
      19     H     0.42330  0.42330  0.00000  0.15340
      20     H     0.42007  0.42007  0.00000  0.15986

   Total alpha = 32.00000, Total beta = 32.00000, Total charge = -0.00000
