  ==> Input File <==

--------------------------------------------------------------------------
set {
	reference rhf
	basis cc-pvtz
}

set_num_threads( 4 )
memory 2 gb

molecule MOL {
0 1

H	 0.492331	 -3.068369	 -1.774859
O	 0.597834	 -2.452771	 -1.065180
C	 -0.412867	 -1.589251	 -1.103112
C	 -0.318151	 -0.570512	 0.000144
O	 -1.262854	 -1.650851	 -1.922682
C	 -1.454884	 0.441630	 -0.000560
H	 -0.277258	 -1.116423	 0.937267
H	 0.645414	 -0.080865	 -0.098281
C	 -2.822577	 -0.232186	 0.000063
H	 -1.359760	 1.084704	 -0.867077
H	 -1.359641	 1.085996	 0.864983
H	 -2.954352	 -0.858985	 -0.875745
H	 -3.615886	 0.505352	 0.000019
H	 -2.953878	 -0.858359	 0.876394

	symmetry c1
}
set optking {
	frozen_dihedral = ("
		7 4 6 10
	")
}

ee = optimize('scf')
oeprop('DIPOLE', 'QUADRUPOLE', 'MULLIKEN_CHARGES')
f=open( 'psi4out.xyz', 'w' )
f.write( "14  " )
f.write( str(ee) + "\n" )
f.write( MOL.save_string_xyz() )
f.close()
--------------------------------------------------------------------------

    Molecular point group: c1
  Charge       = 0
  Multiplicity = 1
  Basis Set: CC-PVTZ
  Basis Set:
  @DF-RHF Final Energy:  -305.99509267674330
    Total Energy =                       -305.9950926767435249
    Molecular point group: c1
  Basis Set: CC-PVTZ
  Basis Set:
  Basis Set: CC-PVTZ
  Basis Set:
  @DF-RHF Final Energy:  -305.99860734787461
    Total Energy =                       -305.9986073478747244
  Basis Set: CC-PVTZ
  Basis Set:
  Basis Set: CC-PVTZ
  Basis Set:
  @DF-RHF Final Energy:  -305.99872416071793
    Total Energy =                       -305.9987241607179271
  Basis Set: CC-PVTZ
  Basis Set:
  Basis Set: CC-PVTZ
  Basis Set:
  @DF-RHF Final Energy:  -305.99915999622669
    Total Energy =                       -305.9991599962265241
  Basis Set: CC-PVTZ
  Basis Set:
  @DF-RHF Final Energy:  -305.99931989461305
    Total Energy =                       -305.9993198946129382
  @DF-RHF Final Energy:  -305.99934958471044
    Total Energy =                       -305.9993495847105009
  @DF-RHF Final Energy:  -305.99937179691835
    Total Energy =                       -305.9993717969185809
  Basis Set: CC-PVTZ
  Basis Set:
  @DF-RHF Final Energy:  -305.99942821884099
    Total Energy =                       -305.9994282188407055
  Basis Set: CC-PVTZ
  Basis Set:
  Basis Set: CC-PVTZ
  Basis Set:
  @DF-RHF Final Energy:  -305.99951637030239
    Total Energy =                       -305.9995163703026151
  Basis Set: CC-PVTZ
  Basis Set:
  Basis Set: CC-PVTZ
  Basis Set:
  @DF-RHF Final Energy:  -305.99952172731867
    Total Energy =                       -305.9995217273184380
  Basis Set: CC-PVTZ
  Basis Set:
  Charge       = 0
  Multiplicity = 1
  Basis Set: CC-PVTZ
  Basis Set:

    Orbital Energies (a.u.)
    -----------------------

    Doubly Occupied:

       1A    -20.605529     2A    -20.540625     3A    -11.374853
       4A    -11.240083     5A    -11.225896     6A    -11.208527
       7A     -1.478849     8A     -1.369893     9A     -1.082516
      10A     -0.977579    11A     -0.864460    12A     -0.789148
      13A     -0.706473    14A     -0.693225    15A     -0.662226
      16A     -0.615866    17A     -0.595927    18A     -0.569273
      19A     -0.557170    20A     -0.500045    21A     -0.490940
      22A     -0.485414    23A     -0.481328    24A     -0.444797

  @DF-RHF Final Energy:  -305.99952202901767

   => Energetics <=

    Nuclear Repulsion Energy =            245.2039493486022934
    One-Electron Energy =                -903.2856621582396883
    Two-Electron Energy =                 352.0821907806197260
    DFT Exchange-Correlation Energy =       0.0000000000000000
    Empirical Dispersion Energy =           0.0000000000000000
    PCM Polarization Energy =               0.0000000000000000
    EFP Energy =                            0.0000000000000000
    Total Energy =                       -305.9995220290176121
    Molecular point group: c1
  Basis Set: CC-PVTZ
  Basis Set:

  -Total Gradient:
     Atom            X                  Y                   Z
    ------   -----------------  -----------------  -----------------
       1       -0.000001615287     0.000002946092     0.000000026865
       2        0.000016317160    -0.000017831456     0.000011491931
       3       -0.000020806839     0.000028680005    -0.000027352475
       4       -0.002162864915    -0.002489726034    -0.001100214068
       5        0.000001994599     0.000000005543     0.000023139400
       6       -0.001693286557    -0.002030802516    -0.001781700452
       7        0.002021654754     0.002375633915     0.001194422120
       8        0.000017816174    -0.000002893790    -0.000001512278
       9        0.000007960236    -0.000011176881     0.000009654969
      10        0.001820877768     0.002157075473     0.001687195047
      11        0.000000737247    -0.000004145552    -0.000005153668
      12       -0.000003391424    -0.000000576282    -0.000004732274
      13       -0.000000982891    -0.000004844149    -0.000004537417
      14       -0.000004410024    -0.000002344370    -0.000000727700

  **** Optimization is complete! (in 11 steps) ****
    Final optimized geometry and variables:
    Molecular point group: c1

    Geometry (in Angstrom), charge = 0, multiplicity = 1:

    H            1.355985881793    -2.125107519774    -0.949611402898
    O            1.354074840067    -1.565488066453    -0.187435444182
    C            0.574142908784    -0.518753685421    -0.437500739355
    C            0.568237001554     0.465071595672     0.701051599743
    O            0.000833307575    -0.392995106850    -1.464487198461
    C           -0.598042596599     1.448808244908     0.701793301220
    H            0.641688316646    -0.068199946192     1.640554726985
    H            1.504955168356     1.009299787360     0.609136714686
    C           -1.975043137907     0.801255395038     0.801788703956
    H           -0.534462289851     2.082994949809    -0.173864153013
    H           -0.454653411872     2.105949567717     1.553975451190
    H           -2.186915210318     0.185567787414    -0.061391963908
    H           -2.746209293717     1.559517242845     0.867878780475
    H           -2.048595551605     0.180588485142     1.689584664351

  Mulliken Charges: (a.u.)
   Center  Symbol    Alpha    Beta     Spin     Total
       1     H     0.38165  0.38165  0.00000  0.23669
       2     O     4.15939  4.15939  0.00000 -0.31879
       3     C     2.80363  2.80363  0.00000  0.39274
       4     C     3.11223  3.11223  0.00000 -0.22446
       5     O     4.19449  4.19449  0.00000 -0.38897
       6     C     3.08212  3.08212  0.00000 -0.16423
       7     H     0.43490  0.43490  0.00000  0.13020
       8     H     0.43550  0.43550  0.00000  0.12901
       9     C     3.15489  3.15489  0.00000 -0.30978
      10     H     0.44678  0.44678  0.00000  0.10645
      11     H     0.44841  0.44841  0.00000  0.10319
      12     H     0.44136  0.44136  0.00000  0.11729
      13     H     0.44778  0.44778  0.00000  0.10444
      14     H     0.45689  0.45689  0.00000  0.08623

   Total alpha = 24.00000, Total beta = 24.00000, Total charge = -0.00000
