                              Psi4 1.0.54 Driver

  ==> Input File <==

--------------------------------------------------------------------------
set {
	reference rhf
	basis cc-pvtz
}

set_num_threads( 4 )
memory 2 gb

molecule MOL {
0 1

H	 -3.941973	 0.934228	 -0.390224
C	 -3.240162	 0.342701	 0.161016
C	 -2.105997	 -0.000418	 -0.398703
H	 -3.485368	 0.047206	 1.162193
O	 -1.189946	 -0.765863	 0.237511
H	 -1.846458	 0.297311	 -1.398265
C	 0.026572	 -0.995256	 -0.379403
C	 1.057223	 0.049888	 -0.004615
H	 -0.054361	 -1.010670	 -1.459674
H	 0.397526	 -1.952058	 -0.044198
F	 1.531274	 0.610955	 -1.098946
F	 0.541138	 1.003022	 0.741507
F	 2.066942	 -0.467016	 0.652451

	symmetry c1
}
set optking {
	frozen_dihedral = ("
		11 8 7 9
	")
}

ee,wfn = optimize('scf', return_wfn=True)
oeprop( wfn, 'DIPOLE', 'QUADRUPOLE', 'MULLIKEN_CHARGES')
f=open( 'psi4out.xyz', 'w' )
f.write( "13  " )
f.write( str(ee) + "\n" )
f.write( MOL.save_string_xyz() )
f.close()
--------------------------------------------------------------------------

    Molecular point group: c1
  Charge       = 0
  Multiplicity = 1
  Basis Set: CC-PVTZ
  Basis Set:
  @DF-RHF Final Energy:  -527.73448021812533
    Total Energy =                       -527.7344802181249861
    Molecular point group: c1
  Basis Set: CC-PVTZ
  Basis Set:
  Basis Set: CC-PVTZ
  Basis Set:
  @DF-RHF Final Energy:  -527.73518692799064
    Total Energy =                       -527.7351869279909806
  Basis Set: CC-PVTZ
  Basis Set:
  Basis Set: CC-PVTZ
  Basis Set:
  @DF-RHF Final Energy:  -527.73544860166476
    Total Energy =                       -527.7354486016645296
  Basis Set: CC-PVTZ
  Basis Set:
  Basis Set: CC-PVTZ
  Basis Set:
  @DF-RHF Final Energy:  -527.73547421966066
    Total Energy =                       -527.7354742196603183
  Basis Set: CC-PVTZ
  Basis Set:
  Basis Set: CC-PVTZ
  Basis Set:
  @DF-RHF Final Energy:  -527.73548253928504
    Total Energy =                       -527.7354825392853854
  Basis Set: CC-PVTZ
  Basis Set:
  Basis Set: CC-PVTZ
  Basis Set:
  @DF-RHF Final Energy:  -527.73548667265572
    Total Energy =                       -527.7354866726557248
  Basis Set: CC-PVTZ
  Basis Set:
  Basis Set: CC-PVTZ
  Basis Set:
  @DF-RHF Final Energy:  -527.73548825939906
    Total Energy =                       -527.7354882593995171
  Basis Set: CC-PVTZ
  Basis Set:
  Charge       = 0
  Multiplicity = 1
  Basis Set: CC-PVTZ
  Basis Set:

    Orbital Energies (a.u.)
    -----------------------

    Doubly Occupied:

       1A    -26.339944     2A    -26.339459     3A    -26.338884
       4A    -20.603174     5A    -11.499683     6A    -11.319726
       7A    -11.298373     8A    -11.214584     9A     -1.750601
      10A     -1.646607    11A     -1.644279    12A     -1.444127
      13A     -1.083873    14A     -1.019096    15A     -0.932476
      16A     -0.843649    17A     -0.837896    18A     -0.827913
      19A     -0.796526    20A     -0.730785    21A     -0.723192
      22A     -0.701568    23A     -0.680177    24A     -0.668454
      25A     -0.661957    26A     -0.649756    27A     -0.634234
      28A     -0.587196    29A     -0.565121    30A     -0.528758
      31A     -0.516275    32A     -0.357212

  @DF-RHF Final Energy:  -527.73548884066781

   => Energetics <=

    Nuclear Repulsion Energy =            413.0467043329340413
    One-Electron Energy =               -1549.9932798296131296
    Two-Electron Energy =                 609.2110866560115028
    DFT Exchange-Correlation Energy =       0.0000000000000000
    Empirical Dispersion Energy =           0.0000000000000000
    PCM Polarization Energy =               0.0000000000000000
    EFP Energy =                            0.0000000000000000
    Total Energy =                       -527.7354888406675855
    Molecular point group: c1
  Basis Set: CC-PVTZ
  Basis Set:

  -Total Gradient:
     Atom            X                  Y                   Z
    ------   -----------------  -----------------  -----------------
       1        0.000009803619    -0.000016475652     0.000002512225
       2       -0.000000461634     0.000010162486     0.000015124843
       3        0.000041910932     0.000025095922     0.000006072381
       4        0.000010505268     0.000010098944    -0.000017690627
       5       -0.000082603700    -0.000053743626     0.000012709847
       6       -0.000006635455    -0.000021856937     0.000009778699
       7       -0.000415649614     0.000520373295     0.000034568092
       8        0.000399579039    -0.000419477875    -0.000117886738
       9        0.000335439248    -0.000326185620    -0.000003377629
      10       -0.000027918378    -0.000011479422    -0.000005124335
      11       -0.000237048592     0.000280333655    -0.000029367047
      12        0.000000843619    -0.000011769014     0.000059762943
      13       -0.000027764360     0.000014923846     0.000032917349

  **** Optimization is complete! (in 8 steps) ****
    Final optimized geometry and variables:
    Molecular point group: c1

    Geometry (in Angstrom), charge = 0, multiplicity = 1:

    H           -3.908059436441     0.959676942284    -0.310645878323
    C           -3.240173125399     0.300158375482     0.204368622902
    C           -2.080765835847     0.007745697460    -0.331717412687
    H           -3.538949315831    -0.103370276951     1.151853165857
    O           -1.201508406354    -0.832508597161     0.259481630425
    H           -1.770027341717     0.412840505434    -1.278375489653
    C            0.022403076887    -1.028101344894    -0.351828996924
    C            1.054252616570     0.066238651461    -0.025302819368
    H           -0.069473037791    -1.086525885323    -1.428788939390
    H            0.414786707980    -1.963684156795     0.011989806961
    F            1.525775155653     0.613031327334    -1.130762791729
    F            0.551844305563     1.028549660043     0.705217553941
    F            2.085391850396    -0.433142212167     0.624080630096

  Mulliken Charges: (a.u.)
   Center  Symbol    Alpha    Beta     Spin     Total
       1     H     0.42543  0.42543  0.00000  0.14914
       2     C     3.19576  3.19576  0.00000 -0.39152
       3     C     2.95833  2.95833  0.00000  0.08334
       4     H     0.42494  0.42494  0.00000  0.15012
       5     O     4.13886  4.13886  0.00000 -0.27772
       6     H     0.43444  0.43444  0.00000  0.13111
       7     C     3.03502  3.03502  0.00000 -0.07004
       8     C     2.67221  2.67221  0.00000  0.65558
       9     H     0.45468  0.45468  0.00000  0.09064
      10     H     0.43465  0.43465  0.00000  0.13070
      11     F     4.61322  4.61322  0.00000 -0.22643
      12     F     4.60236  4.60236  0.00000 -0.20471
      13     F     4.61009  4.61009  0.00000 -0.22019

   Total alpha = 32.00000, Total beta = 32.00000, Total charge = -0.00000

*** Psi4 exiting successfully. Buy a developer a beer!
