                              Psi4 1.0.54 Driver

  ==> Input File <==

--------------------------------------------------------------------------
set {
	reference rhf
	basis cc-pvtz
}

set_num_threads( 4 )
memory 2 gb

molecule MOL {
0 1

O	 0.395927	 1.296676	 -0.000076
C	 0.503051	 0.114301	 -0.000074
C	 -0.701422	 -0.805636	 -0.000109
C	 1.858118	 -0.556123	 0.000212
C	 -1.434447	 -0.867292	 1.330663
H	 -1.366162	 -0.475118	 -0.794032
H	 -0.359862	 -1.792734	 -0.300800
H	 -1.796008	 0.110347	 1.620013
H	 -2.281393	 -1.539545	 1.262739
H	 -0.780802	 -1.218953	 2.117629
H	 1.961106	 -1.191101	 -0.872843
H	 2.636688	 0.191085	 -0.000109
H	 1.961070	 -1.190284	 0.873873

	symmetry c1
}
set optking {
	frozen_dihedral = ("
		6 3 2 1
	")
}

ee,wfn = optimize('scf', return_wfn=True)
oeprop( wfn, 'DIPOLE', 'QUADRUPOLE', 'MULLIKEN_CHARGES')
f=open( 'psi4out.xyz', 'w' )
f.write( "13  " )
f.write( str(ee) + "\n" )
f.write( MOL.save_string_xyz() )
f.close()
--------------------------------------------------------------------------

    Molecular point group: c1
  Charge       = 0
  Multiplicity = 1
  Basis Set: CC-PVTZ
  Basis Set:
  @DF-RHF Final Energy:  -231.08041920745271
    Total Energy =                       -231.0804192074526497
    Molecular point group: c1
  Basis Set: CC-PVTZ
  Basis Set:
  Basis Set: CC-PVTZ
  Basis Set:
  @DF-RHF Final Energy:  -231.08078622636495
    Total Energy =                       -231.0807862263650918
  Basis Set: CC-PVTZ
  Basis Set:
  Basis Set: CC-PVTZ
  Basis Set:
  @DF-RHF Final Energy:  -231.08130345887574
    Total Energy =                       -231.0813034588758228
  Basis Set: CC-PVTZ
  Basis Set:
  Basis Set: CC-PVTZ
  Basis Set:
  @DF-RHF Final Energy:  -231.08131243576068
    Total Energy =                       -231.0813124357607080
  Basis Set: CC-PVTZ
  Basis Set:
  Basis Set: CC-PVTZ
  Basis Set:
  @DF-RHF Final Energy:  -231.08131165656829
    Total Energy =                       -231.0813116565685164
  Basis Set: CC-PVTZ
  Basis Set:
  Basis Set: CC-PVTZ
  Basis Set:
  @DF-RHF Final Energy:  -231.08133888150186
    Total Energy =                       -231.0813388815019493
  Basis Set: CC-PVTZ
  Basis Set:
  Charge       = 0
  Multiplicity = 1
  Basis Set: CC-PVTZ
  Basis Set:

    Orbital Energies (a.u.)
    -----------------------

    Doubly Occupied:

       1A    -20.537959     2A    -11.320892     3A    -11.231703
       4A    -11.228385     5A    -11.223370     6A     -1.398556
       7A     -1.064670     8A     -1.000338     9A     -0.881768
      10A     -0.734428    11A     -0.658071    12A     -0.647874
      13A     -0.610774    14A     -0.592077    15A     -0.570304
      16A     -0.538772    17A     -0.526482    18A     -0.503320
      19A     -0.482968    20A     -0.402194

  @DF-RHF Final Energy:  -231.08133954786123

   => Energetics <=

    Nuclear Repulsion Energy =            177.3208926352570245
    One-Electron Energy =                -664.4946524308281823
    Two-Electron Energy =                 256.0924202477100380
    DFT Exchange-Correlation Energy =       0.0000000000000000
    Empirical Dispersion Energy =           0.0000000000000000
    PCM Polarization Energy =               0.0000000000000000
    EFP Energy =                            0.0000000000000000
    Total Energy =                       -231.0813395478611483
    Molecular point group: c1
  Basis Set: CC-PVTZ
  Basis Set:

  -Total Gradient:
     Atom            X                  Y                   Z
    ------   -----------------  -----------------  -----------------
       1       -0.000001699127     0.000021147977     0.000098508774
       2        0.000026319677    -0.000028296131    -0.000092627500
       3       -0.000049877540     0.000058059016     0.000069713286
       4       -0.000017561925     0.000001832110    -0.000145812898
       5       -0.000009572773     0.000005309880     0.000016980376
       6        0.000037611891    -0.000055034669    -0.000060133290
       7        0.000010897535     0.000010293001     0.000011426085
       8        0.000001223682    -0.000002968148     0.000000241981
       9       -0.000005284071    -0.000003025973    -0.000000594148
      10       -0.000000416163     0.000001065672     0.000000568174
      11        0.000004980465    -0.000016984059     0.000032534228
      12        0.000003887444     0.000008934565     0.000026907426
      13       -0.000000509097    -0.000000333240     0.000042287507

  **** Optimization is complete! (in 7 steps) ****
    Final optimized geometry and variables:
    Molecular point group: c1

    Geometry (in Angstrom), charge = 0, multiplicity = 1:

    O            0.287098514891     1.401659967976    -0.363714487899
    C            0.385608334838     0.219595519115    -0.303678477273
    C           -0.849769943253    -0.660364608552    -0.229244481580
    C            1.729750651405    -0.465585330081    -0.281649588338
    C           -1.552729213188    -0.508291369702     1.121642484227
    H           -1.515976379022    -0.347906806369    -1.024161023395
    H           -0.588006569319    -1.697706339414    -0.400741563864
    H           -1.834641072480     0.522617652861     1.286366820645
    H           -2.446248717008    -1.118955052283     1.154016942025
    H           -0.909796343591    -0.817815823292     1.938501730265
    H            1.830417617248    -1.096648444672    -1.158636868378
    H            2.522067676399     0.266838618833    -0.265920357410
    H            1.804650828950    -1.111839596654     0.586758049964

  Mulliken Charges: (a.u.)
   Center  Symbol    Alpha    Beta     Spin     Total
       1     O     4.17642  4.17642  0.00000 -0.35284
       2     C     2.85393  2.85393  0.00000  0.29213
       3     C     3.09846  3.09846  0.00000 -0.19692
       4     C     3.15290  3.15290  0.00000 -0.30579
       5     C     3.14650  3.14650  0.00000 -0.29300
       6     H     0.44159  0.44159  0.00000  0.11682
       7     H     0.44962  0.44962  0.00000  0.10076
       8     H     0.44136  0.44136  0.00000  0.11727
       9     H     0.44749  0.44749  0.00000  0.10502
      10     H     0.45553  0.45553  0.00000  0.08895
      11     H     0.44903  0.44903  0.00000  0.10193
      12     H     0.43644  0.43644  0.00000  0.12713
      13     H     0.45073  0.45073  0.00000  0.09854

   Total alpha = 20.00000, Total beta = 20.00000, Total charge =  0.00000

*** Psi4 exiting successfully. Buy a developer a beer!
