  ==> Input File <==

--------------------------------------------------------------------------
set {
	reference rhf
	basis 6-31G*
}

set_num_threads( 1 )
memory 2 gb

molecule MOL {
0 1

H	 0.121535	 -0.934467	 -1.601770
C	 -0.559000	 -1.304595	 -0.837559
O	 -1.392607	 -0.295399	 -0.366433
H	 -1.187172	 -2.071202	 -1.269826
H	 0.030631	 -1.744851	 -0.034478
C	 -0.719715	 0.768384	 0.229244
C	 0.719720	 0.768376	 -0.229267
H	 -1.185038	 1.714362	 -0.050570
H	 -0.750528	 0.687237	 1.313896
O	 1.392611	 -0.295398	 0.366430
H	 0.750534	 0.687200	 -1.313918
H	 1.185043	 1.714359	 0.050526
C	 2.706965	 -0.449871	 -0.062409
H	 2.756559	 -0.644779	 -1.131878
H	 3.305899	 0.433456	 0.155466
H	 3.125548	 -1.294566	 0.467107

	symmetry c1
}
set optking {
	frozen_dihedral = ("
		3 6 7 11,
		7 10 13 14
	")
}

ee = energy('scf')
oeprop('DIPOLE', 'QUADRUPOLE', 'MULLIKEN_CHARGES')
f=open( 'psi4out.xyz', 'w' )
f.write( "16  " )
f.write( str(ee) + "\n" )
f.write( MOL.save_string_xyz() )
f.close()
--------------------------------------------------------------------------

    Molecular point group: c1

    Geometry (in Angstrom), charge = 0, multiplicity = 1:

       Center              X                  Y                   Z               Mass
    ------------   -----------------  -----------------  -----------------  -----------------
           H         -0.255874096745    -0.784282357735    -1.443643935572     1.007825032070
           C         -0.936409096745    -1.154410357735    -0.679432935572    12.000000000000
           O         -1.770016096745    -0.145214357735    -0.208306935572    15.994914619560
           H         -1.564581096745    -1.921017357735    -1.111699935572     1.007825032070
           H         -0.346778096745    -1.594666357735     0.123648064428     1.007825032070
           C         -1.097124096745     0.918568642265     0.387370064428    12.000000000000
           C          0.342310903255     0.918560642265    -0.071140935572    12.000000000000
           H         -1.562447096745     1.864546642265     0.107556064428     1.007825032070
           H         -1.127937096745     0.837421642265     1.472022064428     1.007825032070
           O          1.015201903255    -0.145213357735     0.524556064428    15.994914619560
           H          0.373124903255     0.837384642265    -1.155791935572     1.007825032070
           H          0.807633903255     1.864543642265     0.208652064428     1.007825032070
           C          2.329555903255    -0.299686357735     0.095717064428    12.000000000000
           H          2.379149903255    -0.494594357735    -0.973751935572     1.007825032070
           H          2.928489903255     0.583640642265     0.313592064428     1.007825032070
           H          2.748138903255    -1.144381357735     0.625233064428     1.007825032070

  Charge       = 0
  Multiplicity = 1
  Basis Set: 6-31G*
  Basis Set:

    Orbital Energies (a.u.)
    -----------------------

    Doubly Occupied:

       1A    -20.565897     2A    -20.546169     3A    -11.275224
       4A    -11.274717     5A    -11.268340     6A    -11.244479
       7A     -1.403049     8A     -1.369072     9A     -1.028453
      10A     -0.952820    11A     -0.897425    12A     -0.814863
      13A     -0.712011    14A     -0.689544    15A     -0.656474
      16A     -0.630342    17A     -0.617343    18A     -0.594693
      19A     -0.553641    20A     -0.544043    21A     -0.522002
      22A     -0.496536    23A     -0.450872    24A     -0.420609
      25A     -0.397927

  @DF-RHF Final Energy:  -306.94980646056933

   => Energetics <=

    Nuclear Repulsion Energy =            273.6892741910658060
    One-Electron Energy =                -961.4250210259158393
    Two-Electron Energy =                 380.7859403742800737
    DFT Exchange-Correlation Energy =       0.0000000000000000
    Empirical Dispersion Energy =           0.0000000000000000
    PCM Polarization Energy =               0.0000000000000000
    EFP Energy =                            0.0000000000000000
    Total Energy =                       -306.9498064605699597

  Mulliken Charges: (a.u.)
   Center  Symbol    Alpha    Beta     Spin     Total
       1     H     0.43730  0.43730  0.00000  0.12541
       2     C     3.08317  3.08317  0.00000 -0.16633
       3     O     4.31012  4.31012  0.00000 -0.62024
       4     H     0.41718  0.41718  0.00000  0.16563
       5     H     0.40457  0.40457  0.00000  0.19086
       6     C     2.97676  2.97676  0.00000  0.04648
       7     C     3.04290  3.04290  0.00000 -0.08581
       8     H     0.42057  0.42057  0.00000  0.15887
       9     H     0.41995  0.41995  0.00000  0.16010
      10     O     4.30133  4.30133  0.00000 -0.60267
      11     H     0.41857  0.41857  0.00000  0.16286
      12     H     0.42073  0.42073  0.00000  0.15854
      13     C     3.08184  3.08184  0.00000 -0.16369
      14     H     0.42888  0.42888  0.00000  0.14224
      15     H     0.42640  0.42640  0.00000  0.14720
      16     H     0.40973  0.40973  0.00000  0.18055

   Total alpha = 25.00000, Total beta = 25.00000, Total charge = -0.00000
