  ==> Input File <==

--------------------------------------------------------------------------
set {
	reference rhf
	basis cc-pvtz
}

set_num_threads( 4 )
memory 2 gb

molecule MOL {
0 1

H	 2.646708	 0.758099	 0.000000
O	 2.258158	 -0.097743	 0.000000
C	 0.911162	 -0.015915	 0.000000
C	 0.319747	 0.810973	 0.940896
C	 0.126675	 -0.719886	 -0.894106
H	 0.943928	 1.349382	 1.626472
C	 -1.053005	 0.925930	 0.978443
H	 0.585510	 -1.361644	 -1.624359
C	 -1.250413	 -0.594770	 -0.844787
H	 -1.505828	 1.568215	 1.709758
C	 -1.849711	 0.225620	 0.087809
H	 -1.852242	 -1.145051	 -1.542870
H	 -2.917280	 0.320182	 0.123150

	symmetry c1
}
set optking {
	frozen_dihedral = ("
		4 3 2 1
	")
}

ee = optimize('scf')
oeprop('DIPOLE', 'QUADRUPOLE', 'MULLIKEN_CHARGES')
f=open( 'psi4out.xyz', 'w' )
f.write( "13  " )
f.write( str(ee) + "\n" )
f.write( MOL.save_string_xyz() )
f.close()
--------------------------------------------------------------------------

    Molecular point group: c1
  Charge       = 0
  Multiplicity = 1
  Basis Set: CC-PVTZ
  Basis Set:
  @DF-RHF Final Energy:  -305.66644883946992
    Total Energy =                       -305.6664488394701493
    Molecular point group: c1
  Basis Set: CC-PVTZ
  Basis Set:
  Basis Set: CC-PVTZ
  Basis Set:
  @DF-RHF Final Energy:  -305.66789634525747
    Total Energy =                       -305.6678963452575886
  Basis Set: CC-PVTZ
  Basis Set:
  Basis Set: CC-PVTZ
  Basis Set:
  @DF-RHF Final Energy:  -305.66799303123543
    Total Energy =                       -305.6679930312354827
  Basis Set: CC-PVTZ
  Basis Set:
  Basis Set: CC-PVTZ
  Basis Set:
  @DF-RHF Final Energy:  -305.66800440720357
    Total Energy =                       -305.6680044072038527
  Basis Set: CC-PVTZ
  Basis Set:
  Charge       = 0
  Multiplicity = 1
  Basis Set: CC-PVTZ
  Basis Set:

    Orbital Energies (a.u.)
    -----------------------

    Doubly Occupied:

       1A    -20.576929     2A    -11.292492     3A    -11.234371
       4A    -11.233119     5A    -11.226267     6A    -11.223004
       7A    -11.222578     8A     -1.405315     9A     -1.153027
      10A     -1.022460    11A     -1.008397    12A     -0.844731
      13A     -0.827480    14A     -0.739708    15A     -0.686104
      16A     -0.652680    17A     -0.625570    18A     -0.598508
      19A     -0.591826    20A     -0.540160    21A     -0.517292
      22A     -0.496671    23A     -0.478169    24A     -0.342346
      25A     -0.322601

  @DF-RHF Final Energy:  -305.66800715143307

   => Energetics <=

    Nuclear Repulsion Energy =            273.5371716988909725
    One-Electron Energy =                -956.6867501526301112
    Two-Electron Energy =                 377.4815713023058379
    DFT Exchange-Correlation Energy =       0.0000000000000000
    Empirical Dispersion Energy =           0.0000000000000000
    PCM Polarization Energy =               0.0000000000000000
    EFP Energy =                            0.0000000000000000
    Total Energy =                       -305.6680071514333576
    Molecular point group: c1
  Basis Set: CC-PVTZ
  Basis Set:

  -Total Gradient:
     Atom            X                  Y                   Z
    ------   -----------------  -----------------  -----------------
       1       -0.000105597141     0.000065916455    -0.002500391078
       2        0.000094261388    -0.000865612720     0.003728825328
       3       -0.000050083563     0.002126880710    -0.002476785778
       4       -0.000070091123    -0.001435234743     0.001200709543
       5        0.000202180617     0.000026069187    -0.000001144546
       6       -0.000057507371    -0.000003713024    -0.000023517443
       7        0.000101266081     0.000061391161    -0.000006062484
       8        0.000067449589     0.000015610888     0.000021746860
       9       -0.000181243649     0.000092248141     0.000079405742
      10       -0.000045506733    -0.000014338922     0.000006373045
      11        0.000017842098    -0.000117966265    -0.000109385406
      12        0.000027734791     0.000007741578     0.000017410732
      13       -0.000000704989     0.000041007553     0.000062815484

  **** Optimization is complete! (in 5 steps) ****
    Final optimized geometry and variables:
    Molecular point group: c1

    Geometry (in Angstrom), charge = 0, multiplicity = 1:

    H            2.691025828188     0.609216615121    -0.060347466117
    O            2.254995059225    -0.223866590946    -0.075777995401
    C            0.905070370279    -0.062465755451    -0.034645735948
    C            0.304964362643     0.746779874898     0.912723812752
    C            0.131232933378    -0.781351874769    -0.924970025371
    H            0.913097445155     1.281610309782     1.617958074365
    C           -1.072245162947     0.853301209503     0.948808520844
    H            0.615705524210    -1.411803108751    -1.644350599246
    C           -1.245392175074    -0.678740588066    -0.871448916096
    H           -1.533739508313     1.486764855025     1.682316815970
    C           -1.854596786180     0.141279541078     0.059918750388
    H           -1.843015372548    -1.239309424873    -1.564816946853
    H           -2.923649292670     0.221203229971     0.095676441273

  Mulliken Charges: (a.u.)
   Center  Symbol    Alpha    Beta     Spin     Total
       1     H     0.38583  0.38583  0.00000  0.22833
       2     O     4.18597  4.18597  0.00000 -0.37193
       3     C     2.86636  2.86636  0.00000  0.26728
       4     C     3.12261  3.12261  0.00000 -0.24523
       5     C     3.10835  3.10835  0.00000 -0.21671
       6     H     0.42468  0.42468  0.00000  0.15064
       7     C     3.06724  3.06724  0.00000 -0.13447
       8     H     0.41698  0.41698  0.00000  0.16604
       9     C     3.06262  3.06262  0.00000 -0.12525
      10     H     0.42216  0.42216  0.00000  0.15569
      11     C     3.09170  3.09170  0.00000 -0.18340
      12     H     0.42203  0.42203  0.00000  0.15594
      13     H     0.42347  0.42347  0.00000  0.15307

   Total alpha = 25.00000, Total beta = 25.00000, Total charge =  0.00000
