                              Psi4 1.0.54 Driver

  ==> Input File <==

--------------------------------------------------------------------------
set {
	reference rhf
	basis cc-pvtz
}

set_num_threads( 4 )
memory 2 gb

molecule MOL {
0 1

H	 -0.000342	 -0.223902	 -3.352295
C	 -0.027146	 0.371068	 -2.446756
C	 0.024493	 -0.518541	 -1.216015
H	 -0.932586	 0.964979	 -2.449855
H	 0.819708	 1.049865	 -2.473332
N	 -0.042516	 0.263377	 0.000000
H	 -0.822211	 -1.197105	 -1.225584
H	 0.921114	 -1.142847	 -1.255206
C	 0.024493	 -0.518541	 1.216015
H	 0.682568	 0.950412	 0.000000
C	 -0.048930	 0.369378	 2.446870
H	 -0.813391	 -1.208029	 1.218073
H	 0.928776	 -1.131203	 1.262271
H	 -0.961990	 0.951501	 2.442809
H	 -0.021959	 -0.225890	 3.352208
H	 0.788799	 1.059074	 2.480957

	symmetry c1
}
set optking {
	frozen_dihedral = ("
		12 9 6 3
	")
}

ee,wfn = optimize('scf', return_wfn=True)
oeprop( wfn, 'DIPOLE', 'QUADRUPOLE', 'MULLIKEN_CHARGES')
f=open( 'psi4out.xyz', 'w' )
f.write( "16  " )
f.write( str(ee) + "\n" )
f.write( MOL.save_string_xyz() )
f.close()
--------------------------------------------------------------------------

    Molecular point group: c1
  Charge       = 0
  Multiplicity = 1
  Basis Set: CC-PVTZ
  Basis Set:
  @DF-RHF Final Energy:  -212.39468613128358
    Total Energy =                       -212.3946861312836063
    Molecular point group: c1
  Basis Set: CC-PVTZ
  Basis Set:
  Charge       = 0
  Multiplicity = 1
  Basis Set: CC-PVTZ
  Basis Set:

    Orbital Energies (a.u.)
    -----------------------

    Doubly Occupied:

       1A    -15.528832     2A    -11.239008     3A    -11.238985
       4A    -11.206583     5A    -11.206470     6A     -1.207483
       7A     -1.029214     8A     -0.963981     9A     -0.832385
      10A     -0.822443    11A     -0.662717    12A     -0.629570
      13A     -0.599368    14A     -0.590578    15A     -0.553993
      16A     -0.521578    17A     -0.508524    18A     -0.489436
      19A     -0.482185    20A     -0.475335    21A     -0.362205

  @DF-RHF Final Energy:  -212.39468637877255

   => Energetics <=

    Nuclear Repulsion Energy =            189.4329905397244431
    One-Electron Energy =                -661.3536008030622497
    Two-Electron Energy =                 259.5259238845651453
    DFT Exchange-Correlation Energy =       0.0000000000000000
    Empirical Dispersion Energy =           0.0000000000000000
    PCM Polarization Energy =               0.0000000000000000
    EFP Energy =                            0.0000000000000000
    Total Energy =                       -212.3946863787726897
    Molecular point group: c1
  Basis Set: CC-PVTZ
  Basis Set:

  -Total Gradient:
     Atom            X                  Y                   Z
    ------   -----------------  -----------------  -----------------
       1       -0.000001023008    -0.000001963589    -0.000003173961
       2       -0.000007061609    -0.000012734534     0.000010572490
       3       -0.000099512147    -0.000030841145    -0.000043738258
       4        0.000000856294     0.000003725531    -0.000000801335
       5       -0.000001760581    -0.000001832954     0.000003181127
       6        0.000160617198     0.000014237958    -0.000013442083
       7        0.000002157824     0.000006059041    -0.000001518152
       8       -0.000000640525    -0.000002521788    -0.000008715208
       9       -0.000172434240     0.000094427470     0.000106312790
      10        0.000017759309    -0.000000012562     0.000005152998
      11        0.000021890797     0.000013519497     0.000024435819
      12        0.000098122781    -0.000097915822    -0.000088536590
      13       -0.000017533522     0.000019981206    -0.000006255633
      14        0.000000464027    -0.000008807276    -0.000008377778
      15        0.000001868392    -0.000002082079     0.000016247083
      16       -0.000003770991     0.000006761046     0.000008656692

  **** Optimization is complete! (in 2 steps) ****
    Final optimized geometry and variables:
    Molecular point group: c1

    Geometry (in Angstrom), charge = 0, multiplicity = 1:

    H            0.004078506357    -0.223322009407    -3.352397801797
    C           -0.022195323540     0.371476439885    -2.446725710184
    C            0.029142909914    -0.518335370893    -1.216153234183
    H           -0.927247357159     0.965987273367    -2.449452044963
    H            0.825120681018     1.049684300552    -2.473249591936
    N           -0.038561870557     0.263448911854    -0.000125336418
    H           -0.817539546556    -1.196864577657    -1.226242472038
    H            0.925847195983    -1.142571522537    -1.255308724009
    C            0.028527353484    -0.518041418149     1.216096182836
    H            0.685576949642     0.951470361647     0.000107256020
    C           -0.044161960472     0.369910735003     2.446979905577
    H           -0.809034067584    -1.207832914515     1.217895233997
    H            0.932573359611    -1.131086993356     1.262095491316
    H           -0.957602906321     0.951392721469     2.443646211184
    H           -0.015619948518    -0.225156896335     3.352454662121
    H            0.793074136267     1.060239596857     2.479845887810

  Mulliken Charges: (a.u.)
   Center  Symbol    Alpha    Beta     Spin     Total
       1     H     0.45387  0.45387  0.00000  0.09226
       2     C     3.14204  3.14204  0.00000 -0.28408
       3     C     3.02188  3.02188  0.00000 -0.04376
       4     H     0.44951  0.44951  0.00000  0.10099
       5     H     0.45948  0.45948  0.00000  0.08103
       6     N     3.63625  3.63625  0.00000 -0.27250
       7     H     0.45854  0.45854  0.00000  0.08292
       8     H     0.47412  0.47412  0.00000  0.05175
       9     C     3.02218  3.02218  0.00000 -0.04435
      10     H     0.44494  0.44494  0.00000  0.11012
      11     C     3.14181  3.14181  0.00000 -0.28361
      12     H     0.45855  0.45855  0.00000  0.08291
      13     H     0.47387  0.47387  0.00000  0.05227
      14     H     0.44956  0.44956  0.00000  0.10088
      15     H     0.45397  0.45397  0.00000  0.09205
      16     H     0.45945  0.45945  0.00000  0.08111

   Total alpha = 21.00000, Total beta = 21.00000, Total charge = -0.00000

*** Psi4 exiting successfully. Buy a developer a beer!
