  ==> Input File <==

--------------------------------------------------------------------------
set {
	reference rhf
	basis 6-31G*
}

set_num_threads( 4 )
memory 2 gb

molecule MOL {
0 1

O	 -2.672011	 -0.675055	 0.503782
C	 -1.921153	 0.064240	 -0.045697
C	 -2.295884	 1.004302	 -1.159343
O	 -0.632575	 0.154573	 0.251549
H	 -1.711422	 0.776335	 -2.043301
H	 -3.348987	 0.907064	 -1.376950
H	 -2.068973	 2.023820	 -0.869769
C	 0.160891	 -1.019931	 0.106212
C	 1.589627	 -0.672828	 0.480843
H	 0.089836	 -1.367806	 -0.916050
H	 -0.238459	 -1.792301	 0.749618
C	 2.246377	 0.346236	 -0.452210
H	 2.163194	 -1.597435	 0.473358
H	 1.604769	 -0.303424	 1.502885
C	 3.691736	 0.652107	 -0.061850
H	 2.219579	 -0.032311	 -1.472055
H	 1.666466	 1.263317	 -0.447249
H	 4.134505	 1.377213	 -0.737283
H	 4.305508	 -0.243868	 -0.089969
H	 3.748266	 1.059562	 0.943567

	symmetry c1
}
set optking {
	frozen_dihedral = ("
		1 2 4 8
	")
}

ee = optimize('scf')
oeprop('DIPOLE', 'QUADRUPOLE', 'MULLIKEN_CHARGES')
f=open( 'psi4out.xyz', 'w' )
f.write( "20  " )
f.write( str(ee) + "\n" )
f.write( MOL.save_string_xyz() )
f.close()
--------------------------------------------------------------------------

    Molecular point group: c1
  Charge       = 0
  Multiplicity = 1
  Basis Set: 6-31G*
  Basis Set:
  @DF-RHF Final Energy:  -383.93091913821723
    Total Energy =                       -383.9309191382174049
    Molecular point group: c1
  Basis Set: 6-31G*
  Basis Set:
  Basis Set: 6-31G*
  Basis Set:
  @DF-RHF Final Energy:  -383.92869204681847
    Total Energy =                       -383.9286920468185826
  Basis Set: 6-31G*
  Basis Set:
  Basis Set: 6-31G*
  Basis Set:
  @DF-RHF Final Energy:  -383.93184068786690
    Total Energy =                       -383.9318406878664973
  Basis Set: 6-31G*
  Basis Set:
  Basis Set: 6-31G*
  Basis Set:
  @DF-RHF Final Energy:  -383.93192915481853
    Total Energy =                       -383.9319291548175670
  Basis Set: 6-31G*
  Basis Set:
  Basis Set: 6-31G*
  Basis Set:
  @DF-RHF Final Energy:  -383.93193536099579
    Total Energy =                       -383.9319353609959080
  Basis Set: 6-31G*
  Basis Set:
  Basis Set: 6-31G*
  Basis Set:
  @DF-RHF Final Energy:  -383.93193662288502
    Total Energy =                       -383.9319366228846775
  Basis Set: 6-31G*
  Basis Set:
  Charge       = 0
  Multiplicity = 1
  Basis Set: 6-31G*
  Basis Set:

    Orbital Energies (a.u.)
    -----------------------

    Doubly Occupied:

       1A    -20.587463     2A    -20.552822     3A    -11.376720
       4A    -11.288830     5A    -11.235195     6A    -11.226664
       7A    -11.221414     8A    -11.213915     9A     -1.459770
      10A     -1.364757    11A     -1.085164    12A     -1.025260
      13A     -0.984942    14A     -0.880681    15A     -0.811122
      16A     -0.775308    17A     -0.693692    18A     -0.683665
      19A     -0.652512    20A     -0.634808    21A     -0.610252
      22A     -0.593620    23A     -0.573084    24A     -0.561169
      25A     -0.546102    26A     -0.526874    27A     -0.506872
      28A     -0.484957    29A     -0.477045    30A     -0.473507
      31A     -0.446558    32A     -0.436832

  @DF-RHF Final Energy:  -383.93193704638588

   => Energetics <=

    Nuclear Repulsion Energy =            384.2601846334803213
    One-Electron Energy =               -1284.4010891434986661
    Two-Electron Energy =                 516.2089674636323480
    DFT Exchange-Correlation Energy =       0.0000000000000000
    Empirical Dispersion Energy =           0.0000000000000000
    PCM Polarization Energy =               0.0000000000000000
    EFP Energy =                            0.0000000000000000
    Total Energy =                       -383.9319370463859968
    Molecular point group: c1
  Basis Set: 6-31G*
  Basis Set:

  -Total Gradient:
     Atom            X                  Y                   Z
    ------   -----------------  -----------------  -----------------
       1       -0.001393557560     0.006376804938     0.005281116918
       2        0.002610574003    -0.008776807911    -0.010916065450
       3        0.000010674825    -0.000023923209    -0.000033951768
       4       -0.002281578975     0.001174422047     0.012110845837
       5        0.000004979129     0.000018440166     0.000020388319
       6       -0.000035894648     0.000040678574    -0.000036172710
       7       -0.000001665005    -0.000027724944     0.000008905982
       8        0.001056277210     0.001232324622    -0.006472767102
       9       -0.000024160825     0.000016942965     0.000029406002
      10        0.000037059320    -0.000023308263     0.000019465437
      11        0.000015724701    -0.000002810428     0.000009715687
      12        0.000006689187    -0.000000557566    -0.000012704206
      13       -0.000031807111    -0.000004055450    -0.000013448230
      14        0.000019055711     0.000000526369     0.000011725900
      15       -0.000002958417     0.000004433619     0.000004357084
      16        0.000003296692     0.000002940229    -0.000002434507
      17        0.000002739882    -0.000011450065    -0.000012954461
      18       -0.000000873274     0.000004070408     0.000003876725
      19        0.000002224666     0.000000844701    -0.000003145515
      20        0.000003200497    -0.000001790800     0.000003840054

  **** Optimization is complete! (in 7 steps) ****
    Final optimized geometry and variables:
    Molecular point group: c1

    Geometry (in Angstrom), charge = 0, multiplicity = 1:

    O           -2.659570674891    -0.632034804746     0.610597472367
    C           -1.946672925673     0.069768720974    -0.022150715710
    C           -2.406653538531     1.010686628277    -1.101389470466
    O           -0.629700892997     0.183924035574     0.225205657569
    H           -1.909831244218     0.767076673915    -2.034554002426
    H           -3.477720715975     0.944377862452    -1.223073722656
    H           -2.122662116704     2.023588611340    -0.839085305856
    C            0.158448485172    -0.998157419721     0.132811805838
    C            1.582012799340    -0.660548365439     0.533384101299
    H            0.121823375961    -1.363398664542    -0.889712952378
    H           -0.259271726020    -1.754798503989     0.783335064581
    C            2.265868559291     0.346845033654    -0.392344786202
    H            2.148348346811    -1.589645259446     0.546883580362
    H            1.572453812703    -0.282488088920     1.551810661362
    C            3.703165320361     0.648248207972     0.030081903654
    H            2.262265137609    -0.040806675320    -1.409449089707
    H            1.690282533777     1.266120398520    -0.409023949310
    H            4.166166238200     1.364632147825    -0.641088915511
    H            4.312688810951    -0.251121143184     0.025511835643
    H            3.737258550859     1.065029858390     1.032566657354

  Mulliken Charges: (a.u.)
   Center  Symbol    Alpha    Beta     Spin     Total
       1     O     4.26193  4.26193  0.00000 -0.52386
       2     C     2.62036  2.62036  0.00000  0.75928
       3     C     3.28433  3.28433  0.00000 -0.56866
       4     O     4.31811  4.31811  0.00000 -0.63623
       5     H     0.40531  0.40531  0.00000  0.18938
       6     H     0.39773  0.39773  0.00000  0.20455
       7     H     0.39827  0.39827  0.00000  0.20345
       8     C     3.00392  3.00392  0.00000 -0.00785
       9     C     3.16431  3.16431  0.00000 -0.32861
      10     H     0.42312  0.42312  0.00000  0.15376
      11     H     0.40317  0.40317  0.00000  0.19367
      12     C     3.15497  3.15497  0.00000 -0.30995
      13     H     0.41883  0.41883  0.00000  0.16234
      14     H     0.41076  0.41076  0.00000  0.17847
      15     C     3.24053  3.24053  0.00000 -0.48105
      16     H     0.42506  0.42506  0.00000  0.14988
      17     H     0.41013  0.41013  0.00000  0.17974
      18     H     0.41768  0.41768  0.00000  0.16464
      19     H     0.42189  0.42189  0.00000  0.15622
      20     H     0.41959  0.41959  0.00000  0.16081

   Total alpha = 32.00000, Total beta = 32.00000, Total charge =  0.00000
