  ==> Input File <==

--------------------------------------------------------------------------
set {
	reference rhf
	basis 6-31G*
}

set_num_threads( 4 )
memory 2 gb

molecule MOL {
0 1

H	 -1.944752	 -0.418930	 2.120174
C	 -1.382091	 -0.272165	 1.219465
C	 -1.949296	 0.381418	 0.075510
C	 -0.115641	 -0.697482	 1.126579
H	 -2.964444	 0.734457	 0.118888
C	 -1.225872	 0.553539	 -1.040060
H	 0.381810	 -1.195405	 1.937146
N	 0.640212	 -0.532897	 -0.000111
H	 -1.616318	 1.037276	 -1.914077
C	 0.152233	 0.090672	 -1.140863
C	 2.010177	 -1.032049	 0.000042
O	 0.835685	 0.226187	 -2.125107
H	 2.187698	 -1.635381	 -0.882279
H	 2.677579	 -0.189247	 -0.001871
H	 2.188882	 -1.632203	 0.884288

	symmetry c1
}
set optking {
	frozen_dihedral = ("
		10 8 11 13
	")
}

ee = optimize('scf')
oeprop('DIPOLE', 'QUADRUPOLE', 'MULLIKEN_CHARGES')
f=open( 'psi4out.xyz', 'w' )
f.write( "15  " )
f.write( str(ee) + "\n" )
f.write( MOL.save_string_xyz() )
f.close()
--------------------------------------------------------------------------

    Molecular point group: c1
  Charge       = 0
  Multiplicity = 1
  Basis Set: 6-31G*
  Basis Set:
  @DF-RHF Final Energy:  -360.59579742658048
    Total Energy =                       -360.5957974265807024
    Molecular point group: c1
  Basis Set: 6-31G*
  Basis Set:
  Basis Set: 6-31G*
  Basis Set:
  @DF-RHF Final Energy:  -360.59660405347097
    Total Energy =                       -360.5966040534710828
  Basis Set: 6-31G*
  Basis Set:
  Basis Set: 6-31G*
  Basis Set:
  @DF-RHF Final Energy:  -360.59670726562626
    Total Energy =                       -360.5967072656260939
  Basis Set: 6-31G*
  Basis Set:
  Basis Set: 6-31G*
  Basis Set:
  @DF-RHF Final Energy:  -360.59667098610964
    Total Energy =                       -360.5966709861094159
  Basis Set: 6-31G*
  Basis Set:
  Charge       = 0
  Multiplicity = 1
  Basis Set: 6-31G*
  Basis Set:

    Orbital Energies (a.u.)
    -----------------------

    Doubly Occupied:

       1A    -20.508914     2A    -15.622502     3A    -11.341494
       4A    -11.298137     5A    -11.266820     6A    -11.260399
       7A    -11.232780     8A    -11.228790     9A     -1.385250
      10A     -1.281074    11A     -1.114900    12A     -1.026381
      13A     -0.970299    14A     -0.872963    15A     -0.835782
      16A     -0.716072    17A     -0.697458    18A     -0.661419
      19A     -0.648551    20A     -0.622944    21A     -0.606532
      22A     -0.573762    23A     -0.548379    24A     -0.547079
      25A     -0.528023    26A     -0.477999    27A     -0.413918
      28A     -0.405825    29A     -0.304438

  @DF-RHF Final Energy:  -360.59671556820712

   => Energetics <=

    Nuclear Repulsion Energy =            358.0092406748644294
    One-Electron Energy =               -1199.2141471361103413
    Two-Electron Energy =                 480.6081908930385680
    DFT Exchange-Correlation Energy =       0.0000000000000000
    Empirical Dispersion Energy =           0.0000000000000000
    PCM Polarization Energy =               0.0000000000000000
    EFP Energy =                            0.0000000000000000
    Total Energy =                       -360.5967155682072871
    Molecular point group: c1
  Basis Set: 6-31G*
  Basis Set:

  -Total Gradient:
     Atom            X                  Y                   Z
    ------   -----------------  -----------------  -----------------
       1       -0.000003158357     0.000003630502     0.000005586613
       2        0.000233956833    -0.000075806255     0.000027124721
       3       -0.000047101841     0.000097423629    -0.000198359009
       4       -0.000286608765    -0.000033962992     0.000214907478
       5        0.000006283752    -0.000006773609     0.000009024833
       6       -0.000198527911     0.000050014507     0.000091031701
       7        0.000028666491     0.000018886539    -0.000018609304
       8        0.000337969044     0.000814203636    -0.000136568513
       9        0.000018109644     0.000002513637    -0.000018631840
      10        0.000063730020    -0.000643637312     0.000057920847
      11       -0.000291910967    -0.000804579275     0.000265282491
      12       -0.000038192190     0.000074758227    -0.000054249090
      13        0.000153337404     0.000491762732    -0.000258404532
      14        0.000005112614     0.000020177410    -0.000005510711
      15        0.000018334226    -0.000008611377     0.000019454317

  **** Optimization is complete! (in 5 steps) ****
    Final optimized geometry and variables:
    Molecular point group: c1

    Geometry (in Angstrom), charge = 0, multiplicity = 1:

    H           -1.902979291479    -0.230778174314     2.374871912604
    C           -1.332647987474    -0.090712117501     1.478010683408
    C           -1.890108137099     0.556453299574     0.326736555841
    C           -0.066159215594    -0.522889787947     1.399736148469
    H           -2.905205755019     0.910471766714     0.361909624425
    C           -1.159310383763     0.721981975260    -0.786130855459
    H            0.419902170947    -1.017583569144     2.217981766599
    N            0.693935209533    -0.366831026443     0.276603824577
    H           -1.542264263603     1.201841462021    -1.665745314231
    C            0.218134319946     0.258999008257    -0.865676684769
    C            2.069969700673    -0.844591328058     0.232711529840
    O            0.930327839127     0.389436785646    -1.830352325649
    H            2.224356128053    -1.427027712216    -0.662226015365
    H            2.758843531128    -0.010466480452     0.216149697942
    H            2.260789743221    -1.453732519574     1.104545929901

  Mulliken Charges: (a.u.)
   Center  Symbol    Alpha    Beta     Spin     Total
       1     H     0.39310  0.39310  0.00000  0.21380
       2     C     3.16244  3.16244  0.00000 -0.32488
       3     C     3.05822  3.05822  0.00000 -0.11643
       4     C     2.92163  2.92163  0.00000  0.15674
       5     H     0.39091  0.39091  0.00000  0.21819
       6     C     3.16970  3.16970  0.00000 -0.33940
       7     H     0.38739  0.38739  0.00000  0.22521
       8     N     3.86305  3.86305  0.00000 -0.72610
       9     H     0.38647  0.38647  0.00000  0.22705
      10     C     2.59710  2.59710  0.00000  0.80580
      11     C     3.13965  3.13965  0.00000 -0.27930
      12     O     4.32161  4.32161  0.00000 -0.64321
      13     H     0.39240  0.39240  0.00000  0.21520
      14     H     0.40057  0.40057  0.00000  0.19886
      15     H     0.41576  0.41576  0.00000  0.16847

   Total alpha = 29.00000, Total beta = 29.00000, Total charge = -0.00000
