  ==> Input File <==

--------------------------------------------------------------------------
set {
	reference rhf
	basis cc-pvtz
}

set_num_threads( 4 )
memory 2 gb

molecule MOL {
0 1

H	 2.692634	 0.993820	 1.387750
N	 1.824838	 0.501946	 1.363670
C	 1.263552	 0.494993	 0.021953
H	 1.209849	 0.957999	 2.004874
C	 -0.016533	 -0.325589	 -0.026925
H	 1.997992	 0.051648	 -0.642153
H	 1.061942	 1.497118	 -0.358947
C	 -1.280353	 0.525521	 0.047747
H	 -0.016686	 -0.912532	 -0.939714
H	 -0.014099	 -1.037598	 0.796369
C	 -2.560681	 -0.301323	 -0.007747
H	 -1.279957	 1.241025	 -0.770189
H	 -1.270445	 1.110526	 0.963468
H	 -2.617064	 -0.872870	 -0.928010
H	 -3.439525	 0.331102	 0.043462
H	 -2.609427	 -1.002736	 0.818585

	symmetry c1
}
set optking {
	frozen_dihedral = ("
		6 3 5 9
	")
}

ee = optimize('scf')
oeprop('DIPOLE', 'QUADRUPOLE', 'MULLIKEN_CHARGES')
f=open( 'psi4out.xyz', 'w' )
f.write( "16  " )
f.write( str(ee) + "\n" )
f.write( MOL.save_string_xyz() )
f.close()
--------------------------------------------------------------------------

    Molecular point group: c1
  Charge       = 0
  Multiplicity = 1
  Basis Set: CC-PVTZ
  Basis Set:
  @DF-RHF Final Energy:  -212.39556184931206
    Total Energy =                       -212.3955618493121165
    Molecular point group: c1
  Basis Set: CC-PVTZ
  Basis Set:
  Basis Set: CC-PVTZ
  Basis Set:
  @DF-RHF Final Energy:  -212.39596492323750
    Total Energy =                       -212.3959649232374431
  Basis Set: CC-PVTZ
  Basis Set:
  Basis Set: CC-PVTZ
  Basis Set:
  @DF-RHF Final Energy:  -212.39605998959601
    Total Energy =                       -212.3960599895960968
  Basis Set: CC-PVTZ
  Basis Set:
  Basis Set: CC-PVTZ
  Basis Set:
  @DF-RHF Final Energy:  -212.39606204500754
    Total Energy =                       -212.3960620450075112
  Basis Set: CC-PVTZ
  Basis Set:
  Charge       = 0
  Multiplicity = 1
  Basis Set: CC-PVTZ
  Basis Set:

    Orbital Energies (a.u.)
    -----------------------

    Doubly Occupied:

       1A    -15.527095     2A    -11.238143     3A    -11.214447
       4A    -11.207727     5A    -11.206474     6A     -1.178016
       7A     -1.059656     8A     -0.959941     9A     -0.849417
      10A     -0.788464    11A     -0.667679    12A     -0.635632
      13A     -0.604950    14A     -0.583585    15A     -0.555124
      16A     -0.525463    17A     -0.513035    18A     -0.472703
      19A     -0.465681    20A     -0.454752    21A     -0.382968

  @DF-RHF Final Energy:  -212.39606233155791

   => Energetics <=

    Nuclear Repulsion Energy =            187.8903653513289669
    One-Electron Energy =                -658.3909497414757652
    Two-Electron Energy =                 258.1045220585889410
    DFT Exchange-Correlation Energy =       0.0000000000000000
    Empirical Dispersion Energy =           0.0000000000000000
    PCM Polarization Energy =               0.0000000000000000
    EFP Energy =                            0.0000000000000000
    Total Energy =                       -212.3960623315578573
    Molecular point group: c1
  Basis Set: CC-PVTZ
  Basis Set:

  -Total Gradient:
     Atom            X                  Y                   Z
    ------   -----------------  -----------------  -----------------
       1        0.000026512861     0.000007083672     0.000016143211
       2       -0.000018254833    -0.000009186910    -0.000030414571
       3        0.001893748543    -0.003650274629     0.004147533621
       4       -0.000002910954     0.000014317627     0.000007331748
       5       -0.002439423387     0.004343436182    -0.003057935207
       6       -0.001214675989     0.002324470552    -0.002984865125
       7       -0.000004055939     0.000025559061     0.000002506814
       8        0.000038298700    -0.000028923063     0.000009913228
       9        0.001732998688    -0.003021356725     0.001879145122
      10       -0.000001915764    -0.000007364358     0.000015162811
      11       -0.000007946741     0.000008214801     0.000003949118
      12        0.000004388555    -0.000005414407    -0.000000178401
      13       -0.000002228113    -0.000003724974    -0.000004134725
      14        0.000002867472     0.000002289796     0.000000905681
      15       -0.000011753330    -0.000005947449    -0.000002128324
      16        0.000004350231     0.000006820827    -0.000002935002

  **** Optimization is complete! (in 5 steps) ****
    Final optimized geometry and variables:
    Molecular point group: c1

    Geometry (in Angstrom), charge = 0, multiplicity = 1:

    H            2.796399380677     0.833384799234     1.126895621300
    N            1.947713080137     0.309566182765     1.083487843546
    C            1.420698865805     0.288041076081    -0.273332661751
    H            1.303867623753     0.748819795764     1.708231292800
    C            0.116851182172    -0.512018238061    -0.363292204740
    H            2.166185786697    -0.151772691337    -0.924512044627
    H            1.245590111529     1.290490345032    -0.667851083931
    C           -1.148015976183     0.336693095648    -0.267560923942
    H            0.106901930254    -1.092596789268    -1.280679612036
    H            0.123320083040    -1.244184266218     0.438415062328
    C           -2.426656959533    -0.493693785899    -0.283533132161
    H           -1.168097010460     1.045527321879    -1.090528705362
    H           -1.119116776405     0.930860699444     0.642816619443
    H           -2.500917226881    -1.076963702784    -1.195415244425
    H           -3.306468634992     0.136520156507    -0.221653941003
    H           -2.454199792910    -1.185068624033     0.551888161519

  Mulliken Charges: (a.u.)
   Center  Symbol    Alpha    Beta     Spin     Total
       1     H     0.42994  0.42994  0.00000  0.14012
       2     N     3.68635  3.68635  0.00000 -0.37270
       3     C     3.03333  3.03333  0.00000 -0.06667
       4     H     0.43121  0.43121  0.00000  0.13757
       5     C     3.09606  3.09606  0.00000 -0.19212
       6     H     0.45251  0.45251  0.00000  0.09498
       7     H     0.46904  0.46904  0.00000  0.06192
       8     C     3.08067  3.08067  0.00000 -0.16134
       9     H     0.45057  0.45057  0.00000  0.09886
      10     H     0.44913  0.44913  0.00000  0.10174
      11     C     3.15013  3.15013  0.00000 -0.30026
      12     H     0.45475  0.45475  0.00000  0.09051
      13     H     0.45858  0.45858  0.00000  0.08284
      14     H     0.45478  0.45478  0.00000  0.09044
      15     H     0.44897  0.44897  0.00000  0.10205
      16     H     0.45398  0.45398  0.00000  0.09205

   Total alpha = 21.00000, Total beta = 21.00000, Total charge = -0.00000
