  ==> Input File <==

--------------------------------------------------------------------------
set {
	reference rhf
	basis cc-pvtz
}

set_num_threads( 4 )
memory 2 gb

molecule MOL {
0 1

H	 1.747110	 1.942153	 -1.235003
O	 0.847344	 1.807326	 -1.002864
C	 0.700177	 0.619554	 -0.266242
C	 -0.713111	 0.588314	 0.266177
H	 1.400728	 0.593748	 0.562907
H	 0.872767	 -0.250651	 -0.894201
O	 -1.421673	 -0.521378	 -0.196983
H	 -1.244794	 1.469161	 -0.069059
H	 -0.685100	 0.604721	 1.352683
H	 -0.933408	 -1.297830	 0.014544

	symmetry c1
}
set optking {
	frozen_dihedral = ("
		5 3 4 7
	")
}

ee = optimize('scf')
oeprop('DIPOLE', 'QUADRUPOLE', 'MULLIKEN_CHARGES')
f=open( 'psi4out.xyz', 'w' )
f.write( "10  " )
f.write( str(ee) + "\n" )
f.write( MOL.save_string_xyz() )
f.close()
--------------------------------------------------------------------------

    Molecular point group: c1
  Charge       = 0
  Multiplicity = 1
  Basis Set: CC-PVTZ
  Basis Set:
  @DF-RHF Final Energy:  -229.01717139356751
    Total Energy =                       -229.0171713935675086
    Molecular point group: c1
  Basis Set: CC-PVTZ
  Basis Set:
  Basis Set: CC-PVTZ
  Basis Set:
  @DF-RHF Final Energy:  -229.01823628470927
    Total Energy =                       -229.0182362847093600
  Basis Set: CC-PVTZ
  Basis Set:
  Basis Set: CC-PVTZ
  Basis Set:
  @DF-RHF Final Energy:  -229.01864972671152
    Total Energy =                       -229.0186497267115442
  Basis Set: CC-PVTZ
  Basis Set:
  Basis Set: CC-PVTZ
  Basis Set:
  @DF-RHF Final Energy:  -229.01873071886979
    Total Energy =                       -229.0187307188698185
  Basis Set: CC-PVTZ
  Basis Set:
  Basis Set: CC-PVTZ
  Basis Set:
  @DF-RHF Final Energy:  -229.01876766430570
    Total Energy =                       -229.0187676643056989
  Basis Set: CC-PVTZ
  Basis Set:
  Charge       = 0
  Multiplicity = 1
  Basis Set: CC-PVTZ
  Basis Set:

    Orbital Energies (a.u.)
    -----------------------

    Doubly Occupied:

       1A    -20.552133     2A    -20.550011     3A    -11.270968
       4A    -11.267625     5A     -1.375834     6A     -1.361985
       7A     -0.996736     8A     -0.848065     9A     -0.714831
      10A     -0.700301    11A     -0.640220    12A     -0.596504
      13A     -0.585533    14A     -0.532258    15A     -0.489885
      16A     -0.445128    17A     -0.440074

  @DF-RHF Final Energy:  -229.01876835933680

   => Energetics <=

    Nuclear Repulsion Energy =            131.3924963197290765
    One-Electron Energy =                -574.0863435676311610
    Two-Electron Energy =                 213.6750788885653378
    DFT Exchange-Correlation Energy =       0.0000000000000000
    Empirical Dispersion Energy =           0.0000000000000000
    PCM Polarization Energy =               0.0000000000000000
    EFP Energy =                            0.0000000000000000
    Total Energy =                       -229.0187683593367751
    Molecular point group: c1
  Basis Set: CC-PVTZ
  Basis Set:

  -Total Gradient:
     Atom            X                  Y                   Z
    ------   -----------------  -----------------  -----------------
       1       -0.000011998584    -0.000008899746     0.000003217112
       2        0.000005485067    -0.000047107189     0.000052855944
       3        0.000033345988    -0.000649942198    -0.000314518347
       4        0.000126425248    -0.000244657904     0.000557372328
       5       -0.000038810511     0.000652708413     0.000050417913
       6        0.000017042550    -0.000016444012     0.000005816432
       7       -0.000122316505     0.000349370466    -0.000354041855
       8        0.000000722119    -0.000003074055    -0.000003700646
       9       -0.000014105629    -0.000017275680     0.000004597240
      10        0.000004210257    -0.000014678093    -0.000002016124

  **** Optimization is complete! (in 6 steps) ****
    Final optimized geometry and variables:
    Molecular point group: c1

    Geometry (in Angstrom), charge = 0, multiplicity = 1:

    H            1.869957085578     1.327626605042    -0.962719880221
    O            0.991470202829     1.242474267956    -0.640882909952
    C            0.846394761341     0.030761787319     0.051369341740
    C           -0.590494238229    -0.067091485641     0.572599801633
    H            1.555909731527    -0.011773826562     0.873752162813
    H            1.032907568412    -0.813089307757    -0.605172544471
    O           -1.292646220152    -1.169637154729     0.066377813750
    H           -1.121659803722     0.812977584126     0.244360701376
    H           -0.603550200971    -0.078313710908     1.657950331771
    H           -1.000646116630    -1.960833693404     0.480148319469

  Mulliken Charges: (a.u.)
   Center  Symbol    Alpha    Beta     Spin     Total
       1     H     0.39412  0.39412  0.00000  0.21175
       2     O     4.19683  4.19683  0.00000 -0.39366
       3     C     2.96770  2.96770  0.00000  0.06460
       4     C     2.97552  2.97552  0.00000  0.04897
       5     H     0.47814  0.47814  0.00000  0.04372
       6     H     0.47361  0.47361  0.00000  0.05278
       7     O     4.19896  4.19896  0.00000 -0.39792
       8     H     0.44937  0.44937  0.00000  0.10127
       9     H     0.46981  0.46981  0.00000  0.06037
      10     H     0.39594  0.39594  0.00000  0.20812

   Total alpha = 17.00000, Total beta = 17.00000, Total charge =  0.00000
