  ==> Input File <==

--------------------------------------------------------------------------
set {
	reference rhf
	basis cc-pvtz
}

set_num_threads( 4 )
memory 2 gb

molecule MOL {
0 1

H	 -3.110137	 -0.339884	 0.045450
C	 -2.909181	 0.546953	 -0.551225
O	 -1.562008	 0.650230	 -0.870598
H	 -3.463738	 0.476932	 -1.475591
H	 -3.257567	 1.418475	 0.000101
C	 -0.718530	 0.758693	 0.228682
C	 0.718529	 0.758687	 -0.228709
H	 -0.917530	 1.685274	 0.767028
H	 -0.874713	 -0.069201	 0.916890
O	 1.401606	 -0.295166	 0.366636
H	 0.748705	 0.673477	 -1.312803
H	 1.176496	 1.708671	 0.046552
C	 2.714315	 -0.441627	 -0.061017
H	 2.765292	 -0.641548	 -1.128869
H	 3.305661	 0.447341	 0.150952
H	 3.143725	 -1.278506	 0.470147

	symmetry c1
}
set optking {
	frozen_dihedral = ("
		3 6 7 11
	")
}

ee = optimize('scf')
oeprop('DIPOLE', 'QUADRUPOLE', 'MULLIKEN_CHARGES')
f=open( 'psi4out.xyz', 'w' )
f.write( "16  " )
f.write( str(ee) + "\n" )
f.write( MOL.save_string_xyz() )
f.close()
--------------------------------------------------------------------------

    Molecular point group: c1
  Charge       = 0
  Multiplicity = 1
  Basis Set: CC-PVTZ
  Basis Set:
  @DF-RHF Final Energy:  -307.09354981763312
    Total Energy =                       -307.0935498176329475
    Molecular point group: c1
  Basis Set: CC-PVTZ
  Basis Set:
  Basis Set: CC-PVTZ
  Basis Set:
  @DF-RHF Final Energy:  -307.09409940714744
    Total Energy =                       -307.0940994071478372
  Basis Set: CC-PVTZ
  Basis Set:
  Basis Set: CC-PVTZ
  Basis Set:
  @DF-RHF Final Energy:  -307.09415832643128
    Total Energy =                       -307.0941583264313977
  Basis Set: CC-PVTZ
  Basis Set:
  Charge       = 0
  Multiplicity = 1
  Basis Set: CC-PVTZ
  Basis Set:

    Orbital Energies (a.u.)
    -----------------------

    Doubly Occupied:

       1A    -20.550844     2A    -20.550827     3A    -11.266609
       4A    -11.265980     5A    -11.263205     6A    -11.263203
       7A     -1.390639     8A     -1.378387     9A     -1.028626
      10A     -0.940151    11A     -0.886190    12A     -0.831585
      13A     -0.688376    14A     -0.679597    15A     -0.659197
      16A     -0.644718    17A     -0.629434    18A     -0.600230
      19A     -0.556978    20A     -0.529107    21A     -0.508975
      22A     -0.482970    23A     -0.467277    24A     -0.424467
      25A     -0.414190

  @DF-RHF Final Energy:  -307.09416295904077

   => Energetics <=

    Nuclear Repulsion Energy =            255.5695929375026481
    One-Electron Energy =                -925.5239771691818760
    Two-Electron Energy =                 362.8602212726383982
    DFT Exchange-Correlation Energy =       0.0000000000000000
    Empirical Dispersion Energy =           0.0000000000000000
    PCM Polarization Energy =               0.0000000000000000
    EFP Energy =                            0.0000000000000000
    Total Energy =                       -307.0941629590408297
    Molecular point group: c1
  Basis Set: CC-PVTZ
  Basis Set:

  -Total Gradient:
     Atom            X                  Y                   Z
    ------   -----------------  -----------------  -----------------
       1       -0.000005354823     0.000011531758     0.000003247792
       2       -0.000033796703    -0.000032875820    -0.000062717117
       3        0.000076584954    -0.000050298831     0.000140028240
       4       -0.000032314781     0.000007463886     0.000010737072
       5       -0.000000018510     0.000002011916     0.000002601113
       6       -0.000110411098     0.000144031097    -0.000178772957
       7        0.000068712785    -0.000250319936     0.000053815109
       8       -0.000001288244     0.000013151946     0.000031883902
       9        0.000032093135    -0.000006435500     0.000016745130
      10        0.000001868567     0.000091930781    -0.000009951219
      11       -0.000042326901     0.000130293351    -0.000029749669
      12       -0.000007024660    -0.000007493705     0.000004590842
      13        0.000006842986    -0.000069132269     0.000022383154
      14        0.000009791210     0.000008974202     0.000000959558
      15        0.000003007406     0.000001684643    -0.000000657185
      16        0.000033634676     0.000005482481    -0.000005143766

  **** Optimization is complete! (in 4 steps) ****
    Final optimized geometry and variables:
    Molecular point group: c1

    Geometry (in Angstrom), charge = 0, multiplicity = 1:

    H           -3.098392480744    -0.583978322756     0.294220700961
    C           -2.865617686596     0.261723418423    -0.348890747064
    O           -1.516168612161     0.295555891446    -0.675804870821
    H           -3.426516388213     0.165772669243    -1.267150573730
    H           -3.176465476831     1.173428316824     0.157227515434
    C           -0.665455985696     0.416183321302     0.422359449238
    C            0.781468950742     0.424460925269    -0.058141881444
    H           -0.897482659564     1.328761543601     0.967267715051
    H           -0.796783686139    -0.420241635533     1.101811987070
    O            1.468856535325    -0.638153022477     0.527273142402
    H            0.784742338349     0.333879664379    -1.139936738940
    H            1.269022662922     1.362205107339     0.199615405697
    C            2.800462656903    -0.734026307970     0.144335594243
    H            2.896501766726    -0.880931996623    -0.929066220923
    H            3.360041914549     0.157515613132     0.420042459643
    H            3.230652278409    -1.584923308754     0.652201044231

  Mulliken Charges: (a.u.)
   Center  Symbol    Alpha    Beta     Spin     Total
       1     H     0.47077  0.47077  0.00000  0.05847
       2     C     3.02897  3.02897  0.00000 -0.05794
       3     O     4.17351  4.17351  0.00000 -0.34701
       4     H     0.44653  0.44653  0.00000  0.10693
       5     H     0.47236  0.47236  0.00000  0.05528
       6     C     2.96778  2.96778  0.00000  0.06445
       7     C     2.96776  2.96776  0.00000  0.06449
       8     H     0.47515  0.47515  0.00000  0.04970
       9     H     0.46494  0.46494  0.00000  0.07012
      10     O     4.17350  4.17350  0.00000 -0.34701
      11     H     0.46492  0.46492  0.00000  0.07016
      12     H     0.47519  0.47519  0.00000  0.04962
      13     C     3.02897  3.02897  0.00000 -0.05795
      14     H     0.47076  0.47076  0.00000  0.05848
      15     H     0.47236  0.47236  0.00000  0.05528
      16     H     0.44653  0.44653  0.00000  0.10693

   Total alpha = 25.00000, Total beta = 25.00000, Total charge = -0.00000
