  ==> Input File <==

--------------------------------------------------------------------------
set {
	reference rhf
	basis cc-pvtz
}

set_num_threads( 4 )
memory 2 gb

molecule MOL {
0 1

H	 3.212971	 0.034114	 0.401242
N	 2.433987	 -0.362316	 -0.080024
C	 1.263552	 0.494993	 0.021953
H	 2.258083	 -1.255801	 0.329949
C	 -0.016533	 -0.325589	 -0.026925
H	 1.280915	 1.180773	 -0.818522
H	 1.263064	 1.106893	 0.925038
C	 -1.280353	 0.525521	 0.047747
H	 -0.016686	 -0.912532	 -0.939714
H	 -0.014099	 -1.037598	 0.796369
C	 -2.560681	 -0.301323	 -0.007747
H	 -1.279957	 1.241025	 -0.770189
H	 -1.270445	 1.110526	 0.963468
H	 -2.617064	 -0.872870	 -0.928010
H	 -3.439525	 0.331102	 0.043462
H	 -2.609427	 -1.002736	 0.818585

	symmetry c1
}
set optking {
	frozen_dihedral = ("
		1 2 3 6
	")
}

ee = optimize('scf')
oeprop('DIPOLE', 'QUADRUPOLE', 'MULLIKEN_CHARGES')
f=open( 'psi4out.xyz', 'w' )
f.write( "16  " )
f.write( str(ee) + "\n" )
f.write( MOL.save_string_xyz() )
f.close()
--------------------------------------------------------------------------

    Molecular point group: c1
  Charge       = 0
  Multiplicity = 1
  Basis Set: CC-PVTZ
  Basis Set:
  @DF-RHF Final Energy:  -212.39812500850303
    Total Energy =                       -212.3981250085030865
    Molecular point group: c1
  Basis Set: CC-PVTZ
  Basis Set:
  Basis Set: CC-PVTZ
  Basis Set:
  @DF-RHF Final Energy:  -212.39830522687777
    Total Energy =                       -212.3983052268778238
  Basis Set: CC-PVTZ
  Basis Set:
  Basis Set: CC-PVTZ
  Basis Set:
  @DF-RHF Final Energy:  -212.39832815585439
    Total Energy =                       -212.3983281558546423
  Basis Set: CC-PVTZ
  Basis Set:
  Basis Set: CC-PVTZ
  Basis Set:
  @DF-RHF Final Energy:  -212.39832932220466
    Total Energy =                       -212.3983293222046314
  Basis Set: CC-PVTZ
  Basis Set:
  Charge       = 0
  Multiplicity = 1
  Basis Set: CC-PVTZ
  Basis Set:

    Orbital Energies (a.u.)
    -----------------------

    Doubly Occupied:

       1A    -15.525808     2A    -11.237819     3A    -11.215203
       4A    -11.212462     5A    -11.207732     6A     -1.177691
       7A     -1.062876     8A     -0.960981     9A     -0.845879
      10A     -0.796425    11A     -0.653144    12A     -0.650162
      13A     -0.601555    14A     -0.577873    15A     -0.572156
      16A     -0.521108    17A     -0.508950    18A     -0.472071
      19A     -0.468484    20A     -0.461441    21A     -0.384742

  @DF-RHF Final Energy:  -212.39832949405098

   => Energetics <=

    Nuclear Repulsion Energy =            186.6900615013418587
    One-Electron Energy =                -655.9476559607173840
    Two-Electron Energy =                 256.8592649653243711
    DFT Exchange-Correlation Energy =       0.0000000000000000
    Empirical Dispersion Energy =           0.0000000000000000
    PCM Polarization Energy =               0.0000000000000000
    EFP Energy =                            0.0000000000000000
    Total Energy =                       -212.3983294940511541
    Molecular point group: c1
  Basis Set: CC-PVTZ
  Basis Set:

  -Total Gradient:
     Atom            X                  Y                   Z
    ------   -----------------  -----------------  -----------------
       1       -0.000792272266    -0.001612982841     0.002739194514
       2        0.000637800781     0.001572656549    -0.003806557317
       3        0.001792202213     0.001968176302     0.002670865740
       4        0.000007632066    -0.000032237825     0.000013114384
       5       -0.000007414452    -0.000001850413     0.000001884473
       6       -0.001604758818    -0.001915158792    -0.001604108838
       7       -0.000018180798     0.000007725796    -0.000007160040
       8       -0.000010334767     0.000004429159    -0.000022976258
       9        0.000004149973     0.000010373713     0.000004001490
      10        0.000008322603    -0.000002816710    -0.000004481640
      11       -0.000009024267     0.000001930492     0.000019498093
      12        0.000004403546     0.000003214546    -0.000000397691
      13       -0.000005287159    -0.000000998614    -0.000001032323
      14        0.000001543188     0.000004585750    -0.000001880208
      15       -0.000005949355    -0.000002976739     0.000003387000
      16       -0.000002832487    -0.000004070374    -0.000003351377

  **** Optimization is complete! (in 5 steps) ****
    Final optimized geometry and variables:
    Molecular point group: c1

    Geometry (in Angstrom), charge = 0, multiplicity = 1:

    H            3.232632598391     0.034093335549     0.359263514389
    N            2.441441921111    -0.353970159873    -0.108981943229
    C            1.267720443822     0.499407041031     0.043874128374
    H            2.280003635472    -1.243015724090     0.316889194372
    C           -0.013801389524    -0.320630549202    -0.011869406344
    H            1.249344287640     1.208689439156    -0.777338905116
    H            1.285605268592     1.071371454624     0.969794117976
    C           -1.277648017975     0.532113621369     0.036531193244
    H           -0.007267291622    -0.913716699061    -0.922123323534
    H           -0.023856994887    -1.025031368014     0.817875820598
    C           -2.557790817571    -0.295412785420    -0.011762965145
    H           -1.270386163056     1.231381659770    -0.794671001022
    H           -1.272929124480     1.133763502626     0.941350031517
    H           -2.609120480010    -0.882949211370    -0.922247651537
    H           -3.436330378626     0.338449655245     0.022789360175
    H           -2.612230790241    -0.981868022450     0.826666343295

  Mulliken Charges: (a.u.)
   Center  Symbol    Alpha    Beta     Spin     Total
       1     H     0.43209  0.43209  0.00000  0.13581
       2     N     3.68668  3.68668  0.00000 -0.37337
       3     C     3.01848  3.01848  0.00000 -0.03697
       4     H     0.43268  0.43268  0.00000  0.13465
       5     C     3.08584  3.08584  0.00000 -0.17169
       6     H     0.46149  0.46149  0.00000  0.07702
       7     H     0.46790  0.46790  0.00000  0.06420
       8     C     3.08849  3.08849  0.00000 -0.17697
       9     H     0.44924  0.44924  0.00000  0.10151
      10     H     0.46097  0.46097  0.00000  0.07807
      11     C     3.14908  3.14908  0.00000 -0.29816
      12     H     0.45324  0.45324  0.00000  0.09351
      13     H     0.45566  0.45566  0.00000  0.08869
      14     H     0.45425  0.45425  0.00000  0.09151
      15     H     0.44843  0.44843  0.00000  0.10314
      16     H     0.45548  0.45548  0.00000  0.08903

   Total alpha = 21.00000, Total beta = 21.00000, Total charge =  0.00000
