  ==> Input File <==

--------------------------------------------------------------------------
set {
	reference rhf
	basis 6-31G*
}

set_num_threads( 1 )
memory 2 gb

molecule MOL {
0 1

H	 -0.483287	 6.967198	 2.070064
C	 -1.428272	 6.436723	 2.005852
C	 -1.259531	 5.090966	 1.301835
H	 -1.801901	 6.303094	 3.016736
H	 -2.130045	 7.074069	 1.474717
C	 -2.575983	 4.319055	 1.188164
H	 -0.534461	 4.491861	 1.843083
H	 -0.851606	 5.255054	 0.305660
C	 -2.441801	 2.975302	 0.471512
H	 -2.985712	 4.151062	 2.177884
H	 -3.297579	 4.925357	 0.645266
C	 -1.701888	 1.911048	 1.268465
H	 -3.430662	 2.571780	 0.259162
H	 -1.960250	 3.097286	 -0.496168
C	 -1.181045	 0.701995	 0.511084
O	 -1.548630	 2.007054	 2.449016
C	 -2.285934	 -0.139295	 -0.145128
H	 -0.623278	 0.100860	 1.219072
H	 -0.487534	 1.045637	 -0.254186
C	 -3.651768	 0.085446	 0.506485
H	 -2.346596	 0.110469	 -1.202272
H	 -2.034737	 -1.195320	 -0.088721
C	 -4.759797	 -0.746382	 -0.137905
H	 -3.908762	 1.140117	 0.445781
H	 -3.588286	 -0.154158	 1.565709
H	 -4.868882	 -0.505166	 -1.191300
H	 -4.548009	 -1.809175	 -0.062213
H	 -5.715422	 -0.564821	 0.343442

	symmetry c1
}
set optking {
	frozen_dihedral = ("
		10 6 3 2,
		16 12 15 17
	")
}

ee = energy('scf')
oeprop('DIPOLE', 'QUADRUPOLE', 'MULLIKEN_CHARGES')
f=open( 'psi4out.xyz', 'w' )
f.write( "28  " )
f.write( str(ee) + "\n" )
f.write( MOL.save_string_xyz() )
f.close()
--------------------------------------------------------------------------

    Molecular point group: c1

    Geometry (in Angstrom), charge = 0, multiplicity = 1:

       Center              X                  Y                   Z               Mass
    ------------   -----------------  -----------------  -----------------  -----------------
           H          1.811393999067     4.694281862250     1.120392063455     1.007825032070
           C          0.866408999067     4.163806862250     1.056180063455    12.000000000000
           C          1.035149999067     2.818049862250     0.352163063455    12.000000000000
           H          0.492779999067     4.030177862250     2.067064063455     1.007825032070
           H          0.164635999067     4.801152862250     0.525045063455     1.007825032070
           C         -0.281302000933     2.046138862250     0.238492063455    12.000000000000
           H          1.760219999067     2.218944862250     0.893411063455     1.007825032070
           H          1.443074999067     2.982137862250    -0.644011936545     1.007825032070
           C         -0.147120000933     0.702385862250    -0.478159936545    12.000000000000
           H         -0.691031000933     1.878145862250     1.228212063455     1.007825032070
           H         -1.002898000933     2.652440862250    -0.304405936545     1.007825032070
           C          0.592792999067    -0.361868137750     0.318793063455    12.000000000000
           H         -1.135981000933     0.298863862250    -0.690509936545     1.007825032070
           H          0.334430999067     0.824369862250    -1.445839936545     1.007825032070
           C          1.113635999067    -1.570921137750    -0.438587936545    12.000000000000
           O          0.746050999067    -0.265862137750     1.499344063455    15.994914619560
           C          0.008746999067    -2.412211137750    -1.094799936545    12.000000000000
           H          1.671402999067    -2.172056137750     0.269400063455     1.007825032070
           H          1.807146999067    -1.227279137750    -1.203857936545     1.007825032070
           C         -1.357087000933    -2.187470137750    -0.443186936545    12.000000000000
           H         -0.051915000933    -2.162447137750    -2.151943936545     1.007825032070
           H          0.259943999067    -3.468236137750    -1.038392936545     1.007825032070
           C         -2.465116000933    -3.019298137750    -1.087576936545    12.000000000000
           H         -1.614081000933    -1.132799137750    -0.503890936545     1.007825032070
           H         -1.293605000933    -2.427074137750     0.616037063455     1.007825032070
           H         -2.574201000933    -2.778082137750    -2.140971936545     1.007825032070
           H         -2.253328000933    -4.082091137750    -1.011884936545     1.007825032070
           H         -3.420741000933    -2.837737137750    -0.606229936545     1.007825032070

  Charge       = 0
  Multiplicity = 1
  Basis Set: 6-31G*
  Basis Set:

    Orbital Energies (a.u.)
    -----------------------

    Doubly Occupied:

       1A    -20.549464     2A    -11.322505     3A    -11.230894
       4A    -11.227902     5A    -11.227684     6A    -11.221603
       7A    -11.216398     8A    -11.215061     9A    -11.212167
      10A    -11.205621    11A     -1.394446    12A     -1.099620
      13A     -1.075848    14A     -1.017762    15A     -0.993479
      16A     -0.905342    17A     -0.879599    18A     -0.815935
      19A     -0.794786    20A     -0.720910    21A     -0.662585
      22A     -0.657924    23A     -0.636624    24A     -0.621454
      25A     -0.610123    26A     -0.582426    27A     -0.577841
      28A     -0.575528    29A     -0.554508    30A     -0.533269
      31A     -0.514705    32A     -0.505736    33A     -0.503940
      34A     -0.490116    35A     -0.478399    36A     -0.468729
      37A     -0.467346    38A     -0.462821    39A     -0.444434
      40A     -0.394222

  @DF-RHF Final Energy:  -426.14956019787087

   => Energetics <=

    Nuclear Repulsion Energy =            550.0640423292735477
    One-Electron Energy =               -1668.2876165482869055
    Two-Electron Energy =                 692.0740140211437392
    DFT Exchange-Correlation Energy =       0.0000000000000000
    Empirical Dispersion Energy =           0.0000000000000000
    PCM Polarization Energy =               0.0000000000000000
    EFP Energy =                            0.0000000000000000
    Total Energy =                       -426.1495601978695049

  Mulliken Charges: (a.u.)
   Center  Symbol    Alpha    Beta     Spin     Total
       1     H     0.41940  0.41940  0.00000  0.16119
       2     C     3.24013  3.24013  0.00000 -0.48025
       3     C     3.15624  3.15624  0.00000 -0.31247
       4     H     0.41842  0.41842  0.00000  0.16316
       5     H     0.42370  0.42370  0.00000  0.15261
       6     C     3.14831  3.14831  0.00000 -0.29662
       7     H     0.41067  0.41067  0.00000  0.17866
       8     H     0.42764  0.42764  0.00000  0.14472
       9     C     3.21519  3.21519  0.00000 -0.43038
      10     H     0.40678  0.40678  0.00000  0.18645
      11     H     0.42223  0.42223  0.00000  0.15554
      12     C     2.73753  2.73753  0.00000  0.52494
      13     H     0.39498  0.39498  0.00000  0.21005
      14     H     0.41308  0.41308  0.00000  0.17383
      15     C     3.20056  3.20056  0.00000 -0.40111
      16     O     4.26574  4.26574  0.00000 -0.53149
      17     C     3.15847  3.15847  0.00000 -0.31694
      18     H     0.39897  0.39897  0.00000  0.20205
      19     H     0.41016  0.41016  0.00000  0.17968
      20     C     3.16610  3.16610  0.00000 -0.33220
      21     H     0.41940  0.41940  0.00000  0.16120
      22     H     0.41117  0.41117  0.00000  0.17765
      23     C     3.23719  3.23719  0.00000 -0.47439
      24     H     0.42785  0.42785  0.00000  0.14430
      25     H     0.41069  0.41069  0.00000  0.17862
      26     H     0.42219  0.42219  0.00000  0.15562
      27     H     0.42014  0.42014  0.00000  0.15971
      28     H     0.41706  0.41706  0.00000  0.16589

   Total alpha = 40.00000, Total beta = 40.00000, Total charge =  0.00000
