  ==> Input File <==

--------------------------------------------------------------------------
set {
	reference rhf
	basis cc-pvtz
}

set_num_threads( 4 )
memory 2 gb

molecule MOL {
0 1

H	 1.428950	 -0.398733	 -3.027909
C	 1.428732	 -0.094460	 -1.986658
C	 0.081159	 -0.403421	 -1.348619
H	 1.631498	 0.968324	 -1.938739
H	 2.243680	 -0.611168	 -1.495124
N	 0.000297	 0.000045	 0.046090
H	 -0.680756	 0.127545	 -1.902403
H	 -0.148463	 -1.466604	 -1.461963
C	 -1.359159	 0.315706	 0.454404
C	 0.639923	 -0.954024	 0.937805
C	 -2.416729	 -0.286720	 -0.460525
H	 -1.478729	 1.390261	 0.442008
H	 -1.539692	 0.003361	 1.486761
C	 1.170058	 -0.319513	 2.216395
H	 1.473829	 -1.403198	 0.416362
H	 -0.039616	 -1.774524	 1.184623
H	 -2.285276	 0.073129	 -1.473515
H	 -2.371743	 -1.368476	 -0.483209
H	 -3.408658	 -0.007405	 -0.121593
H	 1.896519	 0.448355	 1.980721
H	 0.383529	 0.136007	 2.805165
H	 1.650065	 -1.069569	 2.835928

	symmetry c1
}
set optking {
	frozen_dihedral = ("
		3 6 9 11
	")
}

ee = optimize('scf')
oeprop('DIPOLE', 'QUADRUPOLE', 'MULLIKEN_CHARGES')
f=open( 'psi4out.xyz', 'w' )
f.write( "22  " )
f.write( str(ee) + "\n" )
f.write( MOL.save_string_xyz() )
f.close()
--------------------------------------------------------------------------

    Molecular point group: c1
  Charge       = 0
  Multiplicity = 1
  Basis Set: CC-PVTZ
  Basis Set:
  @DF-RHF Final Energy:  -290.45952731245802
    Total Energy =                       -290.4595273124579080
    Molecular point group: c1
  Basis Set: CC-PVTZ
  Basis Set:
  Basis Set: CC-PVTZ
  Basis Set:
  @DF-RHF Final Energy:  -290.45599085534366
    Total Energy =                       -290.4559908553433161
  Basis Set: CC-PVTZ
  Basis Set:
  Basis Set: CC-PVTZ
  Basis Set:
  @DF-RHF Final Energy:  -290.46560672602277
    Total Energy =                       -290.4656067260224859
  Basis Set: CC-PVTZ
  Basis Set:
  Basis Set: CC-PVTZ
  Basis Set:
  @DF-RHF Final Energy:  -290.46725875520650
    Total Energy =                       -290.4672587552065579
  Basis Set: CC-PVTZ
  Basis Set:
  @DF-RHF Final Energy:  -290.46743050025287
    Total Energy =                       -290.4674305002527603
  Basis Set: CC-PVTZ
  Basis Set:
  @DF-RHF Final Energy:  -290.46753187759174
    Total Energy =                       -290.4675318775917390
  Basis Set: CC-PVTZ
  Basis Set:
  Basis Set: CC-PVTZ
  Basis Set:
  @DF-RHF Final Energy:  -290.46753373984916
    Total Energy =                       -290.4675337398490456
  Basis Set: CC-PVTZ
  Basis Set:
  Basis Set: CC-PVTZ
  Basis Set:
  @DF-RHF Final Energy:  -290.46755053318708
    Total Energy =                       -290.4675505331866816
  Basis Set: CC-PVTZ
  Basis Set:
  Charge       = 0
  Multiplicity = 1
  Basis Set: CC-PVTZ
  Basis Set:

    Orbital Energies (a.u.)
    -----------------------

    Doubly Occupied:

       1A    -15.529522     2A    -11.239055     3A    -11.237642
       4A    -11.236926     5A    -11.208602     6A    -11.202223
       7A    -11.201898     8A     -1.219496     9A     -1.023780
      10A     -1.022734    11A     -0.956731    12A     -0.857679
      13A     -0.845071    14A     -0.759194    15A     -0.657401
      16A     -0.643045    17A     -0.618215    18A     -0.597912
      19A     -0.581199    20A     -0.545801    21A     -0.540949
      22A     -0.516726    23A     -0.512438    24A     -0.504074
      25A     -0.493517    26A     -0.491182    27A     -0.466152
      28A     -0.456917    29A     -0.334907

  @DF-RHF Final Energy:  -290.46755067169613

   => Energetics <=

    Nuclear Repulsion Energy =            337.8543646704422372
    One-Electron Energy =               -1061.6418420446248092
    Two-Electron Energy =                 433.3199267024865549
    DFT Exchange-Correlation Energy =       0.0000000000000000
    Empirical Dispersion Energy =           0.0000000000000000
    PCM Polarization Energy =               0.0000000000000000
    EFP Energy =                            0.0000000000000000
    Total Energy =                       -290.4675506716960172
    Molecular point group: c1
  Basis Set: CC-PVTZ
  Basis Set:

  -Total Gradient:
     Atom            X                  Y                   Z
    ------   -----------------  -----------------  -----------------
       1        0.000002383902     0.000000594166    -0.000003290261
       2       -0.000003096093     0.000001291696    -0.000008082261
       3       -0.000577510069    -0.003648900848     0.000939547698
       4        0.000000845541    -0.000002240308     0.000000094827
       5       -0.000004124271     0.000002325617    -0.000005672954
       6        0.000889466545     0.006804723735    -0.002375186860
       7        0.000004831694    -0.000002705153    -0.000008308883
       8       -0.000002599455    -0.000001551649     0.000004138351
       9       -0.000385475627    -0.006216927468     0.003442850556
      10       -0.000018816137     0.000006096532     0.000018504016
      11        0.000090042654     0.003069398299    -0.002020242023
      12        0.000012589806    -0.000006246012    -0.000013105505
      13       -0.000006665178    -0.000003445861     0.000008689876
      14       -0.000002480316    -0.000005150872     0.000008336032
      15       -0.000011653337     0.000012259476    -0.000001050655
      16       -0.000001609004    -0.000001343050     0.000001394857
      17        0.000004321098    -0.000001423255     0.000007029214
      18        0.000002921287    -0.000000561941    -0.000003776974
      19        0.000001709545    -0.000000772507     0.000002342952
      20       -0.000002206839    -0.000004959283    -0.000004481592
      21        0.000005001141    -0.000000418732     0.000002446285
      22        0.000002123114    -0.000000042582     0.000007823304

  **** Optimization is complete! (in 9 steps) ****
    Final optimized geometry and variables:
    Molecular point group: c1

    Geometry (in Angstrom), charge = 0, multiplicity = 1:

    H            1.646352937624    -0.114257737568    -2.964591216844
    C            1.595416501552     0.145532118611    -1.912371195119
    C            0.209881077529    -0.177091584243    -1.363526346394
    H            1.800966357748     1.203961694032    -1.809263749345
    H            2.382731488349    -0.398044528149    -1.405978026002
    N            0.049525761223     0.210028535917     0.027021933336
    H           -0.502094558132     0.375305068397    -1.958245759640
    H           -0.007930549014    -1.235806151974    -1.522881371344
    C           -1.310913791259     0.536072440522     0.468531371540
    C            0.725083856785    -0.693855456024     0.944647434973
    C           -2.482119765827     0.017693649848    -0.367220659500
    H           -1.409745549513     1.616288223384     0.536449157564
    H           -1.434957778098     0.164415662972     1.476824076730
    C            1.221267637813    -0.001601110606     2.207337161781
    H            1.579081969757    -1.123846643906     0.441266337683
    H            0.080725525129    -1.534459314987     1.216085781398
    H           -2.538756622952     0.485304981264    -1.340375481104
    H           -2.440036586441    -1.056407847870    -0.509475413897
    H           -3.405868313954     0.245105769305     0.153260287963
    H            1.919047448209     0.786890071484     1.952819367017
    H            0.411035371081     0.442432595311     2.772824266259
    H            1.724078540553    -0.712234508504     2.854950449689

  Mulliken Charges: (a.u.)
   Center  Symbol    Alpha    Beta     Spin     Total
       1     H     0.45315  0.45315  0.00000  0.09370
       2     C     3.14226  3.14226  0.00000 -0.28452
       3     C     3.04147  3.04147  0.00000 -0.08293
       4     H     0.45207  0.45207  0.00000  0.09585
       5     H     0.45603  0.45603  0.00000  0.08794
       6     N     3.62369  3.62369  0.00000 -0.24738
       7     H     0.45179  0.45179  0.00000  0.09641
       8     H     0.46434  0.46434  0.00000  0.07133
       9     C     3.04137  3.04137  0.00000 -0.08273
      10     C     3.04550  3.04550  0.00000 -0.09100
      11     C     3.15803  3.15803  0.00000 -0.31607
      12     H     0.45029  0.45029  0.00000  0.09942
      13     H     0.45837  0.45837  0.00000  0.08326
      14     C     3.13963  3.13963  0.00000 -0.27927
      15     H     0.44858  0.44858  0.00000  0.10284
      16     H     0.46340  0.46340  0.00000  0.07319
      17     H     0.45055  0.45055  0.00000  0.09890
      18     H     0.45196  0.45196  0.00000  0.09609
      19     H     0.44610  0.44610  0.00000  0.10780
      20     H     0.45210  0.45210  0.00000  0.09579
      21     H     0.45525  0.45525  0.00000  0.08951
      22     H     0.45407  0.45407  0.00000  0.09186

   Total alpha = 29.00000, Total beta = 29.00000, Total charge =  0.00000
