  ==> Input File <==

--------------------------------------------------------------------------
set {
	reference rhf
	basis 6-31G*
}

set_num_threads( 1 )
memory 2 gb

molecule MOL {
0 1

H	 -3.107568	 0.273416	 0.099035
O	 -2.347518	 -0.290803	 0.079804
C	 -1.184022	 0.487508	 -0.006784
C	 0.062599	 -0.378592	 0.031606
H	 -1.176523	 1.099369	 -0.904519
H	 -1.187323	 1.153111	 0.844927
O	 1.171513	 0.459272	 -0.058250
H	 0.050699	 -1.089204	 -0.797170
H	 0.078739	 -0.954914	 0.954740
C	 2.397842	 -0.198080	 -0.002151
H	 2.508049	 -0.905315	 -0.822092
H	 3.173794	 0.550865	 -0.078850
H	 2.517602	 -0.735921	 0.936026

	symmetry c1
}
set optking {
	frozen_dihedral = ("
		8 4 3 5,
		10 7 4 8,
		4 7 10 13
	")
}

ee = energy('scf')
oeprop('DIPOLE', 'QUADRUPOLE', 'MULLIKEN_CHARGES')
f=open( 'psi4out.xyz', 'w' )
f.write( "13  " )
f.write( str(ee) + "\n" )
f.write( MOL.save_string_xyz() )
f.close()
--------------------------------------------------------------------------

    Molecular point group: c1

    Geometry (in Angstrom), charge = 0, multiplicity = 1:

       Center              X                  Y                   Z               Mass
    ------------   -----------------  -----------------  -----------------  -----------------
           H         -3.099504578691     0.260118278704     0.087849038397     1.007825032070
           O         -2.339454578691    -0.304100721296     0.068618038397    15.994914619560
           C         -1.175958578691     0.474210278704    -0.017969961603    12.000000000000
           C          0.070662421309    -0.391889721296     0.020420038397    12.000000000000
           H         -1.168459578691     1.086071278704    -0.915704961603     1.007825032070
           H         -1.179259578691     1.139813278704     0.833741038397     1.007825032070
           O          1.179576421309     0.445974278704    -0.069435961603    15.994914619560
           H          0.058762421309    -1.102501721296    -0.808355961603     1.007825032070
           H          0.086802421309    -0.968211721296     0.943554038397     1.007825032070
           C          2.405905421309    -0.211377721296    -0.013336961603    12.000000000000
           H          2.516112421309    -0.918612721296    -0.833277961603     1.007825032070
           H          3.181857421309     0.537567278704    -0.090035961603     1.007825032070
           H          2.525665421309    -0.749218721296     0.924840038397     1.007825032070

  Charge       = 0
  Multiplicity = 1
  Basis Set: 6-31G*
  Basis Set:

    Orbital Energies (a.u.)
    -----------------------

    Doubly Occupied:

       1A    -20.560751     2A    -20.556579     3A    -11.270114
       4A    -11.268640     5A    -11.268426     6A     -1.386816
       7A     -1.362772     8A     -1.018074     9A     -0.911847
      10A     -0.832236    11A     -0.705748    12A     -0.684363
      13A     -0.643842    14A     -0.635153    15A     -0.621828
      16A     -0.551883    17A     -0.539780    18A     -0.496665
      19A     -0.468945    20A     -0.438414    21A     -0.419023

  @DF-RHF Final Energy:  -267.94942516570984

   => Energetics <=

    Nuclear Repulsion Energy =            189.8292227741227407
    One-Electron Energy =                -742.2734642506578666
    Two-Electron Energy =                 284.4948163108257972
    DFT Exchange-Correlation Energy =       0.0000000000000000
    Empirical Dispersion Energy =           0.0000000000000000
    PCM Polarization Energy =               0.0000000000000000
    EFP Energy =                            0.0000000000000000
    Total Energy =                       -267.9494251657093287

  Mulliken Charges: (a.u.)
   Center  Symbol    Alpha    Beta     Spin     Total
       1     H     0.27780  0.27780  0.00000  0.44440
       2     O     4.37571  4.37571  0.00000 -0.75142
       3     C     2.99950  2.99950  0.00000  0.00100
       4     C     2.99427  2.99427  0.00000  0.01145
       5     H     0.42368  0.42368  0.00000  0.15263
       6     H     0.42514  0.42514  0.00000  0.14971
       7     O     4.30818  4.30818  0.00000 -0.61636
       8     H     0.42459  0.42459  0.00000  0.15081
       9     H     0.42426  0.42426  0.00000  0.15149
      10     C     3.07971  3.07971  0.00000 -0.15942
      11     H     0.42806  0.42806  0.00000  0.14387
      12     H     0.41109  0.41109  0.00000  0.17781
      13     H     0.42799  0.42799  0.00000  0.14402

   Total alpha = 21.00000, Total beta = 21.00000, Total charge = -0.00000
