  ==> Input File <==

--------------------------------------------------------------------------
set {
	reference rhf
	basis 6-31G*
}

set_num_threads( 4 )
memory 2 gb

molecule MOL {
0 1

H	 -3.227593	 -1.104104	 -0.144060
O	 -2.401479	 -0.758181	 -0.450080
C	 -2.026376	 0.340750	 0.341611
C	 -0.673256	 0.843270	 -0.132153
H	 -2.763487	 1.137394	 0.258173
H	 -1.969987	 0.054202	 1.391070
C	 0.486613	 -0.083066	 0.235839
H	 -0.715586	 0.970948	 -1.210718
H	 -0.508072	 1.829858	 0.297090
C	 1.840406	 0.433480	 -0.254303
H	 0.300215	 -1.068318	 -0.178947
H	 0.519509	 -0.203625	 1.318070
C	 3.000220	 -0.489290	 0.118523
H	 1.809207	 0.553576	 -1.335192
H	 2.021860	 1.424500	 0.157276
H	 2.864959	 -1.479103	 -0.307933
H	 3.946603	 -0.099227	 -0.243630
H	 3.080049	 -0.602997	 1.196117

	symmetry c1
}
set optking {
	frozen_dihedral = ("
		2 3 4 8
	")
}

ee = optimize('scf')
oeprop('DIPOLE', 'QUADRUPOLE', 'MULLIKEN_CHARGES')
f=open( 'psi4out.xyz', 'w' )
f.write( "18  " )
f.write( str(ee) + "\n" )
f.write( MOL.save_string_xyz() )
f.close()
--------------------------------------------------------------------------

    Molecular point group: c1
  Charge       = 0
  Multiplicity = 1
  Basis Set: 6-31G*
  Basis Set:
  @DF-RHF Final Energy:  -271.17955996948649
    Total Energy =                       -271.1795599694865473
    Molecular point group: c1
  Basis Set: 6-31G*
  Basis Set:
  Basis Set: 6-31G*
  Basis Set:
  @DF-RHF Final Energy:  -271.17961492976985
    Total Energy =                       -271.1796149297696843
  Basis Set: 6-31G*
  Basis Set:
  Basis Set: 6-31G*
  Basis Set:
  @DF-RHF Final Energy:  -271.17963303016074
    Total Energy =                       -271.1796330301606304
  Basis Set: 6-31G*
  Basis Set:
  Basis Set: 6-31G*
  Basis Set:
  @DF-RHF Final Energy:  -271.17963774073507
    Total Energy =                       -271.1796377407350747
  Basis Set: 6-31G*
  Basis Set:
  Charge       = 0
  Multiplicity = 1
  Basis Set: 6-31G*
  Basis Set:

    Orbital Energies (a.u.)
    -----------------------

    Doubly Occupied:

       1A    -20.552962     2A    -11.267885     3A    -11.211713
       4A    -11.211100     5A    -11.207296     6A    -11.204928
       7A     -1.359484     8A     -1.075168     9A     -1.008769
      10A     -0.912876    11A     -0.817944    12A     -0.784536
      13A     -0.705608    14A     -0.638296    15A     -0.628396
      16A     -0.578792    17A     -0.570404    18A     -0.559590
      19A     -0.522931    20A     -0.499527    21A     -0.488376
      22A     -0.467897    23A     -0.459343    24A     -0.449640
      25A     -0.427363

  @DF-RHF Final Energy:  -271.17963842497988

   => Energetics <=

    Nuclear Repulsion Energy =            248.7401844188300402
    One-Electron Energy =                -860.6180009306566490
    Two-Electron Energy =                 340.6981780868468377
    DFT Exchange-Correlation Energy =       0.0000000000000000
    Empirical Dispersion Energy =           0.0000000000000000
    PCM Polarization Energy =               0.0000000000000000
    EFP Energy =                            0.0000000000000000
    Total Energy =                       -271.1796384249797711
    Molecular point group: c1
  Basis Set: 6-31G*
  Basis Set:

  -Total Gradient:
     Atom            X                  Y                   Z
    ------   -----------------  -----------------  -----------------
       1       -0.000004089937    -0.000010897942    -0.000013865717
       2       -0.000733083394     0.000961516878    -0.001010616649
       3        0.001076352397    -0.001636729191     0.001284870567
       4       -0.001021199117     0.002623888066    -0.000079854525
       5        0.000004816841     0.000034471747     0.000038919399
       6       -0.000000668472    -0.000031509778    -0.000017526934
       7        0.000027974687    -0.000048622175     0.000058227050
       8        0.000679019627    -0.001894033518    -0.000253534380
       9       -0.000041288453    -0.000038742941    -0.000008328745
      10       -0.000009185802    -0.000004430520    -0.000031219396
      11       -0.000010732581     0.000047172586     0.000025264393
      12        0.000017976531    -0.000023308432     0.000014280828
      13       -0.000006467919     0.000016508769     0.000024489413
      14        0.000011876374    -0.000003589964    -0.000019757814
      15        0.000011016685     0.000000741235    -0.000015467427
      16       -0.000000255841     0.000010403596    -0.000008750842
      17        0.000001924943     0.000010074632     0.000010217522
      18       -0.000003986568    -0.000012913047     0.000002653259

  **** Optimization is complete! (in 5 steps) ****
    Final optimized geometry and variables:
    Molecular point group: c1

    Geometry (in Angstrom), charge = 0, multiplicity = 1:

    H           -3.170740555036    -1.159291070069    -0.135395024833
    O           -2.357362339810    -0.782686244973    -0.439466464080
    C           -2.014855537119     0.318400039236     0.364762918271
    C           -0.660052921039     0.839292087625    -0.086174511308
    H           -2.763260374843     1.102601992780     0.264671776958
    H           -1.977844446640     0.032651147961     1.415005500934
    C            0.497663081841    -0.093713852599     0.275357457748
    H           -0.694885122109     0.966464134974    -1.164676162433
    H           -0.496849067349     1.820491943972     0.354176982623
    C            1.850503856185     0.406494462325    -0.233668545361
    H            0.297432817307    -1.080055775008    -0.132159909544
    H            0.542598655506    -0.208235840771     1.357828558950
    C            3.007072950713    -0.520582366643     0.138436911552
    H            1.809517974808     0.514803945043    -1.315367733708
    H            2.043044337264     1.400704719606     0.165117296214
    H            2.861108532480    -1.513764449009    -0.276613445034
    H            3.952831056373    -0.140993204903    -0.236146798248
    H            3.095850061270    -0.623760758655     1.216378893913

  Mulliken Charges: (a.u.)
   Center  Symbol    Alpha    Beta     Spin     Total
       1     H     0.28070  0.28070  0.00000  0.43860
       2     O     4.36997  4.36997  0.00000 -0.73995
       3     C     2.99774  2.99774  0.00000  0.00451
       4     C     3.15984  3.15984  0.00000 -0.31969
       5     H     0.42924  0.42924  0.00000  0.14153
       6     H     0.43242  0.43242  0.00000  0.13516
       7     C     3.15421  3.15421  0.00000 -0.30841
       8     H     0.41314  0.41314  0.00000  0.17371
       9     H     0.42364  0.42364  0.00000  0.15272
      10     C     3.15171  3.15171  0.00000 -0.30342
      11     H     0.40966  0.40966  0.00000  0.18068
      12     H     0.42768  0.42768  0.00000  0.14463
      13     C     3.23898  3.23898  0.00000 -0.47796
      14     H     0.42204  0.42204  0.00000  0.15591
      15     H     0.42516  0.42516  0.00000  0.14969
      16     H     0.42093  0.42093  0.00000  0.15815
      17     H     0.42019  0.42019  0.00000  0.15962
      18     H     0.42274  0.42274  0.00000  0.15451

   Total alpha = 25.00000, Total beta = 25.00000, Total charge =  0.00000
