                              Psi4 1.0.54 Driver

  ==> Input File <==

--------------------------------------------------------------------------
set {
	reference rhf
	basis cc-pvtz
}

set_num_threads( 4 )
memory 2 gb

molecule MOL {
0 1

H	 -3.436473	 1.252944	 -1.023892
O	 -3.458596	 0.315260	 -0.960865
C	 -3.176635	 -0.080824	 0.355601
C	 -1.763371	 0.265266	 0.799691
H	 -3.321825	 -1.153438	 0.379502
H	 -3.895468	 0.357385	 1.043382
C	 -0.673390	 -0.426948	 -0.013392
H	 -1.631049	 1.344913	 0.747560
H	 -1.664587	 -0.001624	 1.849167
C	 0.737842	 -0.043159	 0.423759
H	 -0.806103	 -0.190518	 -1.063345
H	 -0.797221	 -1.503753	 0.074146
C	 1.824000	 -0.743224	 -0.390623
H	 0.850588	 1.033777	 0.343840
H	 0.868587	 -0.286314	 1.476203
C	 2.660231	 0.181067	 -1.277332
H	 1.368383	 -1.514404	 -1.007505
H	 2.491604	 -1.259665	 0.293639
C	 1.890564	 0.835780	 -2.421932
H	 3.480420	 -0.394593	 -1.695281
H	 3.115594	 0.952656	 -0.661935
H	 1.418893	 0.087942	 -3.051489
H	 2.555525	 1.420550	 -3.047323
H	 1.115246	 1.501066	 -2.061543

	symmetry c1
}
set optking {
	frozen_dihedral = ("
		17 13 10 7
	")
}

ee,wfn = optimize('scf', return_wfn=True)
oeprop( wfn, 'DIPOLE', 'QUADRUPOLE', 'MULLIKEN_CHARGES')
f=open( 'psi4out.xyz', 'w' )
f.write( "24  " )
f.write( str(ee) + "\n" )
f.write( MOL.save_string_xyz() )
f.close()
--------------------------------------------------------------------------

    Molecular point group: c1
  Charge       = 0
  Multiplicity = 1
  Basis Set: CC-PVTZ
  Basis Set:
  @DF-RHF Final Energy:  -349.37509675550956
    Total Energy =                       -349.3750967555098441
    Molecular point group: c1
  Basis Set: CC-PVTZ
  Basis Set:
  Basis Set: CC-PVTZ
  Basis Set:
  @DF-RHF Final Energy:  -349.37539500492181
    Total Energy =                       -349.3753950049213586
  Basis Set: CC-PVTZ
  Basis Set:
  Basis Set: CC-PVTZ
  Basis Set:
  @DF-RHF Final Energy:  -349.37545444286303
    Total Energy =                       -349.3754544428630311
  Basis Set: CC-PVTZ
  Basis Set:
  Basis Set: CC-PVTZ
  Basis Set:
  @DF-RHF Final Energy:  -349.37546328492698
    Total Energy =                       -349.3754632849272070
  Basis Set: CC-PVTZ
  Basis Set:
  Basis Set: CC-PVTZ
  Basis Set:
  @DF-RHF Final Energy:  -349.37546615672659
    Total Energy =                       -349.3754661567266453
  Basis Set: CC-PVTZ
  Basis Set:
  Charge       = 0
  Multiplicity = 1
  Basis Set: CC-PVTZ
  Basis Set:

    Orbital Energies (a.u.)
    -----------------------

    Doubly Occupied:

       1A    -20.546386     2A    -11.265572     3A    -11.214961
       4A    -11.211937     5A    -11.210372     6A    -11.209236
       7A    -11.209004     8A    -11.204826     9A     -1.364186
      10A     -1.088490    11A     -1.048504    12A     -0.984707
      13A     -0.917701    14A     -0.850524    15A     -0.801792
      16A     -0.776614    17A     -0.682143    18A     -0.654053
      19A     -0.625569    20A     -0.617806    21A     -0.600603
      22A     -0.580764    23A     -0.566261    24A     -0.533362
      25A     -0.523518    26A     -0.510379    27A     -0.493805
      28A     -0.478273    29A     -0.468610    30A     -0.460722
      31A     -0.454341    32A     -0.446018    33A     -0.420791

  @DF-RHF Final Energy:  -349.37546664949105

   => Energetics <=

    Nuclear Repulsion Energy =            391.5055179046529474
    One-Electron Energy =               -1249.7183147729992925
    Two-Electron Energy =                 508.8373302188552998
    DFT Exchange-Correlation Energy =       0.0000000000000000
    Empirical Dispersion Energy =           0.0000000000000000
    PCM Polarization Energy =               0.0000000000000000
    EFP Energy =                            0.0000000000000000
    Total Energy =                       -349.3754666494910452
    Molecular point group: c1
  Basis Set: CC-PVTZ
  Basis Set:

  -Total Gradient:
     Atom            X                  Y                   Z
    ------   -----------------  -----------------  -----------------
       1        0.000001944541    -0.000004986860     0.000008737679
       2        0.000008818669    -0.000024585125    -0.000004974210
       3       -0.000027333325     0.000053589092     0.000023294561
       4       -0.000008354712    -0.000007345467    -0.000008041687
       5        0.000003324199     0.000008513129    -0.000013234104
       6       -0.000017705420    -0.000007239888     0.000003513547
       7        0.000049968126    -0.000443620795     0.000401383305
       8       -0.000003795185    -0.000006017369     0.000000652977
       9       -0.000001538225    -0.000003397247    -0.000008405797
      10        0.000014153209     0.000731976462    -0.000697344562
      11        0.000007654855     0.000004111747    -0.000004469992
      12        0.000006369708     0.000001071375     0.000003558369
      13        0.000083496386    -0.000752416131     0.000881718084
      14       -0.000025868433    -0.000013291892    -0.000017023533
      15        0.000000996902    -0.000016819876     0.000021101493
      16       -0.000004101456    -0.000070991651    -0.000047222900
      17       -0.000086617315     0.000554006614    -0.000597478735
      18        0.000009221261    -0.000009064262     0.000024255807
      19       -0.000007515669     0.000030869645     0.000012696010
      20        0.000026447464    -0.000002825717     0.000001802939
      21       -0.000033040410    -0.000017436430     0.000001435656
      22        0.000011444044    -0.000008734841     0.000008177692
      23        0.000001812046    -0.000004935735     0.000008850525
      24       -0.000009781258     0.000009571222    -0.000002983129

  **** Optimization is complete! (in 6 steps) ****
    Final optimized geometry and variables:
    Molecular point group: c1

    Geometry (in Angstrom), charge = 0, multiplicity = 1:

    H           -3.123110478435     1.230606403605    -0.569355309785
    O           -3.159231269310     0.294019175762    -0.497360571078
    C           -2.876687442248    -0.093961247757     0.821322833413
    C           -1.455467871426     0.233243615337     1.254528343309
    H           -3.038901700927    -1.163835931642     0.855673848346
    H           -3.584910495647     0.361878736186     1.508660388504
    C           -0.381437206207    -0.480588748544     0.439518351614
    H           -1.306900455725     1.310459808096     1.194732475664
    H           -1.354090038038    -0.028132510259     2.305194603680
    C            1.039036358815    -0.126377452843     0.876182750103
    H           -0.513468737384    -0.246646631450    -0.610606336595
    H           -0.523190945578    -1.554810607667     0.531027962863
    C            2.141648641505    -0.832737413696     0.059781295985
    H            1.171891708397     0.950158601379     0.818626093684
    H            1.149940072744    -0.379594164108     1.926127425639
    C            2.980571468370     0.095075660442    -0.822223405035
    H            1.693921099698    -1.596101873432    -0.570461750589
    H            2.811557629738    -1.354609780457     0.734164632252
    C            2.205306797699     0.755512691156    -1.958990238849
    H            3.801255601509    -0.476551994925    -1.245326291585
    H            3.434639772094     0.862850722660    -0.201249989203
    H            1.770533356485     0.010734337048    -2.617393788857
    H            2.855872056143     1.384699536597    -2.555741329308
    H            1.398957531294     1.378680892394    -1.589602656502

  Mulliken Charges: (a.u.)
   Center  Symbol    Alpha    Beta     Spin     Total
       1     H     0.39526  0.39526  0.00000  0.20949
       2     O     4.20298  4.20298  0.00000 -0.40595
       3     C     2.97749  2.97749  0.00000  0.04502
       4     C     3.10386  3.10386  0.00000 -0.20771
       5     H     0.45903  0.45903  0.00000  0.08193
       6     H     0.46017  0.46017  0.00000  0.07966
       7     C     3.08805  3.08805  0.00000 -0.17611
       8     H     0.45885  0.45885  0.00000  0.08229
       9     H     0.45296  0.45296  0.00000  0.09408
      10     C     3.10834  3.10834  0.00000 -0.21669
      11     H     0.44398  0.44398  0.00000  0.11204
      12     H     0.45338  0.45338  0.00000  0.09324
      13     C     3.10030  3.10030  0.00000 -0.20059
      14     H     0.45207  0.45207  0.00000  0.09585
      15     H     0.44532  0.44532  0.00000  0.10937
      16     C     3.08635  3.08635  0.00000 -0.17269
      17     H     0.45383  0.45383  0.00000  0.09235
      18     H     0.44449  0.44449  0.00000  0.11103
      19     C     3.15527  3.15527  0.00000 -0.31055
      20     H     0.44961  0.44961  0.00000  0.10077
      21     H     0.45548  0.45548  0.00000  0.08903
      22     H     0.45253  0.45253  0.00000  0.09495
      23     H     0.44508  0.44508  0.00000  0.10984
      24     H     0.45532  0.45532  0.00000  0.08936

   Total alpha = 33.00000, Total beta = 33.00000, Total charge = -0.00000

*** Psi4 exiting successfully. Buy a developer a beer!
