  ==> Input File <==

--------------------------------------------------------------------------
set {
	reference rhf
	basis 6-31G*
}

set_num_threads( 1 )
memory 2 gb

molecule MOL {
0 1

O	 1.846825	 1.296220	 0.000415
C	 1.705091	 0.115954	 0.001797
C	 0.381791	 -0.609817	 0.001258
O	 2.721346	 -0.737485	 -0.000216
C	 -0.823008	 0.326187	 0.001381
H	 0.371250	 -1.265087	 -0.865474
H	 0.370908	 -1.265746	 0.867490
C	 -0.436584	 1.769669	 -0.324345
H	 -1.308425	 0.284068	 0.971322
H	 -1.553745	 -0.031381	 -0.717283
C	 -1.633171	 2.722574	 -0.327659
H	 0.299020	 2.121205	 0.397669
H	 0.051810	 1.804915	 -1.297028
C	 -1.246620	 4.164478	 -0.654375
H	 -2.120647	 2.690462	 0.644183
H	 -2.368492	 2.373235	 -1.049049
H	 -0.537481	 4.554444	 0.070375
H	 -2.115630	 4.815052	 -0.649289
H	 -0.786841	 4.234614	 -1.636208
C	 4.024888	 -0.184556	 -0.001949
H	 4.179030	 0.422472	 -0.882452
H	 4.701782	 -1.024608	 -0.003642
H	 4.181981	 0.421185	 0.878906

	symmetry c1
}
set optking {
	frozen_dihedral = ("
		15 11 8 12,
		9 5 8 12,
		1 2 3 6,
		1 2 4 20
	")
}

ee = energy('scf')
oeprop('DIPOLE', 'QUADRUPOLE', 'MULLIKEN_CHARGES')
f=open( 'psi4out.xyz', 'w' )
f.write( "23  " )
f.write( str(ee) + "\n" )
f.write( MOL.save_string_xyz() )
f.close()
--------------------------------------------------------------------------

    Molecular point group: c1

    Geometry (in Angstrom), charge = 0, multiplicity = 1:

       Center              X                  Y                   Z               Mass
    ------------   -----------------  -----------------  -----------------  -----------------
           O          1.077205676453     0.305568294977     0.145992885677    15.994914619560
           C          0.935471676453    -0.874697705023     0.147374885677    12.000000000000
           C         -0.387828323547    -1.600468705023     0.146835885677    12.000000000000
           O          1.951726676453    -1.728136705023     0.145361885677    15.994914619560
           C         -1.592627323547    -0.664464705023     0.146958885677    12.000000000000
           H         -0.398369323547    -2.255738705023    -0.719896114323     1.007825032070
           H         -0.398711323547    -2.256397705023     1.013067885677     1.007825032070
           C         -1.206203323547     0.779017294977    -0.178767114323    12.000000000000
           H         -2.078044323547    -0.706583705023     1.116899885677     1.007825032070
           H         -2.323364323547    -1.022032705023    -0.571705114323     1.007825032070
           C         -2.402790323547     1.731922294977    -0.182081114323    12.000000000000
           H         -0.470599323547     1.130553294977     0.543246885677     1.007825032070
           H         -0.717809323547     0.814263294977    -1.151450114323     1.007825032070
           C         -2.016239323547     3.173826294977    -0.508797114323    12.000000000000
           H         -2.890266323547     1.699810294977     0.789760885677     1.007825032070
           H         -3.138111323547     1.382583294977    -0.903471114323     1.007825032070
           H         -1.307100323547     3.563792294977     0.215952885677     1.007825032070
           H         -2.885249323547     3.824400294977    -0.503711114323     1.007825032070
           H         -1.556460323547     3.243962294977    -1.490630114323     1.007825032070
           C          3.255268676453    -1.175207705023     0.143628885677    12.000000000000
           H          3.409410676453    -0.568179705023    -0.736874114323     1.007825032070
           H          3.932162676453    -2.015259705023     0.141935885677     1.007825032070
           H          3.412361676453    -0.569466705023     1.024483885677     1.007825032070

  Charge       = 0
  Multiplicity = 1
  Basis Set: 6-31G*
  Basis Set:

    Orbital Energies (a.u.)
    -----------------------

    Doubly Occupied:

       1A    -20.606352     2A    -20.542484     3A    -11.376860
       4A    -11.282954     5A    -11.236578     6A    -11.216668
       7A    -11.198293     8A    -11.196247     9A    -11.187134
      10A     -1.473769    11A     -1.370255    12A     -1.085829
      13A     -1.035090    14A     -0.984929    15A     -0.923611
      16A     -0.838871    17A     -0.790422    18A     -0.771292
      19A     -0.697802    20A     -0.687468    21A     -0.669581
      22A     -0.641645    23A     -0.606852    24A     -0.599150
      25A     -0.556798    26A     -0.551016    27A     -0.548407
      28A     -0.530016    29A     -0.523794    30A     -0.513804
      31A     -0.479616    32A     -0.471923    33A     -0.466015
      34A     -0.442256    35A     -0.438495    36A     -0.396648

  @DF-RHF Final Energy:  -422.93803973516185

   => Energetics <=

    Nuclear Repulsion Energy =            474.9597824062774407
    One-Electron Energy =               -1517.9176041666817127
    Two-Electron Energy =                 620.0197820252449219
    DFT Exchange-Correlation Energy =       0.0000000000000000
    Empirical Dispersion Energy =           0.0000000000000000
    PCM Polarization Energy =               0.0000000000000000
    EFP Energy =                            0.0000000000000000
    Total Energy =                       -422.9380397351594638

  Mulliken Charges: (a.u.)
   Center  Symbol    Alpha    Beta     Spin     Total
       1     O     4.28537  4.28537  0.00000 -0.57075
       2     C     2.60479  2.60479  0.00000  0.79041
       3     C     3.21209  3.21209  0.00000 -0.42417
       4     O     4.30724  4.30724  0.00000 -0.61447
       5     C     3.15754  3.15754  0.00000 -0.31508
       6     H     0.39686  0.39686  0.00000  0.20628
       7     H     0.39644  0.39644  0.00000  0.20712
       8     C     3.15569  3.15569  0.00000 -0.31137
       9     H     0.41826  0.41826  0.00000  0.16348
      10     H     0.41805  0.41805  0.00000  0.16389
      11     C     3.14750  3.14750  0.00000 -0.29500
      12     H     0.39048  0.39048  0.00000  0.21904
      13     H     0.42576  0.42576  0.00000  0.14847
      14     C     3.23715  3.23715  0.00000 -0.47430
      15     H     0.42887  0.42887  0.00000  0.14226
      16     H     0.43131  0.43131  0.00000  0.13737
      17     H     0.42167  0.42167  0.00000  0.15666
      18     H     0.42303  0.42303  0.00000  0.15395
      19     H     0.42315  0.42315  0.00000  0.15369
      20     C     3.09259  3.09259  0.00000 -0.18517
      21     H     0.40897  0.40897  0.00000  0.18206
      22     H     0.40794  0.40794  0.00000  0.18413
      23     H     0.40925  0.40925  0.00000  0.18150

   Total alpha = 36.00000, Total beta = 36.00000, Total charge =  0.00000
