  ==> Input File <==

--------------------------------------------------------------------------
set {
	reference rhf
	basis 6-31G*
}

set_num_threads( 1 )
memory 2 gb

molecule MOL {
0 1

O	 -2.447452	 1.117083	 -0.274670
C	 -2.131972	 0.013229	 0.051539
C	 -0.912590	 -0.659075	 -0.554615
C	 -2.903802	 -0.755752	 1.100501
C	 0.379448	 -0.143569	 0.099626
H	 -0.900314	 -0.424927	 -1.613543
H	 -0.978152	 -1.738076	 -0.447446
C	 1.631333	 -0.777471	 -0.511575
H	 0.406069	 0.934874	 -0.008239
H	 0.357567	 -0.352209	 1.168148
C	 2.915987	 -0.544314	 0.291766
H	 1.766672	 -0.399098	 -1.523130
H	 1.471257	 -1.849544	 -0.605828
C	 3.373361	 0.914346	 0.347591
H	 3.708709	 -1.142521	 -0.150311
H	 2.780642	 -0.921148	 1.303579
H	 3.506512	 1.320010	 -0.651625
H	 4.322697	 0.999599	 0.867103
H	 2.660624	 1.545032	 0.868198
H	 -3.379805	 -1.619485	 0.643718
H	 -3.659400	 -0.121773	 1.543136
H	 -2.236641	 -1.128833	 1.872195

	symmetry c1
}
set optking {
	frozen_dihedral = ("
		6 3 2 1,
		6 3 5 8,
		12 8 11 15
	")
}

ee = energy('scf')
oeprop('DIPOLE', 'QUADRUPOLE', 'MULLIKEN_CHARGES')
f=open( 'psi4out.xyz', 'w' )
f.write( "22  " )
f.write( str(ee) + "\n" )
f.write( MOL.save_string_xyz() )
f.close()
--------------------------------------------------------------------------

    Molecular point group: c1

    Geometry (in Angstrom), charge = 0, multiplicity = 1:

       Center              X                  Y                   Z               Mass
    ------------   -----------------  -----------------  -----------------  -----------------
           O         -2.438492871274     1.209104390815    -0.351758867633    15.994914619560
           C         -2.123012871274     0.105250390815    -0.025549867633    12.000000000000
           C         -0.903630871274    -0.567053609185    -0.631703867633    12.000000000000
           C         -2.894842871274    -0.663730609185     1.023412132367    12.000000000000
           C          0.388407128726    -0.051547609185     0.022537132367    12.000000000000
           H         -0.891354871274    -0.332905609185    -1.690631867633     1.007825032070
           H         -0.969192871274    -1.646054609185    -0.524534867633     1.007825032070
           C          1.640292128726    -0.685449609185    -0.588663867633    12.000000000000
           H          0.415028128726     1.026895390815    -0.085327867633     1.007825032070
           H          0.366526128726    -0.260187609185     1.091059132367     1.007825032070
           C          2.924946128726    -0.452292609185     0.214677132367    12.000000000000
           H          1.775631128726    -0.307076609185    -1.600218867633     1.007825032070
           H          1.480216128726    -1.757522609185    -0.682916867633     1.007825032070
           C          3.382320128726     1.006367390815     0.270502132367    12.000000000000
           H          3.717668128726    -1.050499609185    -0.227399867633     1.007825032070
           H          2.789601128726    -0.829126609185     1.226490132367     1.007825032070
           H          3.515471128726     1.412031390815    -0.728713867633     1.007825032070
           H          4.331656128726     1.091620390815     0.790014132367     1.007825032070
           H          2.669583128726     1.637053390815     0.791109132367     1.007825032070
           H         -3.370845871274    -1.527463609185     0.566629132367     1.007825032070
           H         -3.650440871274    -0.029751609185     1.466047132367     1.007825032070
           H         -2.227681871274    -1.036811609185     1.795106132367     1.007825032070

  Charge       = 0
  Multiplicity = 1
  Basis Set: 6-31G*
  Basis Set:

    Orbital Energies (a.u.)
    -----------------------

    Doubly Occupied:

       1A    -20.547299     2A    -11.324449     3A    -11.229597
       4A    -11.229024     5A    -11.228235     6A    -11.222240
       7A    -11.220833     8A    -11.211444     9A     -1.393058
      10A     -1.095724    11A     -1.044349    12A     -0.999585
      13A     -0.937695    14A     -0.857761    15A     -0.786583
      16A     -0.733137    17A     -0.663134    18A     -0.643301
      19A     -0.626076    20A     -0.619913    21A     -0.595873
      22A     -0.585613    23A     -0.561705    24A     -0.539952
      25A     -0.535314    26A     -0.521080    27A     -0.496679
      28A     -0.488788    29A     -0.470712    30A     -0.464640
      31A     -0.459233    32A     -0.396214

  @DF-RHF Final Energy:  -348.09796293658155

   => Energetics <=

    Nuclear Repulsion Energy =            372.8301893729849326
    One-Electron Energy =               -1210.3977754932407152
    Two-Electron Energy =                 489.4696231836751394
    DFT Exchange-Correlation Energy =       0.0000000000000000
    Empirical Dispersion Energy =           0.0000000000000000
    PCM Polarization Energy =               0.0000000000000000
    EFP Energy =                            0.0000000000000000
    Total Energy =                       -348.0979629365806431

  Mulliken Charges: (a.u.)
   Center  Symbol    Alpha    Beta     Spin     Total
       1     O     4.26243  4.26243  0.00000 -0.52486
       2     C     2.73723  2.73723  0.00000  0.52553
       3     C     3.20001  3.20001  0.00000 -0.40002
       4     C     3.28958  3.28958  0.00000 -0.57915
       5     C     3.16385  3.16385  0.00000 -0.32769
       6     H     0.40116  0.40116  0.00000  0.19769
       7     H     0.41693  0.41693  0.00000  0.16614
       8     C     3.15272  3.15272  0.00000 -0.30545
       9     H     0.40355  0.40355  0.00000  0.19291
      10     H     0.42146  0.42146  0.00000  0.15708
      11     C     3.15355  3.15355  0.00000 -0.30711
      12     H     0.41970  0.41970  0.00000  0.16060
      13     H     0.42195  0.42195  0.00000  0.15611
      14     C     3.24193  3.24193  0.00000 -0.48385
      15     H     0.41968  0.41968  0.00000  0.16064
      16     H     0.42313  0.42313  0.00000  0.15373
      17     H     0.42069  0.42069  0.00000  0.15863
      18     H     0.41834  0.41834  0.00000  0.16332
      19     H     0.41846  0.41846  0.00000  0.16309
      20     H     0.40693  0.40693  0.00000  0.18614
      21     H     0.39706  0.39706  0.00000  0.20589
      22     H     0.40968  0.40968  0.00000  0.18063

   Total alpha = 32.00000, Total beta = 32.00000, Total charge =  0.00000
