  ==> Input File <==

--------------------------------------------------------------------------
set {
	reference rhf
	basis 6-31G*
}

set_num_threads( 4 )
memory 2 gb

molecule MOL {
0 1

H	 -3.420663	 1.227371	 -1.044276
O	 -3.452007	 0.283848	 -0.965577
C	 -3.181085	 -0.079926	 0.364119
C	 -1.765924	 0.277073	 0.805136
H	 -3.327791	 -1.152017	 0.410903
H	 -3.905698	 0.375695	 1.036898
C	 -0.677594	 -0.417312	 -0.014550
H	 -1.637766	 1.358238	 0.744969
H	 -1.659588	 0.017670	 1.857098
C	 0.738335	 -0.034840	 0.421385
H	 -0.814977	 -0.178223	 -1.064632
H	 -0.802730	 -1.495410	 0.071702
C	 1.822265	 -0.738362	 -0.399735
H	 0.853533	 1.043532	 0.342250
H	 0.871597	 -0.279636	 1.474438
C	 3.258060	 -0.455774	 0.057203
H	 1.718003	 -0.459167	 -1.447053
H	 1.651028	 -1.811884	 -0.354513
C	 3.621857	 -1.053928	 1.417449
H	 3.399370	 0.621417	 0.101718
H	 3.953562	 -0.821336	 -0.695687
H	 2.934862	 -0.715519	 2.188588
H	 4.622838	 -0.756004	 1.714294
H	 3.596469	 -2.138525	 1.404512

	symmetry c1
}
set optking {
	frozen_dihedral = ("
		20 16 13 17
	")
}

ee = optimize('scf')
oeprop('DIPOLE', 'QUADRUPOLE', 'MULLIKEN_CHARGES')
f=open( 'psi4out.xyz', 'w' )
f.write( "24  " )
f.write( str(ee) + "\n" )
f.write( MOL.save_string_xyz() )
f.close()
--------------------------------------------------------------------------

    Molecular point group: c1
  Charge       = 0
  Multiplicity = 1
  Basis Set: 6-31G*
  Basis Set:
  @DF-RHF Final Energy:  -349.24703164660207
    Total Energy =                       -349.2470316466018403
    Molecular point group: c1
  Basis Set: 6-31G*
  Basis Set:
  Basis Set: 6-31G*
  Basis Set:
  @DF-RHF Final Energy:  -349.24738440133018
    Total Energy =                       -349.2473844013297821
  Basis Set: 6-31G*
  Basis Set:
  Basis Set: 6-31G*
  Basis Set:
  @DF-RHF Final Energy:  -349.24753705451394
    Total Energy =                       -349.2475370545140549
  Basis Set: 6-31G*
  Basis Set:
  Basis Set: 6-31G*
  Basis Set:
  @DF-RHF Final Energy:  -349.24754240367281
    Total Energy =                       -349.2475424036726395
  Basis Set: 6-31G*
  Basis Set:
  Basis Set: 6-31G*
  Basis Set:
  @DF-RHF Final Energy:  -349.24754380679371
    Total Energy =                       -349.2475438067937716
  Basis Set: 6-31G*
  Basis Set:
  Charge       = 0
  Multiplicity = 1
  Basis Set: 6-31G*
  Basis Set:

    Orbital Energies (a.u.)
    -----------------------

    Doubly Occupied:

       1A    -20.553603     2A    -11.267735     3A    -11.217512
       4A    -11.214035     5A    -11.212572     6A    -11.211544
       7A    -11.211146     8A    -11.207281     9A     -1.360202
      10A     -1.088534    11A     -1.048316    12A     -0.985819
      13A     -0.914785    14A     -0.849787    15A     -0.800529
      16A     -0.777540    17A     -0.678972    18A     -0.654444
      19A     -0.623967    20A     -0.618877    21A     -0.598582
      22A     -0.584713    23A     -0.557330    24A     -0.539585
      25A     -0.516704    26A     -0.510585    27A     -0.496336
      28A     -0.471516    29A     -0.467800    30A     -0.459121
      31A     -0.457520    32A     -0.451034    33A     -0.418797

  @DF-RHF Final Energy:  -349.24754403519660

   => Energetics <=

    Nuclear Repulsion Energy =            384.0447304848210024
    One-Electron Energy =               -1234.5309030773541963
    Two-Electron Energy =                 501.2386285573365967
    DFT Exchange-Correlation Energy =       0.0000000000000000
    Empirical Dispersion Energy =           0.0000000000000000
    PCM Polarization Energy =               0.0000000000000000
    EFP Energy =                            0.0000000000000000
    Total Energy =                       -349.2475440351965972
    Molecular point group: c1
  Basis Set: 6-31G*
  Basis Set:

  -Total Gradient:
     Atom            X                  Y                   Z
    ------   -----------------  -----------------  -----------------
       1        0.000000534370    -0.000001495910     0.000001136261
       2        0.000004211498    -0.000004789454    -0.000004019336
       3       -0.000001881046     0.000012715335     0.000000767136
       4       -0.000001025660    -0.000002401398    -0.000003118946
       5        0.000000882439     0.000000094280     0.000000142442
       6       -0.000000655724    -0.000000050426     0.000001200572
       7       -0.000001182737     0.000007990330    -0.000000760854
       8       -0.000004315227    -0.000000008542     0.000000985401
       9        0.000003439595    -0.000002450265    -0.000001126136
      10        0.000001255449    -0.000000332656    -0.000011915858
      11       -0.000003118169     0.000000357245    -0.000001623308
      12        0.000004176760    -0.000000336059     0.000005246609
      13       -0.000399568189     0.001044800057     0.000496789475
      14       -0.000012046852    -0.000007889825     0.000002366752
      15        0.000011230771    -0.000006885236     0.000003023590
      16        0.000372954930    -0.000207400035    -0.001131791988
      17        0.000265157123    -0.000831444030    -0.000242753501
      18        0.000002644229     0.000000122941     0.000008221732
      19        0.000011258782    -0.000017888584    -0.000005293131
      20       -0.000259466741     0.000004353305     0.000869943655
      21        0.000007872919     0.000008094089     0.000003047845
      22       -0.000007238501     0.000006929377    -0.000001252521
      23        0.000000536511    -0.000005553238     0.000001345709
      24        0.000004343480     0.000003468698     0.000009438399

  **** Optimization is complete! (in 6 steps) ****
    Final optimized geometry and variables:
    Molecular point group: c1

    Geometry (in Angstrom), charge = 0, multiplicity = 1:

    H           -3.364081089704     1.560468816293    -1.242154216215
    O           -3.417199737607     0.615849677898    -1.195062660113
    C           -3.183936009109     0.203630494294     0.127632779868
    C           -1.771678769050     0.515011599639     0.610590568009
    H           -3.354289441783    -0.865858675555     0.136054744908
    H           -3.913576240308     0.653022455022     0.799095860480
    C           -0.680309702205    -0.174925299190    -0.208793249576
    H           -1.619607444172     1.594541121837     0.589543245149
    H           -1.694057845077     0.218583723515     1.655261274428
    C            0.733432355124     0.166696397587     0.266195567401
    H           -0.792425720738     0.098075482649    -1.253487747759
    H           -0.826880013398    -1.252624809916    -0.157629326726
    C            1.820960197527    -0.530512463833    -0.555013238525
    H            0.880943126532     1.244462071712     0.210941245887
    H            0.831169477508    -0.100643702840     1.315767943970
    C            3.256114309939    -0.172662859336    -0.150151018636
    H            1.681916567217    -0.282448412477    -1.605157345521
    H            1.689577927851    -1.609292277124    -0.484025344325
    C            3.688674902110    -0.741048658489     1.203114627704
    H            3.366050075614     0.909832641846    -0.133877494129
    H            3.936280589271    -0.538490463707    -0.915096045876
    H            3.091162099346    -0.346839035747     2.018625670845
    H            4.725608978286    -0.495725645792     1.411745751112
    H            3.596505944493    -1.823685234279     1.218515182464

  Mulliken Charges: (a.u.)
   Center  Symbol    Alpha    Beta     Spin     Total
       1     H     0.28338  0.28338  0.00000  0.43323
       2     O     4.36828  4.36828  0.00000 -0.73657
       3     C     2.99617  2.99617  0.00000  0.00766
       4     C     3.16904  3.16904  0.00000 -0.33807
       5     H     0.41631  0.41631  0.00000  0.16737
       6     H     0.42815  0.42815  0.00000  0.14370
       7     C     3.15191  3.15191  0.00000 -0.30381
       8     H     0.42824  0.42824  0.00000  0.14352
       9     H     0.42242  0.42242  0.00000  0.15516
      10     C     3.15326  3.15326  0.00000 -0.30652
      11     H     0.41205  0.41205  0.00000  0.17590
      12     H     0.42345  0.42345  0.00000  0.15310
      13     C     3.15266  3.15266  0.00000 -0.30531
      14     H     0.42540  0.42540  0.00000  0.14921
      15     H     0.42311  0.42311  0.00000  0.15379
      16     C     3.15264  3.15264  0.00000 -0.30528
      17     H     0.42143  0.42143  0.00000  0.15713
      18     H     0.42411  0.42411  0.00000  0.15178
      19     C     3.24069  3.24069  0.00000 -0.48139
      20     H     0.42385  0.42385  0.00000  0.15229
      21     H     0.42083  0.42083  0.00000  0.15835
      22     H     0.42076  0.42076  0.00000  0.15848
      23     H     0.41965  0.41965  0.00000  0.16070
      24     H     0.42220  0.42220  0.00000  0.15559

   Total alpha = 33.00000, Total beta = 33.00000, Total charge = -0.00000
