  ==> Input File <==

--------------------------------------------------------------------------
set {
	reference rhf
	basis 6-31G*
}

set_num_threads( 4 )
memory 2 gb

molecule MOL {
0 1

H	 4.098002	 3.636993	 -1.873763
C	 4.070216	 2.635488	 -1.455747
C	 2.767081	 2.389869	 -0.696348
H	 4.181745	 1.931798	 -2.275335
H	 4.932842	 2.524842	 -0.804261
C	 2.698066	 0.987584	 -0.087540
H	 1.927779	 2.533932	 -1.368969
H	 2.667101	 3.130956	 0.095162
C	 1.412233	 0.718564	 0.694463
H	 2.795104	 0.245352	 -0.871963
H	 3.541995	 0.850235	 0.584739
C	 0.169600	 0.576866	 -0.172154
H	 1.509019	 -0.211887	 1.251836
H	 1.242124	 1.491625	 1.440530
C	 -1.181045	 0.701995	 0.511084
O	 0.245480	 0.356965	 -1.343602
C	 -2.285934	 -0.139295	 -0.145128
H	 -1.449051	 1.751551	 0.493206
H	 -1.071135	 0.403303	 1.551943
C	 -3.651768	 0.085446	 0.506485
H	 -2.346596	 0.110469	 -1.202272
H	 -2.034737	 -1.195320	 -0.088721
C	 -4.759797	 -0.746382	 -0.137905
H	 -3.908762	 1.140117	 0.445781
H	 -3.588286	 -0.154158	 1.565709
H	 -4.868882	 -0.505166	 -1.191300
H	 -4.548009	 -1.809175	 -0.062213
H	 -5.715422	 -0.564821	 0.343442

	symmetry c1
}
set optking {
	frozen_dihedral = ("
		16 12 15 17
	")
}

ee = optimize('scf')
oeprop('DIPOLE', 'QUADRUPOLE', 'MULLIKEN_CHARGES')
f=open( 'psi4out.xyz', 'w' )
f.write( "28  " )
f.write( str(ee) + "\n" )
f.write( MOL.save_string_xyz() )
f.close()
--------------------------------------------------------------------------

    Molecular point group: c1
  Charge       = 0
  Multiplicity = 1
  Basis Set: 6-31G*
  Basis Set:
  @DF-RHF Final Energy:  -426.17052461087269
    Total Energy =                       -426.1705246108722349
    Molecular point group: c1
  Basis Set: 6-31G*
  Basis Set:
  Basis Set: 6-31G*
  Basis Set:
  @DF-RHF Final Energy:  -426.16996107038688
    Total Energy =                       -426.1699610703874441
  Basis Set: 6-31G*
  Basis Set:
  Basis Set: 6-31G*
  Basis Set:
  @DF-RHF Final Energy:  -426.17057728983445
    Total Energy =                       -426.1705772898350233
  Basis Set: 6-31G*
  Basis Set:
  Basis Set: 6-31G*
  Basis Set:
  @DF-RHF Final Energy:  -426.17103659164422
    Total Energy =                       -426.1710365916439969
  Basis Set: 6-31G*
  Basis Set:
  Basis Set: 6-31G*
  Basis Set:
  @DF-RHF Final Energy:  -426.17105624895942
    Total Energy =                       -426.1710562489593030
  Basis Set: 6-31G*
  Basis Set:
  Basis Set: 6-31G*
  Basis Set:
  @DF-RHF Final Energy:  -426.17105770587818
    Total Energy =                       -426.1710577058777289
  Basis Set: 6-31G*
  Basis Set:
  Charge       = 0
  Multiplicity = 1
  Basis Set: 6-31G*
  Basis Set:

    Orbital Energies (a.u.)
    -----------------------

    Doubly Occupied:

       1A    -20.549146     2A    -11.324061     3A    -11.231258
       4A    -11.230720     5A    -11.219893     6A    -11.218801
       7A    -11.216771     8A    -11.212188     9A    -11.210544
      10A    -11.205735    11A     -1.394947    12A     -1.088750
      13A     -1.077501    14A     -1.022162    15A     -0.990740
      16A     -0.910432    17A     -0.866056    18A     -0.806313
      19A     -0.792129    20A     -0.724019    21A     -0.669269
      22A     -0.652912    23A     -0.626216    24A     -0.618306
      25A     -0.608505    26A     -0.585461    27A     -0.578158
      28A     -0.572235    29A     -0.537761    30A     -0.528084
      31A     -0.521171    32A     -0.509140    33A     -0.491419
      34A     -0.478896    35A     -0.475223    36A     -0.470992
      37A     -0.468720    38A     -0.465884    39A     -0.456143
      40A     -0.393621

  @DF-RHF Final Energy:  -426.17105810906196

   => Energetics <=

    Nuclear Repulsion Energy =            529.0959183788551172
    One-Electron Energy =               -1626.5333915935750611
    Two-Electron Energy =                 671.2664151056574156
    DFT Exchange-Correlation Energy =       0.0000000000000000
    Empirical Dispersion Energy =           0.0000000000000000
    PCM Polarization Energy =               0.0000000000000000
    EFP Energy =                            0.0000000000000000
    Total Energy =                       -426.1710581090624146
    Molecular point group: c1
  Basis Set: 6-31G*
  Basis Set:

  -Total Gradient:
     Atom            X                  Y                   Z
    ------   -----------------  -----------------  -----------------
       1       -0.000000821220     0.000000013222    -0.000000143602
       2       -0.000010824419    -0.000002288933    -0.000009229635
       3        0.000028467297     0.000016978731     0.000051173062
       4        0.000001678588    -0.000000621020     0.000000575916
       5       -0.000010543271    -0.000000057083     0.000001725110
       6        0.000016297733    -0.000061550056    -0.000000086780
       7        0.000003015880     0.000002069739    -0.000012614709
       8       -0.000001675689     0.000013760121    -0.000004649077
       9        0.000001480827     0.000084294711    -0.000022874315
      10        0.000005767835    -0.000008551861     0.000004260639
      11        0.000008502281     0.000003965227    -0.000016230350
      12        0.000139245768    -0.002313735269     0.000535608283
      13       -0.000001143959     0.000015483784    -0.000030847104
      14        0.000019901360    -0.000001781599     0.000021409591
      15       -0.000376991663     0.001691397509    -0.000854919552
      16        0.000002490546     0.001382000691    -0.000194110205
      17        0.000164248775    -0.000654972975     0.000483070883
      18       -0.000013668122    -0.000039764172    -0.000001638353
      19        0.000047323589    -0.000006498259     0.000012268320
      20        0.000014222919    -0.000080507281     0.000010832641
      21       -0.000016013461    -0.000030693601    -0.000041399920
      22       -0.000017399146     0.000014014073     0.000067120138
      23       -0.000022625732     0.000004535527    -0.000004527533
      24        0.000044056663    -0.000016384046    -0.000011795621
      25       -0.000013374190    -0.000006128113     0.000022601214
      26        0.000003174190    -0.000004641388    -0.000002676430
      27       -0.000006415100     0.000000396892     0.000004215567
      28       -0.000008378277    -0.000000734571    -0.000007118176

  **** Optimization is complete! (in 7 steps) ****
    Final optimized geometry and variables:
    Molecular point group: c1

    Geometry (in Angstrom), charge = 0, multiplicity = 1:

    H            4.248341109949     2.798492573275    -1.644455953647
    C            4.182714563983     1.806415862870    -1.208583653831
    C            2.862510791994     1.617200260850    -0.462753226534
    H            4.282111587260     1.084346781702    -2.013641377331
    H            5.032801377981     1.680380020757    -0.543504887841
    C            2.740897135206     0.229976941069     0.172109454818
    H            2.036861260671     1.774257930092    -1.148787399519
    H            2.776326048803     2.376069135940     0.313391427221
    C            1.435368396805     0.015771167035     0.936169130636
    H            2.829165847085    -0.530429782350    -0.596273580938
    H            3.569393924173     0.080944172066     0.860853624511
    C            0.202466600919    -0.138343524581     0.062759955763
    H            1.494432589109    -0.890613608326     1.538528046544
    H            1.260515618173     0.822773178394     1.645566545109
    C           -1.139969621263    -0.064593242420     0.772353308830
    O            0.275212047443    -0.295871802864    -1.118485512839
    C           -2.239762269897    -0.879616637949     0.092767763295
    H           -1.414649628560     0.989699313437     0.802060987869
    H           -1.019850057670    -0.370558590545     1.808632260478
    C           -3.593469390051    -0.740177250107     0.790666029066
    H           -2.322036983021    -0.569046210908    -0.942635643577
    H           -1.947089981338    -1.926847652528     0.074650936770
    C           -4.693052806264    -1.559048389799     0.115514570659
    H           -3.884162426415     0.308271220093     0.807661685208
    H           -3.502021620164    -1.047979307890     1.830458447559
    H           -4.831252531992    -1.251963487513    -0.917015186661
    H           -4.448891438255    -2.617491770111     0.114800827987
    H           -5.642825515376    -1.438831248446     0.627267055050

  Mulliken Charges: (a.u.)
   Center  Symbol    Alpha    Beta     Spin     Total
       1     H     0.41935  0.41935  0.00000  0.16130
       2     C     3.24015  3.24015  0.00000 -0.48031
       3     C     3.15643  3.15643  0.00000 -0.31286
       4     H     0.41841  0.41841  0.00000  0.16317
       5     H     0.42370  0.42370  0.00000  0.15260
       6     C     3.14946  3.14946  0.00000 -0.29892
       7     H     0.40924  0.40924  0.00000  0.18151
       8     H     0.42772  0.42772  0.00000  0.14456
       9     C     3.21139  3.21139  0.00000 -0.42279
      10     H     0.40761  0.40761  0.00000  0.18477
      11     H     0.42170  0.42170  0.00000  0.15661
      12     C     2.72981  2.72981  0.00000  0.54037
      13     H     0.40509  0.40509  0.00000  0.18982
      14     H     0.41078  0.41078  0.00000  0.17845
      15     C     3.20738  3.20738  0.00000 -0.41476
      16     O     4.26962  4.26962  0.00000 -0.53924
      17     C     3.15083  3.15083  0.00000 -0.30166
      18     H     0.40473  0.40473  0.00000  0.19053
      19     H     0.41349  0.41349  0.00000  0.17303
      20     C     3.15324  3.15324  0.00000 -0.30648
      21     H     0.40501  0.40501  0.00000  0.18999
      22     H     0.41926  0.41926  0.00000  0.16149
      23     C     3.23945  3.23945  0.00000 -0.47890
      24     H     0.42282  0.42282  0.00000  0.15436
      25     H     0.42413  0.42413  0.00000  0.15174
      26     H     0.41938  0.41938  0.00000  0.16123
      27     H     0.42081  0.42081  0.00000  0.15837
      28     H     0.41899  0.41899  0.00000  0.16202

   Total alpha = 40.00000, Total beta = 40.00000, Total charge =  0.00000
