                              Psi4 1.0.54 Driver

  ==> Input File <==

--------------------------------------------------------------------------
set {
	reference rhf
	basis cc-pvtz
}

set_num_threads( 4 )
memory 2 gb

molecule MOL {
0 1

H	 3.289346	 -0.454484	 -0.039362
C	 2.232486	 -0.267601	 -0.030022
C	 1.600641	 0.056383	 1.161254
C	 1.510304	 -0.351106	 -1.203477
H	 2.168670	 0.119354	 2.069093
C	 0.245025	 0.296877	 1.177608
H	 2.001709	 -0.601887	 -2.123317
C	 0.148916	 -0.109303	 -1.185462
H	 -0.261195	 0.548586	 2.088125
C	 -0.486398	 0.214248	 0.000000
H	 -0.419267	 -0.172559	 -2.095045
C	 -1.946525	 0.470130	 0.000000
O	 -2.779618	 -0.371226	 0.000000
H	 -2.227127	 1.528393	 0.000000

	symmetry c1
}
set optking {
	frozen_dihedral = ("
		8 10 12 14
	")
}

ee,wfn = optimize('scf', return_wfn=True)
oeprop( wfn, 'DIPOLE', 'QUADRUPOLE', 'MULLIKEN_CHARGES')
f=open( 'psi4out.xyz', 'w' )
f.write( "14  " )
f.write( str(ee) + "\n" )
f.write( MOL.save_string_xyz() )
f.close()
--------------------------------------------------------------------------

    Molecular point group: c1
  Charge       = 0
  Multiplicity = 1
  Basis Set: CC-PVTZ
  Basis Set:
  @DF-RHF Final Energy:  -343.53705328419454
    Total Energy =                       -343.5370532841945987
    Molecular point group: c1
  Basis Set: CC-PVTZ
  Basis Set:
  Basis Set: CC-PVTZ
  Basis Set:
  @DF-RHF Final Energy:  -343.53696658924969
    Total Energy =                       -343.5369665892494595
  Basis Set: CC-PVTZ
  Basis Set:
  Basis Set: CC-PVTZ
  Basis Set:
  @DF-RHF Final Energy:  -343.53696138806049
    Total Energy =                       -343.5369613880607176
  Basis Set: CC-PVTZ
  Basis Set:
  Basis Set: CC-PVTZ
  Basis Set:
  @DF-RHF Final Energy:  -343.53759697669494
    Total Energy =                       -343.5375969766953403
  Basis Set: CC-PVTZ
  Basis Set:
  Basis Set: CC-PVTZ
  Basis Set:
  @DF-RHF Final Energy:  -343.53760400478069
    Total Energy =                       -343.5376040047806327
  Basis Set: CC-PVTZ
  Basis Set:
  Charge       = 0
  Multiplicity = 1
  Basis Set: CC-PVTZ
  Basis Set:

    Orbital Energies (a.u.)
    -----------------------

    Doubly Occupied:

       1A    -20.563699     2A    -11.332795     3A    -11.251304
       4A    -11.245997     5A    -11.245183     6A    -11.243004
       7A    -11.242338     8A    -11.240809     9A     -1.417904
      10A     -1.174918    11A     -1.049337    12A     -1.033440
      13A     -0.890380    14A     -0.845100    15A     -0.798203
      16A     -0.725620    17A     -0.681402    18A     -0.657060
      19A     -0.645864    20A     -0.620784    21A     -0.604168
      22A     -0.540558    23A     -0.532337    24A     -0.518134
      25A     -0.506019    26A     -0.426233    27A     -0.352325
      28A     -0.351444

  @DF-RHF Final Energy:  -343.53760465001506

   => Energetics <=

    Nuclear Repulsion Energy =            323.0342193997207687
    One-Electron Energy =               -1105.6709328060019288
    Two-Electron Energy =                 439.0991087562663324
    DFT Exchange-Correlation Energy =       0.0000000000000000
    Empirical Dispersion Energy =           0.0000000000000000
    PCM Polarization Energy =               0.0000000000000000
    EFP Energy =                            0.0000000000000000
    Total Energy =                       -343.5376046500148277
    Molecular point group: c1
  Basis Set: CC-PVTZ
  Basis Set:

  -Total Gradient:
     Atom            X                  Y                   Z
    ------   -----------------  -----------------  -----------------
       1       -0.000003440452     0.000000134812     0.000009717913
       2       -0.000003062508    -0.000017249323    -0.000197080855
       3       -0.000163252058     0.000044578040     0.000099328833
       4        0.000160801178    -0.000031897626     0.000101482993
       5        0.000008084583    -0.000004296190    -0.000003310449
       6        0.000140070520    -0.000013975540     0.000075682877
       7       -0.000009272785     0.000002139480    -0.000011624289
       8        0.000369032742     0.002664224421    -0.000288443640
       9       -0.000002564519     0.000001312286    -0.000004026644
      10       -0.000751507740    -0.003788927304    -0.000622118577
      11        0.000013261126    -0.000004532256    -0.000002977498
      12        0.000233877585     0.001090347552     0.004068009900
      13       -0.000029799921    -0.000029172442     0.000017861881
      14        0.000037772251     0.000087314090    -0.003242502446

  **** Optimization is complete! (in 6 steps) ****
    Final optimized geometry and variables:
    Molecular point group: c1

    Geometry (in Angstrom), charge = 0, multiplicity = 1:

    H            3.301803587600    -0.445270206008    -0.020029573195
    C            2.244707593632    -0.261550702634    -0.009050159048
    C            1.608880608812     0.049760463722     1.178483709026
    C            1.517562975661    -0.333441228804    -1.181513985186
    H            2.170688605508     0.106549738423     2.090876565156
    C            0.249358887337     0.292918534183     1.192477725264
    H            2.008389532593    -0.571428322311    -2.105523701269
    C            0.154906930687    -0.101918736651    -1.168232924013
    H           -0.239862328378     0.542606831556     2.115546077009
    C           -0.483281747582     0.200314729985     0.021423094139
    H           -0.410556202247    -0.167628508698    -2.078198447519
    C           -1.952281224017     0.499113626553     0.025181551500
    O           -2.796309356889    -0.323616512724    -0.047989971744
    H           -2.218074168168     1.561001560077     0.059212202864

  Mulliken Charges: (a.u.)
   Center  Symbol    Alpha    Beta     Spin     Total
       1     H     0.42082  0.42082  0.00000  0.15835
       2     C     3.08426  3.08426  0.00000 -0.16851
       3     C     3.06346  3.06346  0.00000 -0.12692
       4     C     3.06297  3.06297  0.00000 -0.12593
       5     H     0.42086  0.42086  0.00000  0.15828
       6     C     3.09924  3.09924  0.00000 -0.19849
       7     H     0.42094  0.42094  0.00000  0.15812
       8     C     3.09941  3.09941  0.00000 -0.19881
       9     H     0.42387  0.42387  0.00000  0.15226
      10     C     2.93744  2.93744  0.00000  0.12512
      11     H     0.42043  0.42043  0.00000  0.15914
      12     C     2.93161  2.93161  0.00000  0.13679
      13     O     4.15616  4.15616  0.00000 -0.31231
      14     H     0.45854  0.45854  0.00000  0.08293

   Total alpha = 28.00000, Total beta = 28.00000, Total charge =  0.00000

*** Psi4 exiting successfully. Buy a developer a beer!
