  ==> Input File <==

--------------------------------------------------------------------------
set {
	reference rhf
	basis 6-31G*
}

set_num_threads( 1 )
memory 2 gb

molecule MOL {
0 1

O	 -2.042549	 -1.228399	 -0.269030
C	 -1.653912	 -0.146171	 0.050137
C	 -0.332303	 0.024011	 0.778412
C	 -2.438579	 1.106236	 -0.272369
C	 0.845713	 -0.001731	 -0.208243
H	 -0.323783	 0.953829	 1.340327
H	 -0.235459	 -0.796807	 1.480410
C	 0.766670	 -1.172327	 -1.189307
H	 1.784249	 -0.056818	 0.340573
H	 0.859704	 0.936258	 -0.755164
C	 1.932149	 -1.195250	 -2.177406
H	 0.743685	 -2.107964	 -0.634799
H	 -0.171183	 -1.117307	 -1.737005
H	 2.883524	 -1.284126	 -1.660647
H	 1.961429	 -0.285314	 -2.769522
H	 1.848327	 -2.033290	 -2.862015
H	 -3.277823	 0.863061	 -0.908988
H	 -1.806773	 1.843019	 -0.759671
H	 -2.802853	 1.554979	 0.648059

	symmetry c1
}
set optking {
	frozen_dihedral = ("
		11 8 5 9,
		5 3 2 4
	")
}

ee = energy('scf')
oeprop('DIPOLE', 'QUADRUPOLE', 'MULLIKEN_CHARGES')
f=open( 'psi4out.xyz', 'w' )
f.write( "19  " )
f.write( str(ee) + "\n" )
f.write( MOL.save_string_xyz() )
f.close()
--------------------------------------------------------------------------

    Molecular point group: c1

    Geometry (in Angstrom), charge = 0, multiplicity = 1:

       Center              X                  Y                   Z               Mass
    ------------   -----------------  -----------------  -----------------  -----------------
           O         -1.625329068950    -0.850600769726     0.219252781169    15.994914619560
           C         -1.236692068950     0.231627230274     0.538419781169    12.000000000000
           C          0.084916931050     0.401809230274     1.266694781169    12.000000000000
           C         -2.021359068950     1.484034230274     0.215913781169    12.000000000000
           C          1.262932931050     0.376067230274     0.280039781169    12.000000000000
           H          0.093436931050     1.331627230274     1.828609781169     1.007825032070
           H          0.181760931050    -0.419008769726     1.968692781169     1.007825032070
           C          1.183889931050    -0.794528769726    -0.701024218831    12.000000000000
           H          2.201468931050     0.320980230274     0.828855781169     1.007825032070
           H          1.276923931050     1.314056230274    -0.266881218831     1.007825032070
           C          2.349368931050    -0.817451769726    -1.689123218831    12.000000000000
           H          1.160904931050    -1.730165769726    -0.146516218831     1.007825032070
           H          0.246036931050    -0.739508769726    -1.248722218831     1.007825032070
           H          3.300743931050    -0.906327769726    -1.172364218831     1.007825032070
           H          2.378648931050     0.092484230274    -2.281239218831     1.007825032070
           H          2.265546931050    -1.655491769726    -2.373732218831     1.007825032070
           H         -2.860603068950     1.240859230274    -0.420705218831     1.007825032070
           H         -1.389553068950     2.220817230274    -0.271388218831     1.007825032070
           H         -2.385633068950     1.932777230274     1.136341781169     1.007825032070

  Charge       = 0
  Multiplicity = 1
  Basis Set: 6-31G*
  Basis Set:

    Orbital Energies (a.u.)
    -----------------------

    Doubly Occupied:

       1A    -20.548382     2A    -11.325668     3A    -11.229910
       4A    -11.229423     5A    -11.229287     6A    -11.211842
       7A    -11.207682     8A     -1.395652     9A     -1.088761
      10A     -1.026193    11A     -0.982137    12A     -0.886085
      13A     -0.804976    14A     -0.731127    15A     -0.659736
      16A     -0.645467    17A     -0.621817    18A     -0.607278
      19A     -0.581045    20A     -0.573729    21A     -0.554512
      22A     -0.540392    23A     -0.512800    24A     -0.493194
      25A     -0.480528    26A     -0.465237    27A     -0.458068
      28A     -0.397155

  @DF-RHF Final Energy:  -309.06035735151465

   => Energetics <=

    Nuclear Repulsion Energy =            311.4536848680994581
    One-Electron Energy =               -1036.0518990290488546
    Two-Electron Energy =                 415.5378568094350840
    DFT Exchange-Correlation Energy =       0.0000000000000000
    Empirical Dispersion Energy =           0.0000000000000000
    PCM Polarization Energy =               0.0000000000000000
    EFP Energy =                            0.0000000000000000
    Total Energy =                       -309.0603573515143125

  Mulliken Charges: (a.u.)
   Center  Symbol    Alpha    Beta     Spin     Total
       1     O     4.26145  4.26145  0.00000 -0.52289
       2     C     2.74056  2.74056  0.00000  0.51888
       3     C     3.19811  3.19811  0.00000 -0.39623
       4     C     3.28894  3.28894  0.00000 -0.57787
       5     C     3.16273  3.16273  0.00000 -0.32547
       6     H     0.41498  0.41498  0.00000  0.17003
       7     H     0.40099  0.40099  0.00000  0.19803
       8     C     3.15475  3.15475  0.00000 -0.30950
       9     H     0.41410  0.41410  0.00000  0.17180
      10     H     0.42132  0.42132  0.00000  0.15735
      11     C     3.24004  3.24004  0.00000 -0.48009
      12     H     0.41563  0.41563  0.00000  0.16875
      13     H     0.40919  0.40919  0.00000  0.18162
      14     H     0.42360  0.42360  0.00000  0.15280
      15     H     0.42392  0.42392  0.00000  0.15217
      16     H     0.41681  0.41681  0.00000  0.16639
      17     H     0.39713  0.39713  0.00000  0.20574
      18     H     0.40964  0.40964  0.00000  0.18073
      19     H     0.40612  0.40612  0.00000  0.18776

   Total alpha = 28.00000, Total beta = 28.00000, Total charge =  0.00000
