                              Psi4 1.0.54 Driver

  ==> Input File <==

--------------------------------------------------------------------------
set {
	reference rhf
	basis cc-pvtz
}

set_num_threads( 4 )
memory 2 gb

molecule MOL {
0 1

H	 5.288478	 0.512475	 1.047657
C	 4.705408	 0.018421	 0.279017
C	 3.224947	 -0.010571	 0.643321
H	 4.865962	 0.551407	 -0.651770
H	 5.100368	 -0.985148	 0.157963
C	 2.372490	 -0.709813	 -0.413253
H	 2.870379	 1.004586	 0.779983
H	 3.099935	 -0.517682	 1.597278
C	 0.886455	 -0.759601	 -0.072507
H	 2.498974	 -0.213496	 -1.367454
H	 2.727847	 -1.728695	 -0.537290
C	 0.166485	 0.574257	 -0.177158
H	 0.374235	 -1.433477	 -0.754626
H	 0.728705	 -1.170641	 0.920307
C	 -1.180025	 0.697761	 0.509157
O	 0.624723	 1.484494	 -0.789337
C	 -2.285431	 -0.137488	 -0.145671
H	 -1.447360	 1.745713	 0.496200
H	 -1.065514	 0.394096	 1.546399
C	 -3.646545	 0.082747	 0.508954
H	 -2.348635	 0.118247	 -1.199806
H	 -2.034895	 -1.192387	 -0.096473
C	 -4.757412	 -0.737227	 -0.138149
H	 -3.900211	 1.137405	 0.459735
H	 -3.580878	 -0.166775	 1.564416
H	 -4.867876	 -0.486707	 -1.187777
H	 -4.549650	 -1.800049	 -0.072540
H	 -5.709585	 -0.556397	 0.346597

	symmetry c1
}
set optking {
	frozen_dihedral = ("
		16 12 15 17
	")
}

ee,wfn = optimize('scf', return_wfn=True)
oeprop( wfn, 'DIPOLE', 'QUADRUPOLE', 'MULLIKEN_CHARGES')
f=open( 'psi4out.xyz', 'w' )
f.write( "28  " )
f.write( str(ee) + "\n" )
f.write( MOL.save_string_xyz() )
f.close()
--------------------------------------------------------------------------

    Molecular point group: c1
  Charge       = 0
  Multiplicity = 1
  Basis Set: CC-PVTZ
  Basis Set:
  @DF-RHF Final Energy:  -426.31986016624501
    Total Energy =                       -426.3198601662446663
    Molecular point group: c1
  Basis Set: CC-PVTZ
  Basis Set:
  Basis Set: CC-PVTZ
  Basis Set:
  @DF-RHF Final Energy:  -426.31945788874714
    Total Energy =                       -426.3194578887469106
  Basis Set: CC-PVTZ
  Basis Set:
  Basis Set: CC-PVTZ
  Basis Set:
  @DF-RHF Final Energy:  -426.31987439698264
    Total Energy =                       -426.3198743969824136
  Basis Set: CC-PVTZ
  Basis Set:
  Basis Set: CC-PVTZ
  Basis Set:
  @DF-RHF Final Energy:  -426.31986595239925
    Total Energy =                       -426.3198659523993683
  Basis Set: CC-PVTZ
  Basis Set:
  Basis Set: CC-PVTZ
  Basis Set:
  @DF-RHF Final Energy:  -426.31988698473606
    Total Energy =                       -426.3198869847367405
  Basis Set: CC-PVTZ
  Basis Set:
  Basis Set: CC-PVTZ
  Basis Set:
  @DF-RHF Final Energy:  -426.31988882665962
    Total Energy =                       -426.3198888266597351
  Basis Set: CC-PVTZ
  Basis Set:
  Charge       = 0
  Multiplicity = 1
  Basis Set: CC-PVTZ
  Basis Set:

    Orbital Energies (a.u.)
    -----------------------

    Doubly Occupied:

       1A    -20.536689     2A    -11.316571     3A    -11.229752
       4A    -11.228292     5A    -11.226697     6A    -11.223645
       7A    -11.214589     8A    -11.214051     9A    -11.210683
      10A    -11.203878    11A     -1.396587    12A     -1.095850
      13A     -1.078874    14A     -1.023539    15A     -0.991811
      16A     -0.908212    17A     -0.873398    18A     -0.809230
      19A     -0.799951    20A     -0.724720    21A     -0.671115
      22A     -0.653407    23A     -0.630090    24A     -0.621259
      25A     -0.610925    26A     -0.589070    27A     -0.576951
      28A     -0.575929    29A     -0.543164    30A     -0.534089
      31A     -0.522308    32A     -0.505033    33A     -0.503146
      34A     -0.485004    35A     -0.478737    36A     -0.476601
      37A     -0.472779    38A     -0.465805    39A     -0.456595
      40A     -0.394202

  @DF-RHF Final Energy:  -426.31988908390952

   => Energetics <=

    Nuclear Repulsion Energy =            531.6281215301310112
    One-Electron Energy =               -1631.7495660073241197
    Two-Electron Energy =                 673.8015553932834791
    DFT Exchange-Correlation Energy =       0.0000000000000000
    Empirical Dispersion Energy =           0.0000000000000000
    PCM Polarization Energy =               0.0000000000000000
    EFP Energy =                            0.0000000000000000
    Total Energy =                       -426.3198890839096293
    Molecular point group: c1
  Basis Set: CC-PVTZ
  Basis Set:

  -Total Gradient:
     Atom            X                  Y                   Z
    ------   -----------------  -----------------  -----------------
       1       -0.000000220191     0.000000936990    -0.000000028017
       2        0.000002273109     0.000003684284    -0.000002542980
       3        0.000017376847    -0.000024322558     0.000008453032
       4        0.000000487438    -0.000001495569     0.000001435151
       5       -0.000000649837    -0.000000150908    -0.000000120320
       6        0.000009404007    -0.000001276721    -0.000009298207
       7       -0.000003971059     0.000008907194     0.000002989205
       8       -0.000000988752     0.000003104237    -0.000000775791
       9        0.000000155250    -0.000005769703     0.000040602320
      10       -0.000001780111    -0.000002951263     0.000004096415
      11        0.000001164133     0.000000769946     0.000001023192
      12        0.000013727421     0.000049312535     0.000047018200
      13       -0.000003447147     0.000005801167    -0.000013993225
      14        0.000006091284    -0.000004432370    -0.000012327488
      15        0.000013771776    -0.000053141201     0.000026959394
      16       -0.000042690131    -0.000017469779    -0.000066276191
      17       -0.000005163123     0.000031520497    -0.000047261682
      18       -0.000005925538     0.000001465090    -0.000001270668
      19       -0.000002299566    -0.000002423485    -0.000000078001
      20       -0.000007652533    -0.000001372869     0.000010180756
      21        0.000008377718    -0.000006154533     0.000020015715
      22        0.000001017378     0.000013468326    -0.000003694870
      23       -0.000003392119     0.000006393868     0.000000722145
      24       -0.000000400427    -0.000014731980     0.000003498256
      25       -0.000005457552     0.000005847622    -0.000016033054
      26        0.000000861894    -0.000005284834     0.000017009661
      27       -0.000002954368     0.000013439417    -0.000000734405
      28        0.000012284200    -0.000003673402    -0.000009568546

  **** Optimization is complete! (in 7 steps) ****
    Final optimized geometry and variables:
    Molecular point group: c1

    Geometry (in Angstrom), charge = 0, multiplicity = 1:

    H            5.294919785944     0.480575211741     0.969803042144
    C            4.697228363405    -0.010103026715     0.210293558531
    C            3.224544791756    -0.043738552940     0.604345025902
    H            4.837997412348     0.528512918350    -0.720448630270
    H            5.091298995449    -1.012272012224     0.075479522042
    C            2.352097369835    -0.738867918772    -0.438558028175
    H            2.870918157922     0.969894909707     0.753623599226
    H            3.119732289656    -0.556341746336     1.557779109582
    C            0.873127204666    -0.792716041884    -0.068782510557
    H            2.459128327251    -0.237780281908    -1.392668694120
    H            2.706490794543    -1.756555860437    -0.574526542691
    C            0.146048670428     0.538418900350    -0.157431425170
    H            0.349305590786    -1.468292654312    -0.740279816176
    H            0.736162567991    -1.204212172372     0.926864712708
    C           -1.206097993613     0.642423384920     0.521316117079
    O            0.598475181955     1.459309247203    -0.757886857745
    C           -2.290380444121    -0.201933490624    -0.158006067693
    H           -1.488181012233     1.686547838775     0.507901031684
    H           -1.104436471574     0.333667623553     1.557773811677
    C           -3.663740033565    -0.008934080311     0.479201548958
    H           -2.341218253987     0.064867667559    -1.209783424426
    H           -2.024645415093    -1.253529865362    -0.116169501473
    C           -4.751831112166    -0.841368236266    -0.190174736271
    H           -3.933664587683     1.041864823480     0.434611183695
    H           -3.608966578765    -0.266041169017     1.533417430614
    H           -4.852052132799    -0.583400753143    -1.238971348152
    H           -4.527302615198    -1.901121780581    -0.130874704102
    H           -5.713357435813    -0.680584447965     0.282984198570

  Mulliken Charges: (a.u.)
   Center  Symbol    Alpha    Beta     Spin     Total
       1     H     0.44867  0.44867  0.00000  0.10266
       2     C     3.15192  3.15192  0.00000 -0.30385
       3     C     3.08425  3.08425  0.00000 -0.16851
       4     H     0.45181  0.45181  0.00000  0.09638
       5     H     0.45688  0.45688  0.00000  0.08624
       6     C     3.08713  3.08713  0.00000 -0.17425
       7     H     0.44575  0.44575  0.00000  0.10850
       8     H     0.45856  0.45856  0.00000  0.08289
       9     C     3.13012  3.13012  0.00000 -0.26025
      10     H     0.44420  0.44420  0.00000  0.11159
      11     H     0.44777  0.44777  0.00000  0.10447
      12     C     2.86503  2.86503  0.00000  0.26993
      13     H     0.43415  0.43415  0.00000  0.13169
      14     H     0.44304  0.44304  0.00000  0.11391
      15     C     3.09230  3.09230  0.00000 -0.18460
      16     O     4.17885  4.17885  0.00000 -0.35770
      17     C     3.10078  3.10078  0.00000 -0.20156
      18     H     0.43813  0.43813  0.00000  0.12374
      19     H     0.44916  0.44916  0.00000  0.10168
      20     C     3.08726  3.08726  0.00000 -0.17453
      21     H     0.44512  0.44512  0.00000  0.10976
      22     H     0.45086  0.45086  0.00000  0.09827
      23     C     3.14921  3.14921  0.00000 -0.29843
      24     H     0.44991  0.44991  0.00000  0.10018
      25     H     0.45371  0.45371  0.00000  0.09259
      26     H     0.45331  0.45331  0.00000  0.09338
      27     H     0.45523  0.45523  0.00000  0.08954
      28     H     0.44686  0.44686  0.00000  0.10627

   Total alpha = 40.00000, Total beta = 40.00000, Total charge = -0.00000

*** Psi4 exiting successfully. Buy a developer a beer!
