                              Psi4 1.0.54 Driver

  ==> Input File <==

--------------------------------------------------------------------------
set {
	reference rhf
	basis cc-pvtz
}

set_num_threads( 4 )
memory 2 gb

molecule MOL {
0 1

O	 -0.664761	 -0.087640	 -0.112121
C	 0.485107	 0.171416	 -0.000134
C	 1.606966	 -0.836201	 0.000174
O	 0.943685	 1.402730	 0.141842
C	 2.988788	 -0.202529	 -0.000115
H	 1.465110	 -1.474645	 -0.864821
H	 1.465209	 -1.474077	 0.865596
H	 3.131767	 0.419673	 -0.873407
H	 3.750876	 -0.972315	 0.000098
H	 3.131883	 0.420264	 0.872742
C	 -0.000699	 2.463913	 0.159669
C	 0.761101	 3.757053	 0.332688
H	 -0.697791	 2.302510	 0.969829
H	 -0.560701	 2.453786	 -0.764787
H	 1.318575	 3.755231	 1.260908
H	 0.068159	 4.589965	 0.350606
H	 1.456397	 3.907419	 -0.483599

	symmetry c1
}
set optking {
	frozen_dihedral = ("
		4 2 3 6
	")
}

ee,wfn = optimize('scf', return_wfn=True)
oeprop( wfn, 'DIPOLE', 'QUADRUPOLE', 'MULLIKEN_CHARGES')
f=open( 'psi4out.xyz', 'w' )
f.write( "17  " )
f.write( str(ee) + "\n" )
f.write( MOL.save_string_xyz() )
f.close()
--------------------------------------------------------------------------

    Molecular point group: c1
  Charge       = 0
  Multiplicity = 1
  Basis Set: CC-PVTZ
  Basis Set:
  @DF-RHF Final Energy:  -345.03664683454468
    Total Energy =                       -345.0366468345447402
    Molecular point group: c1
  Basis Set: CC-PVTZ
  Basis Set:
  Basis Set: CC-PVTZ
  Basis Set:
  @DF-RHF Final Energy:  -345.03469734750240
    Total Energy =                       -345.0346973475020604
  Basis Set: CC-PVTZ
  Basis Set:
  Basis Set: CC-PVTZ
  Basis Set:
  @DF-RHF Final Energy:  -345.03794482315811
    Total Energy =                       -345.0379448231583410
  Basis Set: CC-PVTZ
  Basis Set:
  Basis Set: CC-PVTZ
  Basis Set:
  @DF-RHF Final Energy:  -345.03800635921164
    Total Energy =                       -345.0380063592111810
  Basis Set: CC-PVTZ
  Basis Set:
  Basis Set: CC-PVTZ
  Basis Set:
  @DF-RHF Final Energy:  -345.03791878593705
    Total Energy =                       -345.0379187859374497
  Basis Set: CC-PVTZ
  Basis Set:
  Basis Set: CC-PVTZ
  Basis Set:
  @DF-RHF Final Energy:  -345.03801763645998
    Total Energy =                       -345.0380176364598128
  Basis Set: CC-PVTZ
  Basis Set:
  Charge       = 0
  Multiplicity = 1
  Basis Set: CC-PVTZ
  Basis Set:

    Orbital Energies (a.u.)
    -----------------------

    Doubly Occupied:

       1A    -20.596545     2A    -20.527819     3A    -11.363866
       4A    -11.283520     5A    -11.236141     6A    -11.221282
       7A    -11.218476     8A     -1.471627     9A     -1.362946
      10A     -1.072808    11A     -1.031285    12A     -0.906123
      13A     -0.862060    14A     -0.780482    15A     -0.693211
      16A     -0.680558    17A     -0.674649    18A     -0.630827
      19A     -0.575762    20A     -0.573601    21A     -0.554681
      22A     -0.550934    23A     -0.523161    24A     -0.515299
      25A     -0.508101    26A     -0.491449    27A     -0.453478
      28A     -0.433872

  @DF-RHF Final Energy:  -345.03801787320265

   => Energetics <=

    Nuclear Repulsion Energy =            318.0830366571863124
    One-Electron Energy =               -1100.6529838035419289
    Two-Electron Energy =                 437.5319292731526275
    DFT Exchange-Correlation Energy =       0.0000000000000000
    Empirical Dispersion Energy =           0.0000000000000000
    PCM Polarization Energy =               0.0000000000000000
    EFP Energy =                            0.0000000000000000
    Total Energy =                       -345.0380178732029890
    Molecular point group: c1
  Basis Set: CC-PVTZ
  Basis Set:

  -Total Gradient:
     Atom            X                  Y                   Z
    ------   -----------------  -----------------  -----------------
       1        0.000000467019     0.000007316022     0.000004988816
       2        0.000034375360    -0.000046526088     0.000190349786
       3       -0.000122011599    -0.000124932767     0.000103437180
       4       -0.000034221823     0.000082575367    -0.000167724212
       5       -0.000002251102     0.000003155126    -0.000001031324
       6        0.000093106620     0.000119235978    -0.000126254082
       7        0.000001614384    -0.000006567131    -0.000000758493
       8        0.000002054196    -0.000001159843     0.000005272490
       9       -0.000001150898     0.000002811751    -0.000000651832
      10       -0.000003207843    -0.000006292764    -0.000006863908
      11        0.000007806710    -0.000019995281    -0.000002900607
      12        0.000013851142    -0.000000698097    -0.000001798372
      13        0.000002177627    -0.000003283452    -0.000003005713
      14        0.000004672880    -0.000004708377     0.000004511235
      15        0.000001248624     0.000005411789    -0.000000534239
      16        0.000001065870    -0.000009642631     0.000000656112
      17        0.000000402828     0.000003300394     0.000002307164

  **** Optimization is complete! (in 7 steps) ****
    Final optimized geometry and variables:
    Molecular point group: c1

    Geometry (in Angstrom), charge = 0, multiplicity = 1:

    O           -1.446620960052    -1.154018044100     0.083634275436
    C           -0.318696613805    -0.795552196201     0.022521889434
    C            0.844078244975    -1.759693966663    -0.052099562291
    O            0.038615833772     0.473465778888     0.020884040517
    C            2.227796246479    -1.157772470819    -0.254901945845
    H            0.602104438274    -2.453032311794    -0.848151219505
    H            0.806653654936    -2.337102140067     0.864905155535
    H            2.282968830247    -0.593601755510    -1.176812431886
    H            2.966332000225    -1.948953576590    -0.300280541815
    H            2.494611299429    -0.493446220519     0.555883433360
    C           -0.991195444274     1.450236223631     0.098774871166
    C           -0.338199569179     2.812412118536     0.080586756094
    H           -1.557612672861     1.292374213227     1.005445326343
    H           -1.663273070858     1.319763360647    -0.737310250211
    H            0.333094747947     2.930485938479     0.921909450517
    H           -1.098632892991     3.582168295753     0.138630344091
    H            0.227078137115     2.957855731520    -0.831378872002

  Mulliken Charges: (a.u.)
   Center  Symbol    Alpha    Beta     Spin     Total
       1     O     4.20524  4.20524  0.00000 -0.41048
       2     C     2.81075  2.81075  0.00000  0.37850
       3     C     3.09091  3.09091  0.00000 -0.18181
       4     O     4.14605  4.14605  0.00000 -0.29209
       5     C     3.14047  3.14047  0.00000 -0.28093
       6     H     0.43816  0.43816  0.00000  0.12368
       7     H     0.44057  0.44057  0.00000  0.11886
       8     H     0.45084  0.45084  0.00000  0.09832
       9     H     0.44927  0.44927  0.00000  0.10146
      10     H     0.44990  0.44990  0.00000  0.10020
      11     C     2.98117  2.98117  0.00000  0.03765
      12     C     3.13344  3.13344  0.00000 -0.26689
      13     H     0.45331  0.45331  0.00000  0.09338
      14     H     0.45331  0.45331  0.00000  0.09338
      15     H     0.45148  0.45148  0.00000  0.09705
      16     H     0.45378  0.45378  0.00000  0.09245
      17     H     0.45136  0.45136  0.00000  0.09728

   Total alpha = 28.00000, Total beta = 28.00000, Total charge =  0.00000

*** Psi4 exiting successfully. Buy a developer a beer!
