  ==> Input File <==

--------------------------------------------------------------------------
set {
	reference rhf
	basis 6-31G*
}

set_num_threads( 1 )
memory 2 gb

molecule MOL {
0 1

H	 -3.148898	 -0.084799	 -2.679443
O	 -2.866716	 -0.398034	 -1.831999
C	 -1.597541	 0.124437	 -1.533989
C	 -1.177863	 -0.397191	 -0.171080
H	 -0.872207	 -0.177417	 -2.288365
H	 -1.624031	 1.213265	 -1.524429
C	 0.198102	 0.111031	 0.262842
H	 -1.182442	 -1.483281	 -0.204468
H	 -1.931868	 -0.104055	 0.554196
C	 1.331804	 -0.827780	 -0.158768
H	 0.361943	 1.100838	 -0.156218
H	 0.217265	 0.229072	 1.345532
C	 2.723619	 -0.410569	 0.329459
H	 1.342964	 -0.912588	 -1.244120
H	 1.116806	 -1.824343	 0.220779
C	 3.243875	 0.895854	 -0.272975
H	 3.424222	 -1.207124	 0.091250
H	 2.714788	 -0.329854	 1.414619
H	 3.251977	 0.848779	 -1.358681
H	 2.637085	 1.747371	 0.016682
H	 4.259473	 1.094070	 0.055697

	symmetry c1
}
set optking {
	frozen_dihedral = ("
		2 3 4 8,
		4 7 10 14,
		16 13 10 14,
		1 2 3 5
	")
}

ee = energy('scf')
oeprop('DIPOLE', 'QUADRUPOLE', 'MULLIKEN_CHARGES')
f=open( 'psi4out.xyz', 'w' )
f.write( "21  " )
f.write( str(ee) + "\n" )
f.write( MOL.save_string_xyz() )
f.close()
--------------------------------------------------------------------------

    Molecular point group: c1

    Geometry (in Angstrom), charge = 0, multiplicity = 1:

       Center              X                  Y                   Z               Mass
    ------------   -----------------  -----------------  -----------------  -----------------
           H         -3.359083118187     0.035727968143    -2.154110273178     1.007825032070
           O         -3.076901118187    -0.277507031857    -1.306666273178    15.994914619560
           C         -1.807726118187     0.244963968143    -1.008656273178    12.000000000000
           C         -1.388048118187    -0.276664031857     0.354252726822    12.000000000000
           H         -1.082392118187    -0.056890031857    -1.763032273178     1.007825032070
           H         -1.834216118187     1.333791968143    -0.999096273178     1.007825032070
           C         -0.012083118187     0.231557968143     0.788174726822    12.000000000000
           H         -1.392627118187    -1.362754031857     0.320864726822     1.007825032070
           H         -2.142053118187     0.016471968143     1.079528726822     1.007825032070
           C          1.121618881813    -0.707253031857     0.366564726822    12.000000000000
           H          0.151757881813     1.221364968143     0.369114726822     1.007825032070
           H          0.007079881813     0.349598968143     1.870864726822     1.007825032070
           C          2.513433881813    -0.290042031857     0.854791726822    12.000000000000
           H          1.132778881813    -0.792061031857    -0.718787273178     1.007825032070
           H          0.906620881813    -1.703816031857     0.746111726822     1.007825032070
           C          3.033689881813     1.016380968143     0.252357726822    12.000000000000
           H          3.214036881813    -1.086597031857     0.616582726822     1.007825032070
           H          2.504602881813    -0.209327031857     1.939951726822     1.007825032070
           H          3.041791881813     0.969305968143    -0.833348273178     1.007825032070
           H          2.426899881813     1.867897968143     0.542014726822     1.007825032070
           H          4.049287881813     1.214596968143     0.581029726822     1.007825032070

  Charge       = 0
  Multiplicity = 1
  Basis Set: 6-31G*
  Basis Set:

    Orbital Energies (a.u.)
    -----------------------

    Doubly Occupied:

       1A    -20.551801     2A    -11.267136     3A    -11.215532
       4A    -11.215018     5A    -11.213993     6A    -11.209721
       7A    -11.209006     8A     -1.358623     9A     -1.087371
      10A     -1.032918    11A     -0.952643    12A     -0.879107
      13A     -0.810619    14A     -0.776071    15A     -0.694270
      16A     -0.648440    17A     -0.633224    18A     -0.608488
      19A     -0.589114    20A     -0.560125    21A     -0.544296
      22A     -0.520968    23A     -0.510236    24A     -0.494408
      25A     -0.475395    26A     -0.457694    27A     -0.455569
      28A     -0.445589    29A     -0.430750

  @DF-RHF Final Energy:  -310.20947725434951

   => Energetics <=

    Nuclear Repulsion Energy =            316.1365430545622530
    One-Electron Energy =               -1046.9958528683621353
    Two-Electron Energy =                 420.6498325594507151
    DFT Exchange-Correlation Energy =       0.0000000000000000
    Empirical Dispersion Energy =           0.0000000000000000
    PCM Polarization Energy =               0.0000000000000000
    EFP Energy =                            0.0000000000000000
    Total Energy =                       -310.2094772543491672

  Mulliken Charges: (a.u.)
   Center  Symbol    Alpha    Beta     Spin     Total
       1     H     0.28128  0.28128  0.00000  0.43743
       2     O     4.37162  4.37162  0.00000 -0.74325
       3     C     2.99167  2.99167  0.00000  0.01666
       4     C     3.16098  3.16098  0.00000 -0.32197
       5     H     0.43244  0.43244  0.00000  0.13513
       6     H     0.43244  0.43244  0.00000  0.13512
       7     C     3.16535  3.16535  0.00000 -0.33070
       8     H     0.41367  0.41367  0.00000  0.17266
       9     H     0.41246  0.41246  0.00000  0.17507
      10     C     3.15324  3.15324  0.00000 -0.30649
      11     H     0.42162  0.42162  0.00000  0.15677
      12     H     0.41869  0.41869  0.00000  0.16262
      13     C     3.15236  3.15236  0.00000 -0.30473
      14     H     0.42481  0.42481  0.00000  0.15038
      15     H     0.42008  0.42008  0.00000  0.15984
      16     C     3.24132  3.24132  0.00000 -0.48264
      17     H     0.42085  0.42085  0.00000  0.15829
      18     H     0.42296  0.42296  0.00000  0.15408
      19     H     0.42292  0.42292  0.00000  0.15415
      20     H     0.42026  0.42026  0.00000  0.15949
      21     H     0.41895  0.41895  0.00000  0.16210

   Total alpha = 29.00000, Total beta = 29.00000, Total charge = -0.00000
