  ==> Input File <==

--------------------------------------------------------------------------
set {
	reference rhf
	basis 6-31G*
}

set_num_threads( 1 )
memory 2 gb

molecule MOL {
0 1

H	 2.591676	 2.013956	 0.335017
O	 3.341076	 1.666752	 -0.126416
C	 3.569581	 0.339145	 0.272707
C	 2.539767	 -0.640285	 -0.279495
H	 4.553106	 0.084646	 -0.100901
H	 3.608576	 0.269204	 1.359154
C	 2.268161	 -0.479143	 -1.777203
H	 2.882825	 -1.651666	 -0.077539
H	 1.611664	 -0.503784	 0.273098
C	 1.191229	 -1.439619	 -2.289571
H	 3.190948	 -0.642074	 -2.327007
H	 1.958516	 0.546046	 -1.980794
C	 0.819510	 -1.261703	 -3.766226
H	 1.516417	 -2.464705	 -2.121351
H	 0.293490	 -1.304638	 -1.689950
C	 1.933237	 -1.609881	 -4.757620
H	 -0.043141	 -1.889536	 -3.979476
H	 0.494856	 -0.235898	 -3.934039
C	 1.482352	 -1.518267	 -6.216985
H	 2.291069	 -2.618524	 -4.555861
H	 2.784614	 -0.949574	 -4.611149
C	 2.593980	 -1.859101	 -7.208841
H	 0.639612	 -2.187591	 -6.375990
H	 1.115408	 -0.513823	 -6.417807
H	 2.960207	 -2.870257	 -7.055007
H	 2.242998	 -1.787088	 -8.233664
H	 3.437650	 -1.183229	 -7.100300

	symmetry c1
}
set optking {
	frozen_dihedral = ("
		14 10 7 4,
		14 10 13 16,
		10 7 4 8,
		10 13 16 20,
		20 16 19 22,
		4 3 2 1
	")
}

ee = energy('scf')
oeprop('DIPOLE', 'QUADRUPOLE', 'MULLIKEN_CHARGES')
f=open( 'psi4out.xyz', 'w' )
f.write( "27  " )
f.write( str(ee) + "\n" )
f.write( MOL.save_string_xyz() )
f.close()
--------------------------------------------------------------------------

    Molecular point group: c1

    Geometry (in Angstrom), charge = 0, multiplicity = 1:

       Center              X                  Y                   Z               Mass
    ------------   -----------------  -----------------  -----------------  -----------------
           H          0.373662433662     2.728557441713     3.203966078640     1.007825032070
           O          1.123062433662     2.381353441713     2.742533078640    15.994914619560
           C          1.351567433662     1.053746441713     3.141656078640    12.000000000000
           C          0.321753433662     0.074316441713     2.589454078640    12.000000000000
           H          2.335092433662     0.799247441713     2.768048078640     1.007825032070
           H          1.390562433662     0.983805441713     4.228103078640     1.007825032070
           C          0.050147433662     0.235458441713     1.091746078640    12.000000000000
           H          0.664811433662    -0.937064558287     2.791410078640     1.007825032070
           H         -0.606349566338     0.210817441713     3.142047078640     1.007825032070
           C         -1.026784566338    -0.725017558287     0.579378078640    12.000000000000
           H          0.972934433662     0.072527441713     0.541942078640     1.007825032070
           H         -0.259497566338     1.260647441713     0.888155078640     1.007825032070
           C         -1.398503566338    -0.547101558287    -0.897276921360    12.000000000000
           H         -0.701596566338    -1.750103558287     0.747598078640     1.007825032070
           H         -1.924523566338    -0.590036558287     1.178999078640     1.007825032070
           C         -0.284776566338    -0.895279558287    -1.888670921360    12.000000000000
           H         -2.261154566338    -1.174934558287    -1.110526921360     1.007825032070
           H         -1.723157566338     0.478703441713    -1.065089921360     1.007825032070
           C         -0.735661566338    -0.803665558287    -3.348035921360    12.000000000000
           H          0.073055433662    -1.903922558287    -1.686911921360     1.007825032070
           H          0.566600433662    -0.234972558287    -1.742199921360     1.007825032070
           C          0.375966433662    -1.144499558287    -4.339891921360    12.000000000000
           H         -1.578401566338    -1.472989558287    -3.507040921360     1.007825032070
           H         -1.102605566338     0.200778441713    -3.548857921360     1.007825032070
           H          0.742193433662    -2.155655558287    -4.186057921360     1.007825032070
           H          0.024984433662    -1.072486558287    -5.364714921360     1.007825032070
           H          1.219636433662    -0.468627558287    -4.231350921360     1.007825032070

  Charge       = 0
  Multiplicity = 1
  Basis Set: 6-31G*
  Basis Set:

    Orbital Energies (a.u.)
    -----------------------

    Doubly Occupied:

       1A    -20.553939     2A    -11.267789     3A    -11.215545
       4A    -11.212188     5A    -11.211516     6A    -11.210814
       7A    -11.209524     8A    -11.209220     9A    -11.206080
      10A     -1.360728    11A     -1.089838    12A     -1.057354
      13A     -1.008753    14A     -0.944786    15A     -0.883182
      16A     -0.818789    17A     -0.799226    18A     -0.773037
      19A     -0.683289    20A     -0.650835    21A     -0.639295
      22A     -0.609447    23A     -0.604859    24A     -0.584018
      25A     -0.569542    26A     -0.555330    27A     -0.538349
      28A     -0.516659    29A     -0.508269    30A     -0.491704
      31A     -0.478057    32A     -0.465695    33A     -0.463953
      34A     -0.455530    35A     -0.453586    36A     -0.438220
      37A     -0.421117

  @DF-RHF Final Energy:  -388.28112827505169

   => Energetics <=

    Nuclear Repulsion Energy =            459.4709064413723922
    One-Electron Energy =               -1437.1834645171716147
    Two-Electron Energy =                 589.4314298007495836
    DFT Exchange-Correlation Energy =       0.0000000000000000
    Empirical Dispersion Energy =           0.0000000000000000
    PCM Polarization Energy =               0.0000000000000000
    EFP Energy =                            0.0000000000000000
    Total Energy =                       -388.2811282750496957

  Mulliken Charges: (a.u.)
   Center  Symbol    Alpha    Beta     Spin     Total
       1     H     0.28296  0.28296  0.00000  0.43408
       2     O     4.36774  4.36774  0.00000 -0.73548
       3     C     2.99661  2.99661  0.00000  0.00677
       4     C     3.17027  3.17027  0.00000 -0.34053
       5     H     0.41672  0.41672  0.00000  0.16655
       6     H     0.42810  0.42810  0.00000  0.14380
       7     C     3.15119  3.15119  0.00000 -0.30239
       8     H     0.42164  0.42164  0.00000  0.15672
       9     H     0.42815  0.42815  0.00000  0.14369
      10     C     3.15291  3.15291  0.00000 -0.30582
      11     H     0.42100  0.42100  0.00000  0.15800
      12     H     0.41423  0.41423  0.00000  0.17154
      13     C     3.15265  3.15265  0.00000 -0.30530
      14     H     0.42559  0.42559  0.00000  0.14881
      15     H     0.42409  0.42409  0.00000  0.15182
      16     C     3.15292  3.15292  0.00000 -0.30584
      17     H     0.42280  0.42280  0.00000  0.15440
      18     H     0.42373  0.42373  0.00000  0.15254
      19     C     3.15107  3.15107  0.00000 -0.30213
      20     H     0.42536  0.42536  0.00000  0.14928
      21     H     0.42065  0.42065  0.00000  0.15869
      22     C     3.23918  3.23918  0.00000 -0.47835
      23     H     0.42378  0.42378  0.00000  0.15243
      24     H     0.42296  0.42296  0.00000  0.15408
      25     H     0.42229  0.42229  0.00000  0.15542
      26     H     0.41985  0.41985  0.00000  0.16030
      27     H     0.42156  0.42156  0.00000  0.15689

   Total alpha = 37.00000, Total beta = 37.00000, Total charge = -0.00000
