  ==> Input File <==

--------------------------------------------------------------------------
set {
	reference rhf
	basis 6-31G*
}

set_num_threads( 4 )
memory 2 gb

molecule MOL {
0 1

H	 2.465338	 -2.224223	 0.000000
O	 2.784187	 -1.332015	 0.000000
C	 1.765313	 -0.449364	 0.000000
C	 2.079711	 0.888926	 0.214656
C	 0.452509	 -0.828613	 -0.202112
H	 3.107502	 1.158389	 0.369230
C	 1.080759	 1.840256	 0.226109
H	 0.181782	 -1.852385	 -0.369809
C	 -0.525603	 0.152610	 -0.184269
H	 1.332410	 2.871189	 0.392558
C	 -0.246235	 1.484343	 0.025469
N	 -1.912770	 -0.253974	 -0.398609
H	 -1.032113	 2.210817	 0.031555
O	 -2.128571	 -1.414666	 -0.578213
O	 -2.748474	 0.596660	 -0.381729

	symmetry c1
}
set optking {
	frozen_dihedral = ("
		4 3 2 1
	")
}

ee = optimize('scf')
oeprop('DIPOLE', 'QUADRUPOLE', 'MULLIKEN_CHARGES')
f=open( 'psi4out.xyz', 'w' )
f.write( "15  " )
f.write( str(ee) + "\n" )
f.write( MOL.save_string_xyz() )
f.close()
--------------------------------------------------------------------------

    Molecular point group: c1
  Charge       = 0
  Multiplicity = 1
  Basis Set: 6-31G*
  Basis Set:
  @DF-RHF Final Energy:  -509.02761195759393
    Total Energy =                       -509.0276119575937628
    Molecular point group: c1
  Basis Set: 6-31G*
  Basis Set:
  Basis Set: 6-31G*
  Basis Set:
  @DF-RHF Final Energy:  -509.02760213924392
    Total Energy =                       -509.0276021392443226
  Basis Set: 6-31G*
  Basis Set:
  Basis Set: 6-31G*
  Basis Set:
  @DF-RHF Final Energy:  -509.02710357247196
    Total Energy =                       -509.0271035724725834
  Basis Set: 6-31G*
  Basis Set:
  Basis Set: 6-31G*
  Basis Set:
  @DF-RHF Final Energy:  -509.02761528570829
    Total Energy =                       -509.0276152857079524
  Basis Set: 6-31G*
  Basis Set:
  Charge       = 0
  Multiplicity = 1
  Basis Set: 6-31G*
  Basis Set:

    Orbital Energies (a.u.)
    -----------------------

    Doubly Occupied:

       1A    -20.615288     2A    -20.605167     3A    -20.604635
       4A    -15.859547     5A    -11.330278     6A    -11.311125
       7A    -11.267309     8A    -11.266809     9A    -11.263830
      10A    -11.260873    11A     -1.638334    12A     -1.435910
      13A     -1.421655    14A     -1.200561    15A     -1.095029
      16A     -1.046480    17A     -0.966154    18A     -0.878408
      19A     -0.828674    20A     -0.791202    21A     -0.751699
      22A     -0.737263    23A     -0.724070    24A     -0.707859
      25A     -0.673290    26A     -0.635341    27A     -0.617684
      28A     -0.592087    29A     -0.558487    30A     -0.544887
      31A     -0.515239    32A     -0.492204    33A     -0.490144
      34A     -0.455026    35A     -0.377434    36A     -0.343351

  @DF-RHF Final Energy:  -509.02761673420611

   => Energetics <=

    Nuclear Repulsion Energy =            503.4777081337437608
    One-Electron Energy =               -1693.2039792547907382
    Two-Electron Energy =                 680.6986543868405306
    DFT Exchange-Correlation Energy =       0.0000000000000000
    Empirical Dispersion Energy =           0.0000000000000000
    PCM Polarization Energy =               0.0000000000000000
    EFP Energy =                            0.0000000000000000
    Total Energy =                       -509.0276167342063900
    Molecular point group: c1
  Basis Set: 6-31G*
  Basis Set:

  -Total Gradient:
     Atom            X                  Y                   Z
    ------   -----------------  -----------------  -----------------
       1        0.000012383641    -0.000017643665     0.001031128681
       2       -0.000082831759    -0.000014852247    -0.000939675051
       3        0.000127407238     0.000076856969    -0.000820275394
       4       -0.000093021626    -0.000045179184     0.000720817804
       5        0.000026880076    -0.000001644218    -0.000034716516
       6       -0.000003930446    -0.000002016832    -0.000015080549
       7        0.000020755457    -0.000013940960     0.000028475940
       8       -0.000010907764    -0.000010680771     0.000030012556
       9       -0.000006316156     0.000040598067    -0.000019228568
      10       -0.000004942993     0.000002207237     0.000002448633
      11       -0.000031603803    -0.000032349967     0.000019760622
      12       -0.000063515033    -0.000006054098    -0.000000029187
      13       -0.000003566548     0.000007871179    -0.000011346559
      14        0.000064431708    -0.000034099843     0.000001506344
      15        0.000048778028     0.000050928334     0.000006201244

  **** Optimization is complete! (in 5 steps) ****
    Final optimized geometry and variables:
    Molecular point group: c1

    Geometry (in Angstrom), charge = 0, multiplicity = 1:

    H            2.456977357421    -2.233704691699     0.135495220850
    O            2.776176777661    -1.341650500259     0.137206338751
    C            1.757214130427    -0.458277469937     0.140438733646
    C            2.071155409442     0.879491545892     0.357726587445
    C            0.444600737155    -0.837652189022    -0.062570684839
    H            3.098532407558     1.148489603593     0.516230096785
    C            1.072584093470     1.831459572239     0.365389276653
    H            0.174800215882    -1.861103694888    -0.233630590620
    C           -0.533599762667     0.143244244857    -0.043807638279
    H            1.323947712968     2.862276736206     0.532992482261
    C           -0.254221720135     1.475368106956     0.164405840712
    N           -1.920783915351    -0.263493435489    -0.256713627661
    H           -1.040157889523     2.201744876459     0.170011977304
    O           -2.137803566600    -1.425752434755    -0.424085558392
    O           -2.755113216987     0.588700365729    -0.250421384079

  Mulliken Charges: (a.u.)
   Center  Symbol    Alpha    Beta     Spin     Total
       1     H     0.26733  0.26733  0.00000  0.46533
       2     O     4.37610  4.37610  0.00000 -0.75219
       3     C     2.79203  2.79203  0.00000  0.41593
       4     C     3.10831  3.10831  0.00000 -0.21662
       5     C     3.13646  3.13646  0.00000 -0.27293
       6     H     0.38088  0.38088  0.00000  0.23824
       7     C     3.10071  3.10071  0.00000 -0.20143
       8     H     0.36768  0.36768  0.00000  0.26463
       9     C     2.91385  2.91385  0.00000  0.17230
      10     H     0.38656  0.38656  0.00000  0.22687
      11     C     3.09759  3.09759  0.00000 -0.19517
      12     N     3.24013  3.24013  0.00000  0.51975
      13     H     0.36516  0.36516  0.00000  0.26969
      14     O     4.23549  4.23549  0.00000 -0.47099
      15     O     4.23171  4.23171  0.00000 -0.46342

   Total alpha = 36.00000, Total beta = 36.00000, Total charge = -0.00000
