  ==> Input File <==

--------------------------------------------------------------------------
set {
	reference rhf
	basis 6-31G*
}

set_num_threads( 4 )
memory 2 gb

molecule MOL {
0 1

H	 1.363591	 -0.783371	 -2.977575
C	 1.371885	 -0.331568	 -1.989627
C	 0.059152	 -0.613547	 -1.265514
H	 1.514155	 0.737676	 -2.100267
H	 2.229070	 -0.728028	 -1.456160
N	 -0.000257	 -0.000071	 0.054619
H	 -0.747782	 -0.211851	 -1.865410
H	 -0.113674	 -1.692181	 -1.207509
C	 -1.363055	 0.315058	 0.462241
C	 0.718644	 -0.770869	 1.060457
C	 -2.412078	 -0.285320	 -0.468531
H	 -1.482241	 1.391144	 0.451970
H	 -1.549931	 -0.001174	 1.492681
C	 1.261332	 0.095541	 2.192740
H	 1.557309	 -1.259552	 0.580892
H	 0.092732	 -1.570991	 1.466445
H	 -2.262839	 0.075384	 -1.480151
H	 -2.369300	 -1.368867	 -0.491760
H	 -3.410332	 -0.003975	 -0.144961
H	 1.929136	 0.851988	 1.795927
H	 0.471881	 0.601459	 2.738053
H	 1.812338	 -0.513194	 2.904189

	symmetry c1
}
set optking {
	frozen_dihedral = ("
		3 6 9 11
	")
}

ee = optimize('scf')
oeprop('DIPOLE', 'QUADRUPOLE', 'MULLIKEN_CHARGES')
f=open( 'psi4out.xyz', 'w' )
f.write( "22  " )
f.write( str(ee) + "\n" )
f.write( MOL.save_string_xyz() )
f.close()
--------------------------------------------------------------------------

    Molecular point group: c1
  Charge       = 0
  Multiplicity = 1
  Basis Set: 6-31G*
  Basis Set:
  @DF-RHF Final Energy:  -290.35047755281306
    Total Energy =                       -290.3504775528128903
    Molecular point group: c1
  Basis Set: 6-31G*
  Basis Set:
  Basis Set: 6-31G*
  Basis Set:
  @DF-RHF Final Energy:  -290.34791168955496
    Total Energy =                       -290.3479116895551897
  Basis Set: 6-31G*
  Basis Set:
  Basis Set: 6-31G*
  Basis Set:
  @DF-RHF Final Energy:  -290.35916465263335
    Total Energy =                       -290.3591646526331829
  Basis Set: 6-31G*
  Basis Set:
  Basis Set: 6-31G*
  Basis Set:
  @DF-RHF Final Energy:  -290.36179071944542
    Total Energy =                       -290.3617907194454233
  Basis Set: 6-31G*
  Basis Set:
  @DF-RHF Final Energy:  -290.36209767852802
    Total Energy =                       -290.3620976785279595
  @DF-RHF Final Energy:  -290.36237794467701
    Total Energy =                       -290.3623779446768367
  Basis Set: 6-31G*
  Basis Set:
  @DF-RHF Final Energy:  -290.36240726005087
    Total Energy =                       -290.3624072600508725
  Basis Set: 6-31G*
  Basis Set:
  Basis Set: 6-31G*
  Basis Set:
  @DF-RHF Final Energy:  -290.36241389205219
    Total Energy =                       -290.3624138920520750
  Basis Set: 6-31G*
  Basis Set:
  Basis Set: 6-31G*
  Basis Set:
  @DF-RHF Final Energy:  -290.36241937604399
    Total Energy =                       -290.3624193760438175
  Basis Set: 6-31G*
  Basis Set:
  Charge       = 0
  Multiplicity = 1
  Basis Set: 6-31G*
  Basis Set:

    Orbital Energies (a.u.)
    -----------------------

    Doubly Occupied:

       1A    -15.532202     2A    -11.241482     3A    -11.239400
       4A    -11.238555     5A    -11.212215     6A    -11.203086
       7A    -11.203041     8A     -1.216540     9A     -1.023673
      10A     -1.021789    11A     -0.955310    12A     -0.857582
      13A     -0.843328    14A     -0.758572    15A     -0.654627
      16A     -0.642822    17A     -0.618106    18A     -0.595448
      19A     -0.584345    20A     -0.545581    21A     -0.537362
      22A     -0.516944    23A     -0.512348    24A     -0.502416
      25A     -0.493362    26A     -0.489266    27A     -0.466618
      28A     -0.457857    29A     -0.327801

  @DF-RHF Final Energy:  -290.36241978351961

   => Energetics <=

    Nuclear Repulsion Energy =            337.1797731362293007
    One-Electron Energy =               -1060.1010265587533468
    Two-Electron Energy =                 432.5588336390040354
    DFT Exchange-Correlation Energy =       0.0000000000000000
    Empirical Dispersion Energy =           0.0000000000000000
    PCM Polarization Energy =               0.0000000000000000
    EFP Energy =                            0.0000000000000000
    Total Energy =                       -290.3624197835200107
    Molecular point group: c1
  Basis Set: 6-31G*
  Basis Set:

  -Total Gradient:
     Atom            X                  Y                   Z
    ------   -----------------  -----------------  -----------------
       1        0.000005736179    -0.000000180884     0.000000004608
       2       -0.000000809048     0.000007622598    -0.000016545023
       3       -0.000087412798    -0.000622429876     0.000252393794
       4        0.000000527027     0.000000986572    -0.000002678357
       5       -0.000004049572    -0.000001002515    -0.000004393031
       6        0.000198448907     0.001189891100    -0.000525369238
       7        0.000008492430    -0.000007545145     0.000011766170
       8       -0.000006214364    -0.000005808071    -0.000004579453
       9       -0.000130979700    -0.001062021531     0.000635147188
      10       -0.000040071065    -0.000009509053    -0.000009656993
      11        0.000040816758     0.000525964563    -0.000332801666
      12        0.000008502727    -0.000003231880    -0.000009564023
      13       -0.000001879519    -0.000005728702    -0.000002634315
      14        0.000003821463     0.000004867505    -0.000000843175
      15       -0.000002003967     0.000009234914     0.000004727535
      16       -0.000003250391    -0.000012170840     0.000005156669
      17        0.000003665851    -0.000001800939     0.000007367690
      18        0.000002864057    -0.000002426854    -0.000004672030
      19       -0.000001716085    -0.000002645064    -0.000000525271
      20        0.000000724973     0.000001792295     0.000001442735
      21        0.000005950813    -0.000002916560    -0.000000418392
      22       -0.000001164677    -0.000000941633    -0.000003325424

  **** Optimization is complete! (in 10 steps) ****
    Final optimized geometry and variables:
    Molecular point group: c1

    Geometry (in Angstrom), charge = 0, multiplicity = 1:

    H            1.587972990370    -0.506307221640    -2.955472763555
    C            1.528399412978    -0.089385592577    -1.953678151293
    C            0.191405648489    -0.454045114273    -1.310173406049
    H            1.626719314810     0.988441965877    -2.021900374313
    H            2.376917763401    -0.466848344822    -1.393882148497
    N            0.033899835592     0.132108930828     0.010530070186
    H           -0.586859664818    -0.075302031182    -1.955598975230
    H            0.077598480570    -1.541816173802    -1.294037889094
    C           -1.311138781941     0.512808643974     0.456550744651
    C            0.799249962971    -0.543714652990     1.044045372259
    C           -2.499631755192     0.059791289117    -0.394465797006
    H           -1.363573643278     1.594372598103     0.559470178634
    H           -1.464642706079     0.110872865469     1.453550169748
    C            1.263510350461     0.400994270582     2.148944673126
    H            1.675427987211    -0.987820437550     0.589651974770
    H            0.230684803375    -1.370414168919     1.481397682444
    H           -2.533240886896     0.548579972634    -1.361006428473
    H           -2.499845657472    -1.013486300064    -0.554909220215
    H           -3.416864957896     0.317569911724     0.126535853963
    H            1.876672359420     1.192097117935     1.731050839853
    H            0.428474941230     0.863789521478     2.664454442314
    H            1.849376720999    -0.137262870428     2.888889221831

  Mulliken Charges: (a.u.)
   Center  Symbol    Alpha    Beta     Spin     Total
       1     H     0.42458  0.42458  0.00000  0.15084
       2     C     3.23453  3.23453  0.00000 -0.46905
       3     C     3.05268  3.05268  0.00000 -0.10536
       4     H     0.41630  0.41630  0.00000  0.16740
       5     H     0.42197  0.42197  0.00000  0.15606
       6     N     3.79907  3.79907  0.00000 -0.59814
       7     H     0.41716  0.41716  0.00000  0.16567
       8     H     0.43364  0.43364  0.00000  0.13273
       9     C     3.04084  3.04084  0.00000 -0.08168
      10     C     3.05677  3.05677  0.00000 -0.11355
      11     C     3.25590  3.25590  0.00000 -0.51179
      12     H     0.42065  0.42065  0.00000  0.15869
      13     H     0.42455  0.42455  0.00000  0.15091
      14     C     3.23574  3.23574  0.00000 -0.47149
      15     H     0.41922  0.41922  0.00000  0.16156
      16     H     0.43354  0.43354  0.00000  0.13293
      17     H     0.41710  0.41710  0.00000  0.16581
      18     H     0.41755  0.41755  0.00000  0.16491
      19     H     0.41717  0.41717  0.00000  0.16566
      20     H     0.41610  0.41610  0.00000  0.16780
      21     H     0.42073  0.42073  0.00000  0.15853
      22     H     0.42423  0.42423  0.00000  0.15154

   Total alpha = 29.00000, Total beta = 29.00000, Total charge =  0.00000
