  ==> Input File <==

--------------------------------------------------------------------------
set {
	reference rhf
	basis 6-31G*
}

set_num_threads( 4 )
memory 2 gb

molecule MOL {
0 1

O	 -2.821601	 1.309235	 -0.001213
C	 -2.668563	 0.129746	 -0.000350
C	 -3.801572	 -0.864014	 -0.000442
O	 -1.481751	 -0.454642	 0.000584
H	 -4.417280	 -0.689587	 -0.874708
H	 -3.443784	 -1.883046	 -0.000565
H	 -4.417179	 -0.689832	 0.873954
C	 -0.334255	 0.388708	 0.000906
C	 0.891947	 -0.504646	 0.000751
H	 -0.365390	 1.025305	 -0.873475
H	 -0.365484	 1.024911	 0.875569
C	 2.191998	 0.301789	 0.000897
H	 0.855148	 -1.151283	 -0.871571
H	 0.855132	 -1.151660	 0.872805
C	 3.441114	 -0.581407	 0.000108
H	 2.215074	 0.954890	 -0.869742
H	 2.215465	 0.953923	 0.872248
C	 3.118895	 -2.068170	 0.143561
H	 4.098741	 -0.274269	 0.810212
H	 3.995348	 -0.418953	 -0.921577
H	 2.593550	 -2.267759	 1.073180
H	 4.023643	 -2.667879	 0.139832
H	 2.489682	 -2.413607	 -0.671776

	symmetry c1
}
set optking {
	frozen_dihedral = ("
		19 15 12 16
	")
}

ee = optimize('scf')
oeprop('DIPOLE', 'QUADRUPOLE', 'MULLIKEN_CHARGES')
f=open( 'psi4out.xyz', 'w' )
f.write( "23  " )
f.write( str(ee) + "\n" )
f.write( MOL.save_string_xyz() )
f.close()
--------------------------------------------------------------------------

    Molecular point group: c1
  Charge       = 0
  Multiplicity = 1
  Basis Set: 6-31G*
  Basis Set:
  @DF-RHF Final Energy:  -422.96543410859329
    Total Energy =                       -422.9654341085933993
    Molecular point group: c1
  Basis Set: 6-31G*
  Basis Set:
  Basis Set: 6-31G*
  Basis Set:
  @DF-RHF Final Energy:  -422.96534784090233
    Total Energy =                       -422.9653478409023819
  Basis Set: 6-31G*
  Basis Set:
  Basis Set: 6-31G*
  Basis Set:
  @DF-RHF Final Energy:  -422.96917527823877
    Total Energy =                       -422.9691752782387084
  Basis Set: 6-31G*
  Basis Set:
  Basis Set: 6-31G*
  Basis Set:
  @DF-RHF Final Energy:  -422.96970609934630
    Total Energy =                       -422.9697060993460127
  Basis Set: 6-31G*
  Basis Set:
  @DF-RHF Final Energy:  -422.96974543794965
    Total Energy =                       -422.9697454379492001
  Basis Set: 6-31G*
  Basis Set:
  @DF-RHF Final Energy:  -422.96946834086447
    Total Energy =                       -422.9694683408644096
  Basis Set: 6-31G*
  Basis Set:
  Basis Set: 6-31G*
  Basis Set:
  @DF-RHF Final Energy:  -422.96977731426233
    Total Energy =                       -422.9697773142630695
  Basis Set: 6-31G*
  Basis Set:
  Basis Set: 6-31G*
  Basis Set:
  @DF-RHF Final Energy:  -422.96978084616461
    Total Energy =                       -422.9697808461653494
  Basis Set: 6-31G*
  Basis Set:
  Charge       = 0
  Multiplicity = 1
  Basis Set: 6-31G*
  Basis Set:

    Orbital Energies (a.u.)
    -----------------------

    Doubly Occupied:

       1A    -20.602845     2A    -20.540416     3A    -11.373979
       4A    -11.281203     5A    -11.232312     6A    -11.224699
       7A    -11.223530     8A    -11.222349     9A    -11.212907
      10A     -1.467814    11A     -1.360607    12A     -1.091149
      13A     -1.039109    14A     -1.001477    15A     -0.930887
      16A     -0.858607    17A     -0.788838    18A     -0.768158
      19A     -0.692073    20A     -0.684257    21A     -0.669744
      22A     -0.643888    23A     -0.605638    24A     -0.603752
      25A     -0.573841    26A     -0.566042    27A     -0.549815
      28A     -0.536494    29A     -0.530400    30A     -0.505146
      31A     -0.501324    32A     -0.471185    33A     -0.467170
      34A     -0.455824    35A     -0.451079    36A     -0.435244

  @DF-RHF Final Energy:  -422.96978024499589

   => Energetics <=

    Nuclear Repulsion Energy =            454.9180738615974064
    One-Electron Energy =               -1477.4481119864033190
    Two-Electron Energy =                 599.5602578798096829
    DFT Exchange-Correlation Energy =       0.0000000000000000
    Empirical Dispersion Energy =           0.0000000000000000
    PCM Polarization Energy =               0.0000000000000000
    EFP Energy =                            0.0000000000000000
    Total Energy =                       -422.9697802449962865
    Molecular point group: c1
  Basis Set: 6-31G*
  Basis Set:

  -Total Gradient:
     Atom            X                  Y                   Z
    ------   -----------------  -----------------  -----------------
       1        0.000005310167    -0.000006227327     0.000006526484
       2       -0.000009680440     0.000000021642    -0.000011255961
       3       -0.000001484792    -0.000000439188     0.000004595812
       4       -0.000001959350     0.000004879059     0.000012752507
       5        0.000003426801     0.000000897019     0.000000306657
       6       -0.000000565225    -0.000000200439     0.000000099008
       7       -0.000004815203    -0.000001516104     0.000000074673
       8        0.000006719898     0.000002439474    -0.000006627218
       9       -0.000012348098     0.000023419491    -0.000036767930
      10        0.000005410066    -0.000002673683     0.000006863421
      11       -0.000005178466     0.000009877776     0.000002038916
      12        0.000892144490     0.001460321817     0.001588985580
      13       -0.000031131838     0.000041121674     0.000005790636
      14        0.000028593241    -0.000031962498     0.000013368331
      15        0.000833991883     0.001280234676    -0.001740627702
      16       -0.000897878000    -0.001434869133    -0.001054468806
      17       -0.000018860994     0.000000759942    -0.000016171065
      18        0.000016720313    -0.000006855434    -0.000037304998
      19       -0.000815638856    -0.001342321699     0.001218483607
      20       -0.000012682478    -0.000006244091     0.000003472652
      21       -0.000045725962     0.000015547755     0.000010148920
      22        0.000007704347     0.000009019234     0.000020763695
      23        0.000057928506    -0.000015229963     0.000008952782

  **** Optimization is complete! (in 9 steps) ****
    Final optimized geometry and variables:
    Molecular point group: c1

    Geometry (in Angstrom), charge = 0, multiplicity = 1:

    O           -2.635040501270     1.620988936512    -0.013054347686
    C           -2.513919652058     0.437784345814    -0.018056553228
    C           -3.673547202891    -0.524806026895    -0.022990476073
    O           -1.343493511415    -0.178663376723    -0.019725870332
    H           -4.284476446514    -0.329051186151    -0.896084805623
    H           -3.343611462395    -1.553184171266    -0.028610027051
    H           -4.284026791794    -0.338603435302     0.852530680545
    C           -0.173253273784     0.633062789492    -0.015338748051
    C            1.027738106245    -0.294803576039    -0.016919609202
    H           -0.186425790432     1.273442577328    -0.887434045638
    H           -0.188478400664     1.266959400777     0.861486319042
    C            2.338027846551     0.501538726531    -0.013478661437
    H            0.968691056858    -0.933400795749    -0.892419270018
    H            0.964275743655    -0.941989419499     0.851340890510
    C            3.655211657102    -0.324387146993    -0.019143450633
    H            2.330512523494     1.148181994978    -0.886921662833
    H            2.335097303133     1.161302793852     0.849766399290
    C            3.524839967143    -1.843298090698     0.133206630126
    H            4.287770476242     0.029150194049     0.789331477658
    H            4.197476755142    -0.120921560125    -0.937111630262
    H            3.048177667780    -2.118023246287     1.068536361170
    H            4.510794383926    -2.297689567958     0.125675250802
    H            2.955206572298    -2.289848068929    -0.674648035055

  Mulliken Charges: (a.u.)
   Center  Symbol    Alpha    Beta     Spin     Total
       1     O     4.28396  4.28396  0.00000 -0.56793
       2     C     2.61537  2.61537  0.00000  0.76927
       3     C     3.28773  3.28773  0.00000 -0.57546
       4     O     4.31297  4.31297  0.00000 -0.62595
       5     H     0.39752  0.39752  0.00000  0.20495
       6     H     0.39989  0.39989  0.00000  0.20023
       7     H     0.39752  0.39752  0.00000  0.20495
       8     C     2.99502  2.99502  0.00000  0.00996
       9     C     3.16713  3.16713  0.00000 -0.33425
      10     H     0.41086  0.41086  0.00000  0.17828
      11     H     0.41082  0.41082  0.00000  0.17836
      12     C     3.16564  3.16564  0.00000 -0.33129
      13     H     0.41346  0.41346  0.00000  0.17308
      14     H     0.41282  0.41282  0.00000  0.17437
      15     C     3.15477  3.15477  0.00000 -0.30953
      16     H     0.41838  0.41838  0.00000  0.16325
      17     H     0.41832  0.41832  0.00000  0.16337
      18     C     3.24324  3.24324  0.00000 -0.48648
      19     H     0.41850  0.41850  0.00000  0.16301
      20     H     0.41849  0.41849  0.00000  0.16303
      21     H     0.42022  0.42022  0.00000  0.15957
      22     H     0.41771  0.41771  0.00000  0.16458
      23     H     0.41968  0.41968  0.00000  0.16064

   Total alpha = 36.00000, Total beta = 36.00000, Total charge =  0.00000
