  ==> Input File <==

--------------------------------------------------------------------------
set {
	reference rhf
	basis cc-pvtz
}

set_num_threads( 4 )
memory 2 gb

molecule MOL {
0 1

H	 2.867672	 -0.456275	 0.875795
C	 2.403497	 -0.020426	 0.000000
N	 0.989899	 -0.304564	 0.000000
H	 2.867672	 -0.456275	 -0.875795
H	 2.620366	 1.051270	 0.000000
C	 0.187629	 0.878615	 -0.232412
C	 0.561809	 -0.982946	 1.205863
H	 0.345803	 1.628596	 0.548775
H	 0.474879	 1.324167	 -1.177769
C	 -1.282844	 0.509821	 -0.276505
H	 1.123607	 -1.903283	 1.315816
H	 0.748127	 -0.372983	 2.095230
C	 -0.918278	 -1.303909	 1.124815
H	 -1.894300	 1.397617	 -0.357532
H	 -1.473734	 -0.120805	 -1.142513
O	 -1.672421	 -0.151751	 0.890413
H	 -1.266212	 -1.727147	 2.056716
H	 -1.090303	 -2.028391	 0.331321

	symmetry c1
}
set optking {
	frozen_dihedral = ("
		6 3 2 5
	")
}

ee = optimize('scf')
oeprop('DIPOLE', 'QUADRUPOLE', 'MULLIKEN_CHARGES')
f=open( 'psi4out.xyz', 'w' )
f.write( "18  " )
f.write( str(ee) + "\n" )
f.write( MOL.save_string_xyz() )
f.close()
--------------------------------------------------------------------------

    Molecular point group: c1
  Charge       = 0
  Multiplicity = 1
  Basis Set: CC-PVTZ
  Basis Set:
  @DF-RHF Final Energy:  -325.13936964720750
    Total Energy =                       -325.1393696472073884
    Molecular point group: c1
  Basis Set: CC-PVTZ
  Basis Set:
  Basis Set: CC-PVTZ
  Basis Set:
  @DF-RHF Final Energy:  -325.13979635739020
    Total Energy =                       -325.1397963573900824
  Basis Set: CC-PVTZ
  Basis Set:
  Basis Set: CC-PVTZ
  Basis Set:
  @DF-RHF Final Energy:  -325.13988973773786
    Total Energy =                       -325.1398897377376898
  Basis Set: CC-PVTZ
  Basis Set:
  Basis Set: CC-PVTZ
  Basis Set:
  @DF-RHF Final Energy:  -325.13989193567943
    Total Energy =                       -325.1398919356799411
  Basis Set: CC-PVTZ
  Basis Set:
  Charge       = 0
  Multiplicity = 1
  Basis Set: CC-PVTZ
  Basis Set:

    Orbital Energies (a.u.)
    -----------------------

    Doubly Occupied:

       1A    -20.546933     2A    -15.541517     3A    -11.263522
       4A    -11.263481     5A    -11.242378     6A    -11.242352
       7A    -11.238818     8A     -1.385860     9A     -1.229187
      10A     -1.038575    11A     -0.980888    12A     -0.883265
      13A     -0.870494    14A     -0.774066    15A     -0.684319
      16A     -0.645540    17A     -0.644029    18A     -0.631785
      19A     -0.627864    20A     -0.572399    21A     -0.558414
      22A     -0.547051    23A     -0.527216    24A     -0.499995
      25A     -0.484256    26A     -0.453256    27A     -0.409692
      28A     -0.350105

  @DF-RHF Final Energy:  -325.13989221914937

   => Energetics <=

    Nuclear Repulsion Energy =            341.3915882055389375
    One-Electron Energy =               -1118.7884446138543808
    Two-Electron Energy =                 452.2569641891660126
    DFT Exchange-Correlation Energy =       0.0000000000000000
    Empirical Dispersion Energy =           0.0000000000000000
    PCM Polarization Energy =               0.0000000000000000
    EFP Energy =                            0.0000000000000000
    Total Energy =                       -325.1398922191494307
    Molecular point group: c1
  Basis Set: CC-PVTZ
  Basis Set:

  -Total Gradient:
     Atom            X                  Y                   Z
    ------   -----------------  -----------------  -----------------
       1       -0.000009595226    -0.000009145035    -0.000005609863
       2        0.000073298072     0.000163327538     0.002390277045
       3        0.000025349407    -0.000345061489    -0.002027400806
       4       -0.000014538832    -0.000003957477     0.000001348348
       5       -0.000037617186    -0.000035977310    -0.001510846985
       6       -0.000024643362     0.000245832321     0.001134729580
       7       -0.000004117149     0.000000821738     0.000020272570
       8        0.000007610442    -0.000006466603    -0.000001533458
       9       -0.000003297717    -0.000006501436     0.000002371944
      10       -0.000001997694    -0.000010446588    -0.000011410824
      11       -0.000006263645     0.000004384498    -0.000004363641
      12       -0.000000186078    -0.000002083639    -0.000007803823
      13       -0.000009605004    -0.000005867192     0.000007438838
      14       -0.000006162044    -0.000000865115     0.000005235646
      15        0.000003095747     0.000004035906    -0.000004869829
      16        0.000010664252     0.000006617933     0.000007091198
      17       -0.000011272133    -0.000000053150     0.000002802135
      18        0.000009278150     0.000001405096     0.000002271925

  **** Optimization is complete! (in 5 steps) ****
    Final optimized geometry and variables:
    Molecular point group: c1

    Geometry (in Angstrom), charge = 0, multiplicity = 1:

    H            2.879987057941    -0.246087777834     0.462456123199
    C            2.383154518804     0.161631673905    -0.409873685832
    N            0.953652169302    -0.100470648798    -0.374056176626
    H            2.838218755846    -0.283400067433    -1.288281531520
    H            2.595374342014     1.226169623471    -0.438128328165
    C            0.146534331154     1.077446619376    -0.614332320975
    C            0.516676729372    -0.787231753597     0.824150177091
    H            0.291588973293     1.829847185144     0.166874715490
    H            0.437042343775     1.524673036693    -1.558071232929
    C           -1.321202503930     0.700241547778    -0.674605623751
    H            1.076898943668    -1.708351161419     0.933483074925
    H            0.689469144230    -0.185202183448     1.721576156395
    C           -0.960873347042    -1.115182514334     0.724527235839
    H           -1.936614508760     1.585122823742    -0.759664885449
    H           -1.499009066164     0.071278144659    -1.544712865020
    O           -1.719391421502     0.033057432244     0.485977149585
    H           -1.316915547614    -1.544729942167     1.650653326889
    H           -1.118694982104    -1.837419070923    -0.074104635720

  Mulliken Charges: (a.u.)
   Center  Symbol    Alpha    Beta     Spin     Total
       1     H     0.45874  0.45874  0.00000  0.08252
       2     C     3.08984  3.08984  0.00000 -0.17967
       3     N     3.61988  3.61988  0.00000 -0.23977
       4     H     0.44938  0.44938  0.00000  0.10124
       5     H     0.46141  0.46141  0.00000  0.07717
       6     C     3.04222  3.04222  0.00000 -0.08444
       7     C     3.04176  3.04176  0.00000 -0.08353
       8     H     0.46854  0.46854  0.00000  0.06292
       9     H     0.45349  0.45349  0.00000  0.09302
      10     C     2.98455  2.98455  0.00000  0.03089
      11     H     0.45360  0.45360  0.00000  0.09280
      12     H     0.46866  0.46866  0.00000  0.06268
      13     C     2.98456  2.98456  0.00000  0.03087
      14     H     0.45014  0.45014  0.00000  0.09973
      15     H     0.46833  0.46833  0.00000  0.06333
      16     O     4.18640  4.18640  0.00000 -0.37279
      17     H     0.45010  0.45010  0.00000  0.09980
      18     H     0.46838  0.46838  0.00000  0.06324

   Total alpha = 28.00000, Total beta = 28.00000, Total charge = -0.00000
