                              Psi4 1.0.54 Driver

  ==> Input File <==

--------------------------------------------------------------------------
set {
	reference rhf
	basis cc-pvtz
}

set_num_threads( 4 )
memory 2 gb

molecule MOL {
0 1

H	 2.190573	 -0.629143	 -0.208718
O	 1.355408	 -0.529451	 0.208662
C	 0.700177	 0.619554	 -0.266242
C	 -0.713111	 0.588314	 0.266177
H	 0.678680	 0.627133	 -1.351786
H	 1.199747	 1.521489	 0.077736
O	 -1.421673	 -0.521378	 -0.196983
H	 -1.244794	 1.469161	 -0.069059
H	 -0.685100	 0.604721	 1.352683
H	 -2.078668	 -0.225481	 -0.802646

	symmetry c1
}
set optking {
	frozen_dihedral = ("
		10 7 4 3
	")
}

ee,wfn = optimize('scf', return_wfn=True)
oeprop( wfn, 'DIPOLE', 'QUADRUPOLE', 'MULLIKEN_CHARGES')
f=open( 'psi4out.xyz', 'w' )
f.write( "10  " )
f.write( str(ee) + "\n" )
f.write( MOL.save_string_xyz() )
f.close()
--------------------------------------------------------------------------

    Molecular point group: c1
  Charge       = 0
  Multiplicity = 1
  Basis Set: CC-PVTZ
  Basis Set:
  @DF-RHF Final Energy:  -229.02049390367387
    Total Energy =                       -229.0204939036739233
    Molecular point group: c1
  Basis Set: CC-PVTZ
  Basis Set:
  Basis Set: CC-PVTZ
  Basis Set:
  @DF-RHF Final Energy:  -229.02154833443018
    Total Energy =                       -229.0215483344303493
  Basis Set: CC-PVTZ
  Basis Set:
  Basis Set: CC-PVTZ
  Basis Set:
  @DF-RHF Final Energy:  -229.02207106444286
    Total Energy =                       -229.0220710644428266
  Basis Set: CC-PVTZ
  Basis Set:
  Basis Set: CC-PVTZ
  Basis Set:
  @DF-RHF Final Energy:  -229.02209589365265
    Total Energy =                       -229.0220958936525051
  Basis Set: CC-PVTZ
  Basis Set:
  Basis Set: CC-PVTZ
  Basis Set:
  @DF-RHF Final Energy:  -229.02209882415661
    Total Energy =                       -229.0220988241565578
  Basis Set: CC-PVTZ
  Basis Set:
  Charge       = 0
  Multiplicity = 1
  Basis Set: CC-PVTZ
  Basis Set:

    Orbital Energies (a.u.)
    -----------------------

    Doubly Occupied:

       1A    -20.546704     2A    -20.545635     3A    -11.269067
       4A    -11.268358     5A     -1.375068     6A     -1.355736
       7A     -1.002934     8A     -0.837932     9A     -0.724914
      10A     -0.688958    11A     -0.645445    12A     -0.598226
      13A     -0.576761    14A     -0.521644    15A     -0.494997
      16A     -0.446725    17A     -0.433697

  @DF-RHF Final Energy:  -229.02209921331445

   => Energetics <=

    Nuclear Repulsion Energy =            133.2596452794903712
    One-Electron Energy =                -577.8978842878425439
    Two-Electron Energy =                 215.6161397950378955
    DFT Exchange-Correlation Energy =       0.0000000000000000
    Empirical Dispersion Energy =           0.0000000000000000
    PCM Polarization Energy =               0.0000000000000000
    EFP Energy =                            0.0000000000000000
    Total Energy =                       -229.0220992133142772
    Molecular point group: c1
  Basis Set: CC-PVTZ
  Basis Set:

  -Total Gradient:
     Atom            X                  Y                   Z
    ------   -----------------  -----------------  -----------------
       1       -0.000001589152     0.000022534205     0.000007933241
       2       -0.000060722653     0.000024913339    -0.000029877094
       3        0.000224208042    -0.000229824048     0.000368752201
       4       -0.000353579103     0.000306126447    -0.000361859015
       5       -0.000007394331    -0.000011269987    -0.000006585833
       6       -0.000003482852    -0.000017075673    -0.000010934761
       7        0.000617393995    -0.000137675091    -0.000511977355
       8        0.000017432693    -0.000007561568     0.000002441109
       9        0.000002287427    -0.000007363468     0.000005728073
      10       -0.000434554069     0.000057195844     0.000536379435

  **** Optimization is complete! (in 6 steps) ****
    Final optimized geometry and variables:
    Molecular point group: c1

    Geometry (in Angstrom), charge = 0, multiplicity = 1:

    H            2.273401990033    -0.495692112213    -0.174609327314
    O            1.447845004608    -0.426969520977     0.267355518885
    C            0.678476357034     0.594037261823    -0.298104916046
    C           -0.722339282104     0.525481379040     0.265714365974
    H            0.633952788482     0.497264263624    -1.380043495132
    H            1.100631252952     1.569740685124    -0.062256432776
    O           -1.414784863274    -0.609917643390    -0.177276682281
    H           -1.251044714927     1.435266656013    -0.003388914761
    H           -0.660552719309     0.485246263503     1.346515055457
    H           -2.098808696987    -0.365590672035    -0.770164660305

  Mulliken Charges: (a.u.)
   Center  Symbol    Alpha    Beta     Spin     Total
       1     H     0.39552  0.39552  0.00000  0.20896
       2     O     4.19313  4.19313  0.00000 -0.38626
       3     C     2.95380  2.95380  0.00000  0.09239
       4     C     2.97038  2.97038  0.00000  0.05924
       5     H     0.47981  0.47981  0.00000  0.04038
       6     H     0.47934  0.47934  0.00000  0.04132
       7     O     4.19929  4.19929  0.00000 -0.39859
       8     H     0.47394  0.47394  0.00000  0.05212
       9     H     0.46136  0.46136  0.00000  0.07727
      10     H     0.39342  0.39342  0.00000  0.21316

   Total alpha = 17.00000, Total beta = 17.00000, Total charge =  0.00000

*** Psi4 exiting successfully. Buy a developer a beer!
