  ==> Input File <==

--------------------------------------------------------------------------
set {
	reference rhf
	basis 6-31G*
}

set_num_threads( 4 )
memory 2 gb

molecule MOL {
0 1

H	 2.845955	 -0.323208	 0.022310
C	 1.900140	 0.071967	 -0.330070
C	 0.778463	 -0.508087	 0.517968
H	 1.782469	 -0.206877	 -1.370777
H	 1.922247	 1.149867	 -0.254252
N	 -0.540928	 0.005139	 0.058438
H	 0.716718	 -1.581298	 0.454712
H	 0.859711	 -0.198647	 1.550086
O	 -1.345826	 0.285325	 0.890849
O	 -0.701331	 0.102203	 -1.120269

	symmetry c1
}
set optking {
	frozen_dihedral = ("
		9 6 3 2
	")
}

ee = optimize('scf')
oeprop('DIPOLE', 'QUADRUPOLE', 'MULLIKEN_CHARGES')
f=open( 'psi4out.xyz', 'w' )
f.write( "10  " )
f.write( str(ee) + "\n" )
f.write( MOL.save_string_xyz() )
f.close()
--------------------------------------------------------------------------

    Molecular point group: c1
  Charge       = 0
  Multiplicity = 1
  Basis Set: 6-31G*
  Basis Set:
  @DF-RHF Final Energy:  -282.69995945464018
    Total Energy =                       -282.6999594546402932
    Molecular point group: c1
  Basis Set: 6-31G*
  Basis Set:
  Basis Set: 6-31G*
  Basis Set:
  @DF-RHF Final Energy:  -282.69629321927152
    Total Energy =                       -282.6962932192712401
  Basis Set: 6-31G*
  Basis Set:
  Basis Set: 6-31G*
  Basis Set:
  @DF-RHF Final Energy:  -282.69976271000235
    Total Energy =                       -282.6997627100021191
  Basis Set: 6-31G*
  Basis Set:
  Basis Set: 6-31G*
  Basis Set:
  @DF-RHF Final Energy:  -282.70045531923643
    Total Energy =                       -282.7004553192363119
  Basis Set: 6-31G*
  Basis Set:
  Basis Set: 6-31G*
  Basis Set:
  @DF-RHF Final Energy:  -282.70046027531504
    Total Energy =                       -282.7004602753151516
  Basis Set: 6-31G*
  Basis Set:
  Charge       = 0
  Multiplicity = 1
  Basis Set: 6-31G*
  Basis Set:

    Orbital Energies (a.u.)
    -----------------------

    Doubly Occupied:

       1A    -20.603581     2A    -20.601926     3A    -15.849512
       4A    -11.304560     5A    -11.248692     6A     -1.633044
       7A     -1.418498     8A     -1.126284     9A     -0.967419
      10A     -0.835355    11A     -0.761743    12A     -0.742291
      13A     -0.726590    14A     -0.648298    15A     -0.591683
      16A     -0.563896    17A     -0.541403    18A     -0.486432
      19A     -0.478281    20A     -0.450737

  @DF-RHF Final Energy:  -282.70046169396983

   => Energetics <=

    Nuclear Repulsion Energy =            186.1023622091086338
    One-Electron Energy =                -754.4451947765184059
    Two-Electron Energy =                 285.6423708734398019
    DFT Exchange-Correlation Energy =       0.0000000000000000
    Empirical Dispersion Energy =           0.0000000000000000
    PCM Polarization Energy =               0.0000000000000000
    EFP Energy =                            0.0000000000000000
    Total Energy =                       -282.7004616939699986
    Molecular point group: c1
  Basis Set: 6-31G*
  Basis Set:

  -Total Gradient:
     Atom            X                  Y                   Z
    ------   -----------------  -----------------  -----------------
       1        0.000012734877     0.000000628273     0.000000006938
       2       -0.000017947698    -0.000091065078    -0.000095687901
       3       -0.000007254623     0.000099432271     0.000114201961
       4        0.000005669317     0.000018988088     0.000017491067
       5       -0.000000804918    -0.000006760375    -0.000001044528
       6       -0.000011261238     0.000108464632    -0.000027752659
       7       -0.000017029205     0.000001194379    -0.000009507264
       8       -0.000014260420    -0.000003924526     0.000003054254
       9        0.000009215376    -0.000121716744     0.000032527030
      10        0.000040938540    -0.000005240921    -0.000033288898

  **** Optimization is complete! (in 6 steps) ****
    Final optimized geometry and variables:
    Molecular point group: c1

    Geometry (in Angstrom), charge = 0, multiplicity = 1:

    H            2.857827950599    -0.312001575661     0.047971098985
    C            1.919080158818     0.075567823705    -0.331482382501
    C            0.786995546877    -0.486230692792     0.509710183707
    H            1.815402346678    -0.212650535824    -1.367322046138
    H            1.949618308098     1.157056492476    -0.271343976932
    N           -0.542204914329     0.015025046493     0.059075656422
    H            0.717334323978    -1.562453412441     0.421193508381
    H            0.857506603767    -0.219035207938     1.550727946530
    O           -1.333004077890     0.292363449090     0.906245923779
    O           -0.739042596453     0.074980396828    -1.115698998306

  Mulliken Charges: (a.u.)
   Center  Symbol    Alpha    Beta     Spin     Total
       1     H     0.40781  0.40781  0.00000  0.18438
       2     C     3.25456  3.25456  0.00000 -0.50913
       3     C     3.09506  3.09506  0.00000 -0.19012
       4     H     0.39294  0.39294  0.00000  0.21412
       5     H     0.40399  0.40399  0.00000  0.19202
       6     N     3.21850  3.21850  0.00000  0.56300
       7     H     0.38544  0.38544  0.00000  0.22913
       8     H     0.38489  0.38489  0.00000  0.23022
       9     O     4.22772  4.22772  0.00000 -0.45543
      10     O     4.22910  4.22910  0.00000 -0.45820

   Total alpha = 20.00000, Total beta = 20.00000, Total charge =  0.00000
