  ==> Input File <==

--------------------------------------------------------------------------
set {
	reference rhf
	basis cc-pvtz
}

set_num_threads( 4 )
memory 2 gb

molecule MOL {
0 1

H	 -2.700645	 1.625854	 1.785164
O	 -2.014652	 1.046652	 1.509239
C	 -2.302264	 0.528872	 0.237390
C	 -1.175688	 -0.398187	 -0.171891
H	 -3.243783	 -0.016192	 0.252265
H	 -2.401422	 1.333876	 -0.487845
C	 0.196029	 0.106276	 0.266738
H	 -1.201873	 -0.515469	 -1.250677
H	 -1.365975	 -1.378728	 0.252664
C	 1.330220	 -0.826136	 -0.155230
H	 0.359542	 1.097229	 -0.145561
H	 0.212134	 0.218135	 1.348778
C	 2.719700	 -0.407669	 0.328325
H	 1.339388	 -0.911200	 -1.239363
H	 1.119001	 -1.821953	 0.224128
C	 3.241564	 0.893452	 -0.276737
H	 3.418299	 -1.204729	 0.093035
H	 2.711776	 -0.323368	 1.411960
H	 3.254204	 0.841071	 -1.360784
H	 2.634460	 1.745075	 0.005842
H	 4.254264	 1.092401	 0.054971

	symmetry c1
}
set optking {
	frozen_dihedral = ("
		2 3 4 8
	")
}

ee = optimize('scf')
oeprop('DIPOLE', 'QUADRUPOLE', 'MULLIKEN_CHARGES')
f=open( 'psi4out.xyz', 'w' )
f.write( "21  " )
f.write( str(ee) + "\n" )
f.write( MOL.save_string_xyz() )
f.close()
--------------------------------------------------------------------------

    Molecular point group: c1
  Charge       = 0
  Multiplicity = 1
  Basis Set: CC-PVTZ
  Basis Set:
  @DF-RHF Final Energy:  -310.32925861433472
    Total Energy =                       -310.3292586143344920
    Molecular point group: c1
  Basis Set: CC-PVTZ
  Basis Set:
  Basis Set: CC-PVTZ
  Basis Set:
  @DF-RHF Final Energy:  -310.32987849186026
    Total Energy =                       -310.3298784918597448
  Basis Set: CC-PVTZ
  Basis Set:
  Basis Set: CC-PVTZ
  Basis Set:
  @DF-RHF Final Energy:  -310.33022804414884
    Total Energy =                       -310.3302280441485550
  Basis Set: CC-PVTZ
  Basis Set:
  Basis Set: CC-PVTZ
  Basis Set:
  @DF-RHF Final Energy:  -310.33024048413370
    Total Energy =                       -310.3302404841340376
  Basis Set: CC-PVTZ
  Basis Set:
  Charge       = 0
  Multiplicity = 1
  Basis Set: CC-PVTZ
  Basis Set:

    Orbital Energies (a.u.)
    -----------------------

    Doubly Occupied:

       1A    -20.546155     2A    -11.266359     3A    -11.210934
       4A    -11.208079     5A    -11.205775     6A    -11.202169
       7A    -11.201511     8A     -1.364412     9A     -1.080903
      10A     -1.029687    11A     -0.953381    12A     -0.875799
      13A     -0.800876    14A     -0.772706    15A     -0.703156
      16A     -0.654090    17A     -0.618187    18A     -0.604825
      19A     -0.585983    20A     -0.567825    21A     -0.532312
      22A     -0.526117    23A     -0.500782    24A     -0.492336
      25A     -0.478675    26A     -0.455213    27A     -0.452444
      28A     -0.437151    29A     -0.431250

  @DF-RHF Final Energy:  -310.33023965981329

   => Energetics <=

    Nuclear Repulsion Energy =            318.2896623570260317
    One-Electron Energy =               -1051.7216177522914222
    Two-Electron Energy =                 423.1017157354518190
    DFT Exchange-Correlation Energy =       0.0000000000000000
    Empirical Dispersion Energy =           0.0000000000000000
    PCM Polarization Energy =               0.0000000000000000
    EFP Energy =                            0.0000000000000000
    Total Energy =                       -310.3302396598135715
    Molecular point group: c1
  Basis Set: CC-PVTZ
  Basis Set:

  -Total Gradient:
     Atom            X                  Y                   Z
    ------   -----------------  -----------------  -----------------
       1       -0.000007630672     0.000058612748     0.000073951593
       2        0.002154723697     0.003289440177    -0.001966477220
       3       -0.002029191831    -0.003543896727     0.002307248479
       4       -0.003620160766    -0.004294126697    -0.000128540056
       5       -0.000007271878     0.000050338247     0.000131417430
       6       -0.000030557232     0.000018644125     0.000014009630
       7       -0.000134223640    -0.000069254826     0.000017246511
       8        0.003582666978     0.004352134602    -0.000488212092
       9        0.000008854595     0.000064154737     0.000005968027
      10        0.000067158671     0.000076767578    -0.000089636700
      11       -0.000039617191    -0.000079629937    -0.000006067185
      12       -0.000015254409     0.000034118904     0.000103430366
      13       -0.000024244304     0.000028131344     0.000064336874
      14       -0.000014752731     0.000023142091    -0.000009799251
      15        0.000019045985     0.000026383149    -0.000018716196
      16        0.000040556504    -0.000001816161    -0.000021909044
      17       -0.000000459724    -0.000015778693     0.000030372509
      18       -0.000018157210     0.000026945341     0.000011114752
      19       -0.000012728349     0.000017118517    -0.000021453886
      20        0.000072718807    -0.000038960500     0.000011550625
      21        0.000008524694    -0.000022468020    -0.000019835162

  **** Optimization is complete! (in 5 steps) ****
    Final optimized geometry and variables:
    Molecular point group: c1

    Geometry (in Angstrom), charge = 0, multiplicity = 1:

    H           -3.062762706778     1.461566843994     1.463780103918
    O           -2.336025567246     0.913350229854     1.233155671374
    C           -2.537517204610     0.363785975075    -0.042802808250
    C           -1.397843210199    -0.584954201322    -0.391854719398
    H           -3.485130472710    -0.165764123314    -0.088700479003
    H           -2.574094678038     1.163679674101    -0.779709876802
    C           -0.018396470518    -0.072028296834     0.023366461925
    H           -1.391639522272    -0.701365024002    -1.472131099916
    H           -1.573300779694    -1.559458261777     0.051059498852
    C            1.104698483529    -0.995913583065    -0.444364265456
    H            0.123246521402     0.924179255724    -0.384098007489
    H            0.020313491326     0.031164504069     1.100630051183
    C            2.503340445597    -0.592148325027     0.025533742754
    H            1.097621155465    -1.056713724551    -1.530804384205
    H            0.900024333511    -2.001033365197    -0.084914349479
    C            3.019818161755     0.718950454235    -0.562173912840
    H            3.196202597476    -1.386500213288    -0.235505285575
    H            2.511028409988    -0.527915524740     1.110281425106
    H            3.011298218452     0.689415356356    -1.647308151799
    H            2.421720188903     1.566155417776    -0.249564941916
    H            4.039841176587     0.906460194224    -0.246265875953

  Mulliken Charges: (a.u.)
   Center  Symbol    Alpha    Beta     Spin     Total
       1     H     0.39675  0.39675  0.00000  0.20650
       2     O     4.19557  4.19557  0.00000 -0.39114
       3     C     2.97309  2.97309  0.00000  0.05381
       4     C     3.09395  3.09395  0.00000 -0.18790
       5     H     0.46623  0.46623  0.00000  0.06754
       6     H     0.47356  0.47356  0.00000  0.05288
       7     C     3.08862  3.08862  0.00000 -0.17725
       8     H     0.45641  0.45641  0.00000  0.08717
       9     H     0.45263  0.45263  0.00000  0.09475
      10     C     3.09525  3.09525  0.00000 -0.19050
      11     H     0.45555  0.45555  0.00000  0.08891
      12     H     0.44276  0.44276  0.00000  0.11447
      13     C     3.08927  3.08927  0.00000 -0.17853
      14     H     0.45638  0.45638  0.00000  0.08724
      15     H     0.45101  0.45101  0.00000  0.09798
      16     C     3.15258  3.15258  0.00000 -0.30516
      17     H     0.44986  0.44986  0.00000  0.10027
      18     H     0.45448  0.45448  0.00000  0.09104
      19     H     0.45622  0.45622  0.00000  0.08756
      20     H     0.45260  0.45260  0.00000  0.09480
      21     H     0.44723  0.44723  0.00000  0.10553

   Total alpha = 29.00000, Total beta = 29.00000, Total charge = -0.00000
