  ==> Input File <==

--------------------------------------------------------------------------
set {
	reference rhf
	basis 6-31G*
}

set_num_threads( 4 )
memory 2 gb

molecule MOL {
0 1

H	 1.199372	 -0.394603	 -1.258070
O	 1.654024	 -0.625927	 -0.460906
C	 1.135793	 0.118896	 0.612333
C	 0.031547	 1.023609	 0.088541
H	 1.915668	 0.729681	 1.063582
H	 0.754543	 -0.542641	 1.387006
C	 -1.134819	 0.293262	 -0.585751
H	 0.474374	 1.714721	 -0.623187
H	 -0.338529	 1.620940	 0.920081
C	 -1.917817	 -0.639439	 0.339494
H	 -0.758119	 -0.268455	 -1.433105
H	 -1.813832	 1.041889	 -0.986690
H	 -2.777680	 -1.057197	 -0.174994
H	 -1.310268	 -1.471279	 0.680599
H	 -2.283753	 -0.111424	 1.216626

	symmetry c1
}
set optking {
	frozen_dihedral = ("
		1 2 3 4
	")
}

ee = optimize('scf')
oeprop('DIPOLE', 'QUADRUPOLE', 'MULLIKEN_CHARGES')
f=open( 'psi4out.xyz', 'w' )
f.write( "15  " )
f.write( str(ee) + "\n" )
f.write( MOL.save_string_xyz() )
f.close()
--------------------------------------------------------------------------

    Molecular point group: c1
  Charge       = 0
  Multiplicity = 1
  Basis Set: 6-31G*
  Basis Set:
  @DF-RHF Final Energy:  -232.13819176870351
    Total Energy =                       -232.1381917687032796
    Molecular point group: c1
  Basis Set: 6-31G*
  Basis Set:
  Basis Set: 6-31G*
  Basis Set:
  @DF-RHF Final Energy:  -232.13962425906473
    Total Energy =                       -232.1396242590648740
  Basis Set: 6-31G*
  Basis Set:
  Basis Set: 6-31G*
  Basis Set:
  @DF-RHF Final Energy:  -232.14041422069397
    Total Energy =                       -232.1404142206938559
  Basis Set: 6-31G*
  Basis Set:
  Basis Set: 6-31G*
  Basis Set:
  @DF-RHF Final Energy:  -232.14039256743521
    Total Energy =                       -232.1403925674350148
  Basis Set: 6-31G*
  Basis Set:
  Basis Set: 6-31G*
  Basis Set:
  @DF-RHF Final Energy:  -232.14045241780929
    Total Energy =                       -232.1404524178092288
  Basis Set: 6-31G*
  Basis Set:
  Basis Set: 6-31G*
  Basis Set:
  @DF-RHF Final Energy:  -232.14046003616463
    Total Energy =                       -232.1404600361645407
  Basis Set: 6-31G*
  Basis Set:
  Charge       = 0
  Multiplicity = 1
  Basis Set: 6-31G*
  Basis Set:

    Orbital Energies (a.u.)
    -----------------------

    Doubly Occupied:

       1A    -20.549068     2A    -11.266180     3A    -11.227493
       4A    -11.225620     5A    -11.214699     6A     -1.356389
       7A     -1.074861     8A     -0.976533     9A     -0.883042
      10A     -0.793981    11A     -0.669398    12A     -0.650108
      13A     -0.633680    14A     -0.586167    15A     -0.576534
      16A     -0.548454    17A     -0.506546    18A     -0.484408
      19A     -0.481614    20A     -0.457330    21A     -0.428790

  @DF-RHF Final Energy:  -232.14046072554041

   => Energetics <=

    Nuclear Repulsion Energy =            191.5209123387697616
    One-Electron Energy =                -694.1409548993515273
    Two-Electron Energy =                 270.4795818350411309
    DFT Exchange-Correlation Energy =       0.0000000000000000
    Empirical Dispersion Energy =           0.0000000000000000
    PCM Polarization Energy =               0.0000000000000000
    EFP Energy =                            0.0000000000000000
    Total Energy =                       -232.1404607255406063
    Molecular point group: c1
  Basis Set: 6-31G*
  Basis Set:

  -Total Gradient:
     Atom            X                  Y                   Z
    ------   -----------------  -----------------  -----------------
       1       -0.000518116312    -0.000660688945     0.000120844358
       2        0.000807122769     0.000866390702    -0.000260659147
       3       -0.000567944955    -0.000667889757     0.000138800533
       4        0.000339165286     0.000455644371    -0.000076566363
       5       -0.000058534969     0.000043016850     0.000072665925
       6       -0.000011049546    -0.000013481648    -0.000022631621
       7        0.000008045253    -0.000043377256     0.000000610580
       8       -0.000009698676     0.000014210331    -0.000000927015
       9        0.000000084898    -0.000025022363     0.000003047294
      10       -0.000009537760    -0.000007347920     0.000028963838
      11       -0.000039080976     0.000013597230    -0.000021785842
      12        0.000049099757     0.000019730233    -0.000000950201
      13        0.000009144312     0.000002076030    -0.000006748126
      14        0.000027959914     0.000010633692     0.000014913468
      15       -0.000026658993    -0.000007491548     0.000010422320

  **** Optimization is complete! (in 7 steps) ****
    Final optimized geometry and variables:
    Molecular point group: c1

    Geometry (in Angstrom), charge = 0, multiplicity = 1:

    H            1.373825156756    -0.458324825983    -1.254190619663
    O            1.762698276742    -0.645926487336    -0.413630570562
    C            1.138979143947     0.107051097010     0.598628767389
    C            0.020882414811     1.011966622022     0.090372394721
    H            1.895350293284     0.719259519126     1.079953581507
    H            0.761291374110    -0.580840254301     1.347213222332
    C           -1.162321935929     0.291869697922    -0.571633558989
    H            0.447374109444     1.722595835773    -0.615766910557
    H           -0.344702305936     1.598630117944     0.930081762318
    C           -1.932436243640    -0.644514058792     0.360175776566
    H           -0.824071088723    -0.270672741897    -1.439545072680
    H           -1.841625737660     1.046551635437    -0.958512986919
    H           -2.801754265108    -1.055507793553    -0.143053435231
    H           -1.321395694771    -1.478214361846     0.688418414785
    H           -2.281110067257    -0.117231322755     1.243992152270

  Mulliken Charges: (a.u.)
   Center  Symbol    Alpha    Beta     Spin     Total
       1     H     0.27810  0.27810  0.00000  0.44379
       2     O     4.37915  4.37915  0.00000 -0.75831
       3     C     2.97778  2.97778  0.00000  0.04445
       4     C     3.18868  3.18868  0.00000 -0.37737
       5     H     0.42296  0.42296  0.00000  0.15407
       6     H     0.42377  0.42377  0.00000  0.15245
       7     C     3.15550  3.15550  0.00000 -0.31099
       8     H     0.41797  0.41797  0.00000  0.16405
       9     H     0.41715  0.41715  0.00000  0.16570
      10     C     3.24288  3.24288  0.00000 -0.48577
      11     H     0.42704  0.42704  0.00000  0.14593
      12     H     0.41669  0.41669  0.00000  0.16663
      13     H     0.41703  0.41703  0.00000  0.16594
      14     H     0.41404  0.41404  0.00000  0.17191
      15     H     0.42125  0.42125  0.00000  0.15750

   Total alpha = 21.00000, Total beta = 21.00000, Total charge =  0.00000
