                              Psi4 1.0.54 Driver

  ==> Input File <==

--------------------------------------------------------------------------
set {
	reference rhf
	basis cc-pvtz
}

set_num_threads( 4 )
memory 2 gb

molecule MOL {
0 1

H	 -0.185851	 -0.826727	 -0.871859
N	 -0.625934	 -0.663929	 -0.000707
C	 -1.978635	 -0.158664	 0.001017
C	 0.074470	 -0.929684	 1.124189
H	 -2.519057	 -0.493535	 -0.876362
H	 -1.938890	 0.917202	 -0.004137
H	 -2.514266	 -0.485137	 0.884506
C	 1.472800	 -1.455853	 0.886202
O	 -0.366448	 -0.771891	 2.224083
H	 2.058767	 -0.734015	 0.329253
H	 1.942944	 -1.642322	 1.837654
H	 1.439441	 -2.375324	 0.313420

	symmetry c1
}
set optking {
	frozen_dihedral = ("
		4 2 3 5
	")
}

ee,wfn = optimize('scf', return_wfn=True)
oeprop( wfn, 'DIPOLE', 'QUADRUPOLE', 'MULLIKEN_CHARGES')
f=open( 'psi4out.xyz', 'w' )
f.write( "12  " )
f.write( str(ee) + "\n" )
f.write( MOL.save_string_xyz() )
f.close()
--------------------------------------------------------------------------

    Molecular point group: c1
  Charge       = 0
  Multiplicity = 1
  Basis Set: CC-PVTZ
  Basis Set:
  @DF-RHF Final Energy:  -247.10032850397732
    Total Energy =                       -247.1003285039773232
    Molecular point group: c1
  Basis Set: CC-PVTZ
  Basis Set:
  Basis Set: CC-PVTZ
  Basis Set:
  @DF-RHF Final Energy:  -247.10094525420376
    Total Energy =                       -247.1009452542038503
  Basis Set: CC-PVTZ
  Basis Set:
  Basis Set: CC-PVTZ
  Basis Set:
  @DF-RHF Final Energy:  -247.10073077260898
    Total Energy =                       -247.1007307726090403
  Basis Set: CC-PVTZ
  Basis Set:
  Basis Set: CC-PVTZ
  Basis Set:
  @DF-RHF Final Energy:  -247.10111829822779
    Total Energy =                       -247.1011182982279024
  Basis Set: CC-PVTZ
  Basis Set:
  @DF-RHF Final Energy:  -247.10113267534049
    Total Energy =                       -247.1011326753402955
  @DF-RHF Final Energy:  -247.10115516804697
    Total Energy =                       -247.1011551680468870
  @DF-RHF Final Energy:  -247.10116052302004
    Total Energy =                       -247.1011605230199280
  @DF-RHF Final Energy:  -247.10116279732679
    Total Energy =                       -247.1011627973269356
  @DF-RHF Final Energy:  -247.10116588075647
    Total Energy =                       -247.1011658807565254
  @DF-RHF Final Energy:  -247.10088996877195
    Total Energy =                       -247.1008899687719236
  @DF-RHF Final Energy:  -247.10120945799045
    Total Energy =                       -247.1012094579904215
  @DF-RHF Final Energy:  -247.10091400981753
    Total Energy =                       -247.1009140098175294
  @DF-RHF Final Energy:  -247.08965613770405
    Total Energy =                       -247.0896561377042531
  @DF-RHF Final Energy:  -247.10113974205814
    Total Energy =                       -247.1011397420580238
  @DF-RHF Final Energy:  -247.10122100702475
    Total Energy =                       -247.1012210070248329
  @DF-RHF Final Energy:  -247.10124938704476
    Total Energy =                       -247.1012493870447884
  @DF-RHF Final Energy:  -247.10127225242593
    Total Energy =                       -247.1012722524256446
  @DF-RHF Final Energy:  -247.10129199593067
    Total Energy =                       -247.1012919959305236
  @DF-RHF Final Energy:  -247.10131651101742
    Total Energy =                       -247.1013165110172736
  @DF-RHF Final Energy:  -247.10132496036712
    Total Energy =                       -247.1013249603670943
  @DF-RHF Final Energy:  -247.10133256776143
    Total Energy =                       -247.1013325677612897
  Basis Set: CC-PVTZ
  Basis Set:
  @DF-RHF Final Energy:  -247.10133441393739
    Total Energy =                       -247.1013344139374226
  Basis Set: CC-PVTZ
  Basis Set:
  Basis Set: CC-PVTZ
  Basis Set:
  @DF-RHF Final Energy:  -247.10133578642680
    Total Energy =                       -247.1013357864266027
  Basis Set: CC-PVTZ
  Basis Set:
  Basis Set: CC-PVTZ
  Basis Set:
  @DF-RHF Final Energy:  -247.10133684356185
    Total Energy =                       -247.1013368435618531
  Basis Set: CC-PVTZ
  Basis Set:
  Charge       = 0
  Multiplicity = 1
  Basis Set: CC-PVTZ
  Basis Set:

    Orbital Energies (a.u.)
    -----------------------

    Doubly Occupied:

       1A    -20.504361     2A    -15.576953     3A    -11.336206
       4A    -11.253462     5A    -11.228453     6A     -1.387526
       7A     -1.231852     8A     -1.016098     9A     -0.934147
      10A     -0.789723    11A     -0.690904    12A     -0.652214
      13A     -0.635499    14A     -0.586543    15A     -0.583099
      16A     -0.554851    17A     -0.547320    18A     -0.507149
      19A     -0.416872    20A     -0.390530

  @DF-RHF Final Energy:  -247.10133761220413

   => Energetics <=

    Nuclear Repulsion Energy =            181.7648909821947427
    One-Electron Energy =                -696.0849343524141659
    Two-Electron Energy =                 267.2187057580152896
    DFT Exchange-Correlation Energy =       0.0000000000000000
    Empirical Dispersion Energy =           0.0000000000000000
    PCM Polarization Energy =               0.0000000000000000
    EFP Energy =                            0.0000000000000000
    Total Energy =                       -247.1013376122041336
    Molecular point group: c1
  Basis Set: CC-PVTZ
  Basis Set:

  -Total Gradient:
     Atom            X                  Y                   Z
    ------   -----------------  -----------------  -----------------
       1        0.000003261998    -0.000002163506    -0.000008272608
       2        0.000116644055     0.000300314588    -0.000024227373
       3        0.000067026113     0.000129650734    -0.000202573688
       4       -0.000097202123    -0.000236721114     0.000030248890
       5       -0.000086424864    -0.000197031709     0.000175895593
       6       -0.000000899843     0.000006178502    -0.000001791487
       7       -0.000003660073    -0.000002331446     0.000006698092
       8       -0.000053449531     0.000003160696    -0.000021014056
       9       -0.000006881691     0.000001557783     0.000024338182
      10        0.000047194359     0.000066295958     0.000002759338
      11        0.000015015738    -0.000039525306     0.000064831554
      12       -0.000000624140    -0.000029385180    -0.000046892437

  **** Optimization is complete! (in 25 steps) ****
    Final optimized geometry and variables:
    Molecular point group: c1

    Geometry (in Angstrom), charge = 0, multiplicity = 1:

    H            0.031364486242    -0.240267259948    -1.709722891875
    N           -0.381564678416    -0.019513367377    -0.838872616329
    C           -1.708606319963     0.550821789492    -0.829903493015
    C            0.376788763162    -0.114810817606     0.273214996705
    H           -2.306256993460     0.082942030335    -1.600559969745
    H           -1.692537408332     1.621660650068    -1.000039812158
    H           -2.164632612867     0.365391667582     0.128680643386
    C            1.775106610967    -0.653110668545     0.069433420629
    O           -0.014100421939     0.210575110970     1.355818675226
    H            2.470705751702     0.176085124383     0.116695034383
    H            2.005497531619    -1.327980845680     0.880351453273
    H            1.903069640326    -1.163716731773    -0.875978053290

  Mulliken Charges: (a.u.)
   Center  Symbol    Alpha    Beta     Spin     Total
       1     H     0.41049  0.41049  0.00000  0.17902
       2     N     3.61527  3.61527  0.00000 -0.23054
       3     C     3.08075  3.08075  0.00000 -0.16149
       4     C     2.84181  2.84181  0.00000  0.31637
       5     H     0.45524  0.45524  0.00000  0.08952
       6     H     0.45722  0.45722  0.00000  0.08555
       7     H     0.43499  0.43499  0.00000  0.13003
       8     C     3.14446  3.14446  0.00000 -0.28892
       9     O     4.22025  4.22025  0.00000 -0.44049
      10     H     0.44354  0.44354  0.00000  0.11292
      11     H     0.43749  0.43749  0.00000  0.12502
      12     H     0.45849  0.45849  0.00000  0.08302

   Total alpha = 20.00000, Total beta = 20.00000, Total charge =  0.00000

*** Psi4 exiting successfully. Buy a developer a beer!
