  ==> Input File <==

--------------------------------------------------------------------------
set {
	reference rhf
	basis 6-31G*
}

set_num_threads( 1 )
memory 2 gb

molecule MOL {
0 1

O	 1.235705	 1.271963	 0.277771
C	 1.122059	 0.121804	 -0.000188
C	 -0.170150	 -0.657997	 -0.000612
O	 2.145800	 -0.644285	 -0.355205
C	 -1.412532	 0.227344	 -0.000452
H	 -0.153702	 -1.313099	 -0.867402
H	 -0.153924	 -1.313811	 0.865644
C	 -2.706999	 -0.587347	 -0.000541
H	 -1.388000	 0.879466	 -0.868000
H	 -1.387972	 0.879138	 0.867341
C	 -3.956778	 0.291888	 0.000910
H	 -2.726114	 -1.239230	 -0.871609
H	 -2.725217	 -1.240844	 0.869333
H	 -3.985213	 0.933254	 -0.875158
H	 -4.860123	 -0.309979	 0.000519
H	 -3.984618	 0.931166	 0.878514
C	 3.422358	 -0.032812	 -0.395698
H	 3.432263	 0.779347	 -1.108291
H	 4.110391	 -0.805970	 -0.700307
H	 3.693059	 0.346639	 0.579107

	symmetry c1
}
set optking {
	frozen_dihedral = ("
		9 5 8 12,
		9 5 3 6,
		1 2 4 17
	")
}

ee = energy('scf')
oeprop('DIPOLE', 'QUADRUPOLE', 'MULLIKEN_CHARGES')
f=open( 'psi4out.xyz', 'w' )
f.write( "20  " )
f.write( str(ee) + "\n" )
f.write( MOL.save_string_xyz() )
f.close()
--------------------------------------------------------------------------

    Molecular point group: c1

    Geometry (in Angstrom), charge = 0, multiplicity = 1:

       Center              X                  Y                   Z               Mass
    ------------   -----------------  -----------------  -----------------  -----------------
           O          1.240408943621     1.264134516829     0.340117880562    15.994914619560
           C          1.126762943621     0.113975516829     0.062158880562    12.000000000000
           C         -0.165446056379    -0.665825483171     0.061734880562    12.000000000000
           O          2.150503943621    -0.652113483171    -0.292858119438    15.994914619560
           C         -1.407828056379     0.219515516829     0.061894880562    12.000000000000
           H         -0.148998056379    -1.320927483171    -0.805055119438     1.007825032070
           H         -0.149220056379    -1.321639483171     0.927990880562     1.007825032070
           C         -2.702295056379    -0.595175483171     0.061805880562    12.000000000000
           H         -1.383296056379     0.871637516829    -0.805653119438     1.007825032070
           H         -1.383268056379     0.871309516829     0.929687880562     1.007825032070
           C         -3.952074056379     0.284059516829     0.063256880562    12.000000000000
           H         -2.721410056379    -1.247058483171    -0.809262119438     1.007825032070
           H         -2.720513056379    -1.248672483171     0.931679880562     1.007825032070
           H         -3.980509056379     0.925425516829    -0.812811119438     1.007825032070
           H         -4.855419056379    -0.317807483171     0.062865880562     1.007825032070
           H         -3.979914056379     0.923337516829     0.940860880562     1.007825032070
           C          3.427061943621    -0.040640483171    -0.333351119438    12.000000000000
           H          3.436966943621     0.771518516829    -1.045944119438     1.007825032070
           H          4.115094943621    -0.813798483171    -0.637960119438     1.007825032070
           H          3.697762943621     0.338810516829     0.641453880562     1.007825032070

  Charge       = 0
  Multiplicity = 1
  Basis Set: 6-31G*
  Basis Set:

    Orbital Energies (a.u.)
    -----------------------

    Doubly Occupied:

       1A    -20.604099     2A    -20.545228     3A    -11.372371
       4A    -11.280910     5A    -11.235445     6A    -11.220699
       7A    -11.220009     8A    -11.210909     9A     -1.469505
      10A     -1.362822    11A     -1.089038    12A     -1.024520
      13A     -0.969200    14A     -0.886113    15A     -0.804308
      16A     -0.768140    17A     -0.696527    18A     -0.683523
      19A     -0.672013    20A     -0.646191    21A     -0.597715
      22A     -0.592145    23A     -0.578355    24A     -0.541669
      25A     -0.536314    26A     -0.523034    27A     -0.500581
      28A     -0.478502    29A     -0.474488    30A     -0.470254
      31A     -0.455986    32A     -0.436375

  @DF-RHF Final Energy:  -383.94130391698019

   => Energetics <=

    Nuclear Repulsion Energy =            381.0853681810955891
    One-Electron Energy =               -1278.1595934446768297
    Two-Electron Energy =                 513.1329213466009378
    DFT Exchange-Correlation Energy =       0.0000000000000000
    Empirical Dispersion Energy =           0.0000000000000000
    PCM Polarization Energy =               0.0000000000000000
    EFP Energy =                            0.0000000000000000
    Total Energy =                       -383.9413039169802460

  Mulliken Charges: (a.u.)
   Center  Symbol    Alpha    Beta     Spin     Total
       1     O     4.28600  4.28600  0.00000 -0.57199
       2     C     2.60471  2.60471  0.00000  0.79058
       3     C     3.20891  3.20891  0.00000 -0.41781
       4     O     4.30695  4.30695  0.00000 -0.61390
       5     C     3.15228  3.15228  0.00000 -0.30456
       6     H     0.40122  0.40122  0.00000  0.19756
       7     H     0.39981  0.39981  0.00000  0.20038
       8     C     3.15414  3.15414  0.00000 -0.30828
       9     H     0.41491  0.41491  0.00000  0.17018
      10     H     0.40860  0.40860  0.00000  0.18280
      11     C     3.23940  3.23940  0.00000 -0.47880
      12     H     0.42283  0.42283  0.00000  0.15434
      13     H     0.42265  0.42265  0.00000  0.15471
      14     H     0.42024  0.42024  0.00000  0.15953
      15     H     0.41865  0.41865  0.00000  0.16270
      16     H     0.41965  0.41965  0.00000  0.16069
      17     C     3.09268  3.09268  0.00000 -0.18537
      18     H     0.40892  0.40892  0.00000  0.18217
      19     H     0.40839  0.40839  0.00000  0.18321
      20     H     0.40907  0.40907  0.00000  0.18185

   Total alpha = 32.00000, Total beta = 32.00000, Total charge =  0.00000
